%VERSION  VERSION_STAMP = V0001.000  DATE = 06/27/25  23:16:24
%FLAG TITLE
%FORMAT(20a4)
default_name
%FLAG POINTERS
%FORMAT(10I8)
   30680      15   30277     414     887     562    1771    1360       0       0
   44232   10011     414     562    1360      40      88      38      25       0
       0       0       0       0       0       0       0       1      24       0
       0
%FLAG ATOM_NAME
%FORMAT(20a4)
N   H1  H2  H3  CA  HA2 HA3 C   O   N   H   CA  HA  CB  HB  CG2 HG21HG22HG23CG1 
HG12HG13CD1 HD11HD12HD13C   O   N   H   CA  HA  CB  HB  CG1 HG11HG12HG13CG2 HG21
HG22HG23C   O   N   H   CA  HA  CB  HB2 HB3 CG  HG2 HG3 CD  OE1 OE2 HE21C   O   
HE22HE11HE12N   H   CA  HA  CB  HB2 HB3 CG  HG2 HG3 CD  OE1 NE2 HE21HE22C   O   
N   H   CA  HA  CB  HB2 HB3 SG  C   O   N   H   CA  HA  CB  HB2 HB3 SG  C   O   
N   H   CA  HA  CB  HB  CG2 HG21HG22HG23OG1 HG1 C   O   N   H   CA  HA  CB  HB2 
HB3 OG  HG  C   O   N   H   CA  HA  CB  HB  CG2 HG21HG22HG23CG1 HG12HG13CD1 HD11
HD12HD13C   O   N   H   CA  HA  CB  HB2 HB3 SG  C   O   N   H   CA  HA  CB  HB2 
HB3 OG  HG  C   O   N   H   CA  HA  CB  HB2 HB3 CG  HG  CD1 HD11HD12HD13CD2 HD21
HD22HD23C   O   N   H   CA  HA  CB  HB2 HB3 CG  CD1 HD1 CE1 HE1 CZ  OH  HH  CE2 
HE2 CD2 HD2 C   O   N   H   CA  HA  CB  HB2 HB3 CG  HG2 HG3 CD  OE1 NE2 HE21HE22
C   O   N   H   CA  HA  CB  HB2 HB3 CG  HG  CD1 HD11HD12HD13CD2 HD21HD22HD23C   
O   N   H   CA  HA  CB  HB2 HB3 CG  HG2 HG3 CD  OE1 OE2 HE21C   O   HE22HE11HE12
N   H   CA  HA  CB  HB2 HB3 CG  OD1 ND2 HD21HD22C   O   N   H   CA  HA  CB  HB2 
HB3 CG  CD1 HD1 CE1 HE1 CZ  OH  HH  CE2 HE2 CD2 HD2 C   O   N   H   CA  HA  CB  
HB2 HB3 SG  C   O   N   H   CA  HA  CB  HB2 HB3 CG  OD1 ND2 HD21HD22C   O   OXT 
N   H1  H2  H3  CA  HA  CB  HB2 HB3 CG  CD1 HD1 CE1 HE1 CZ  HZ  CE2 HE2 CD2 HD2 
C   O   N   H   CA  HA  CB  HB  CG1 HG11HG12HG13CG2 HG21HG22HG23C   O   N   H   
CA  HA  CB  HB2 HB3 CG  OD1 ND2 HD21HD22C   O   N   H   CA  HA  CB  HB2 HB3 CG  
HG2 HG3 CD  OE1 NE2 HE21HE22C   O   N   H   CA  HA  CB  HB2 HB3 CG  ND1 HD1 CE1 
HE1 NE2 HE2 CD2 HD2 C   O   N   H   CA  HA  CB  HB2 HB3 CG  HG  CD1 HD11HD12HD13
CD2 HD21HD22HD23C   O   N   H   CA  HA  CB  HB2 HB3 SG  C   O   N   H   CA  HA2 
HA3 C   O   N   H   CA  HA  CB  HB2 HB3 OG  HG  C   O   N   H   CA  HA  CB  HB2 
HB3 CG  ND1 HD1 CE1 HE1 NE2 HE2 CD2 HD2 C   O   N   H   CA  HA  CB  HB2 HB3 CG  
HG  CD1 HD11HD12HD13CD2 HD21HD22HD23C   O   N   H   CA  HA  CB  HB  CG1 HG11HG12
HG13CG2 HG21HG22HG23C   O   N   H   CA  HA  CB  HB2 HB3 CG  HG2 HG3 CD  OE1 OE2 
HE21C   O   HE22HE11HE12N   H   CA  HA  CB  HB1 HB2 HB3 C   O   N   H   CA  HA  
CB  HB2 HB3 CG  HG  CD1 HD11HD12HD13CD2 HD21HD22HD23C   O   N   H   CA  HA  CB  
HB2 HB3 CG  CD1 HD1 CE1 HE1 CZ  OH  HH  CE2 HE2 CD2 HD2 C   O   N   H   CA  HA  
CB  HB2 HB3 CG  HG  CD1 HD11HD12HD13CD2 HD21HD22HD23C   O   N   H   CA  HA  CB  
HB  CG1 HG11HG12HG13CG2 HG21HG22HG23C   O   N   H   CA  HA  CB  HB2 HB3 SG  C   
O   N   H   CA  HA2 HA3 C   O   N   H   CA  HA  CB  HB2 HB3 CG  HG2 HG3 CD  OE1 
OE2 HE21C   O   HE22HE11HE12N   H   CA  HA  CB  HB2 HB3 CG  HG2 HG3 CD  HD2 HD3 
NE  HE  CZ  NH1 HH11HH12NH2 HH21HH22C   O   N   H   CA  HA2 HA3 C   O   N   H   
CA  HA  CB  HB2 HB3 CG  CD1 HD1 CE1 HE1 CZ  HZ  CE2 HE2 CD2 HD2 C   O   N   H   
CA  HA  CB  HB2 HB3 CG  CD1 HD1 CE1 HE1 CZ  HZ  CE2 HE2 CD2 HD2 C   O   N   H   
CA  HA  CB  HB2 HB3 CG  CD1 HD1 CE1 HE1 CZ  OH  HH  CE2 HE2 CD2 HD2 C   O   N   
H   CA  HA  CB  HB  CG2 HG21HG22HG23OG1 HG1 C   O   N   CD  HD2 HD3 CG  HG2 HG3 
CB  HB2 HB3 CA  HA  C   O   N   H   CA  HA  CB  HB2 HB3 CG  HG2 HG3 CD  HD2 HD3 
CE  HE2 HE3 NZ  HZ1 HZ2 HZ3 C   O   N   H   CA  HA  CB  HB1 HB2 HB3 C   O   OXT 
O   H1  H2  O   H1  H2  O   H1  H2  O   H1  H2  O   H1  H2  O   H1  H2  O   H1  
H2  O   H1  H2  O   H1  H2  O   H1  H2  O   H1  H2  O   H1  H2  O   H1  H2  O   
H1  H2  O   H1  H2  O   H1  H2  O   H1  H2  O   H1  H2  O   H1  H2  O   H1  H2  
O   H1  H2  O   H1  H2  O   H1  H2  O   H1  H2  O   H1  H2  O   H1  H2  O   H1  
H2  O   H1  H2  O   H1  H2  O   H1  H2  O   H1  H2  O   H1  H2  O   H1  H2  O   
H1  H2  O   H1  H2  O   H1  H2  O   H1  H2  O   H1  H2  O   H1  H2  O   H1  H2  
O   H1  H2  O   H1  H2  O   H1  H2  O   H1  H2  O   H1  H2  O   H1  H2  O   H1  
H2  O   H1  H2  O   H1  H2  O   H1  H2  O   H1  H2  O   H1  H2  O   H1  H2  O   
H1  H2  O   H1  H2  O   H1  H2  O   H1  H2  O   H1  H2  O   H1  H2  O   H1  H2  
O   H1  H2  O   H1  H2  O   H1  H2  O   H1  H2  O   H1  H2  O   H1  H2  O   H1  
H2  O   H1  H2  O   H1  H2  O   H1  H2  O   H1  H2  O   H1  H2  O   H1  H2  O   
H1  H2  O   H1  H2  O   H1  H2  O   H1  H2  O   H1  H2  O   H1  H2  O   H1  H2  
O   H1  H2  O   H1  H2  O   H1  H2  O   H1  H2  O   H1  H2  O   H1  H2  O   H1  
H2  O   H1  H2  O   H1  H2  O   H1  H2  O   H1  H2  O   H1  H2  O   H1  H2  O   
H1  H2  O   H1  H2  O   H1  H2  O   H1  H2  O   H1  H2  O   H1  H2  O   H1  H2  
O   H1  H2  O   H1  H2  O   H1  H2  O   H1  H2  O   H1  H2  O   H1  H2  O   H1  
H2  O   H1  H2  O   H1  H2  O   H1  H2  O   H1  H2  O   H1  H2  O   H1  H2  O   
H1  H2  O   H1  H2  O   H1  H2  O   H1  H2  O   H1  H2  O   H1  H2  O   H1  H2  
O   H1  H2  O   H1  H2  O   H1  H2  O   H1  H2  O   H1  H2  O   H1  H2  O   H1  
H2  O   H1  H2  O   H1  H2  O   H1  H2  O   H1  H2  O   H1  H2  O   H1  H2  O   
H1  H2  O   H1  H2  O   H1  H2  O   H1  H2  O   H1  H2  O   H1  H2  O   H1  H2  
O   H1  H2  O   H1  H2  O   H1  H2  O   H1  H2  O   H1  H2  O   H1  H2  O   H1  
H2  O   H1  H2  O   H1  H2  O   H1  H2  O   H1  H2  O   H1  H2  O   H1  H2  O   
H1  H2  O   H1  H2  O   H1  H2  O   H1  H2  O   H1  H2  O   H1  H2  O   H1  H2  
O   H1  H2  O   H1  H2  O   H1  H2  O   H1  H2  O   H1  H2  O   H1  H2  O   H1  
H2  O   H1  H2  O   H1  H2  O   H1  H2  O   H1  H2  O   H1  H2  O   H1  H2  O   
H1  H2  O   H1  H2  O   H1  H2  O   H1  H2  O   H1  H2  O   H1  H2  O   H1  H2  
O   H1  H2  O   H1  H2  O   H1  H2  O   H1  H2  O   H1  H2  O   H1  H2  O   H1  
H2  O   H1  H2  O   H1  H2  O   H1  H2  O   H1  H2  O   H1  H2  O   H1  H2  O   
H1  H2  O   H1  H2  O   H1  H2  O   H1  H2  O   H1  H2  O   H1  H2  O   H1  H2  
O   H1  H2  O   H1  H2  O   H1  H2  O   H1  H2  O   H1  H2  O   H1  H2  O   H1  
H2  O   H1  H2  O   H1  H2  O   H1  H2  O   H1  H2  O   H1  H2  O   H1  H2  O   
H1  H2  O   H1  H2  O   H1  H2  O   H1  H2  O   H1  H2  O   H1  H2  O   H1  H2  
O   H1  H2  O   H1  H2  O   H1  H2  O   H1  H2  O   H1  H2  O   H1  H2  O   H1  
H2  O   H1  H2  O   H1  H2  O   H1  H2  O   H1  H2  O   H1  H2  O   H1  H2  O   
H1  H2  O   H1  H2  O   H1  H2  O   H1  H2  O   H1  H2  O   H1  H2  O   H1  H2  
O   H1  H2  O   H1  H2  O   H1  H2  O   H1  H2  O   H1  H2  O   H1  H2  O   H1  
H2  O   H1  H2  O   H1  H2  O   H1  H2  O   H1  H2  O   H1  H2  O   H1  H2  O   
H1  H2  O   H1  H2  O   H1  H2  O   H1  H2  O   H1  H2  O   H1  H2  O   H1  H2  
O   H1  H2  O   H1  H2  O   H1  H2  O   H1  H2  O   H1  H2  O   H1  H2  O   H1  
H2  O   H1  H2  O   H1  H2  O   H1  H2  O   H1  H2  O   H1  H2  O   H1  H2  O   
H1  H2  O   H1  H2  O   H1  H2  O   H1  H2  O   H1  H2  O   H1  H2  O   H1  H2  
O   H1  H2  O   H1  H2  O   H1  H2  O   H1  H2  O   H1  H2  O   H1  H2  O   H1  
H2  O   H1  H2  O   H1  H2  O   H1  H2  O   H1  H2  O   H1  H2  O   H1  H2  O   
H1  H2  O   H1  H2  O   H1  H2  O   H1  H2  O   H1  H2  O   H1  H2  O   H1  H2  
O   H1  H2  O   H1  H2  O   H1  H2  O   H1  H2  O   H1  H2  O   H1  H2  O   H1  
H2  O   H1  H2  O   H1  H2  O   H1  H2  O   H1  H2  O   H1  H2  O   H1  H2  O   
H1  H2  O   H1  H2  O   H1  H2  O   H1  H2  O   H1  H2  O   H1  H2  O   H1  H2  
O   H1  H2  O   H1  H2  O   H1  H2  O   H1  H2  O   H1  H2  O   H1  H2  O   H1  
H2  O   H1  H2  O   H1  H2  O   H1  H2  O   H1  H2  O   H1  H2  O   H1  H2  O   
H1  H2  O   H1  H2  O   H1  H2  O   H1  H2  O   H1  H2  O   H1  H2  O   H1  H2  
O   H1  H2  O   H1  H2  O   H1  H2  O   H1  H2  O   H1  H2  O   H1  H2  O   H1  
H2  O   H1  H2  O   H1  H2  O   H1  H2  O   H1  H2  O   H1  H2  O   H1  H2  O   
H1  H2  O   H1  H2  O   H1  H2  O   H1  H2  O   H1  H2  O   H1  H2  O   H1  H2  
O   H1  H2  O   H1  H2  O   H1  H2  O   H1  H2  O   H1  H2  O   H1  H2  O   H1  
H2  O   H1  H2  O   H1  H2  O   H1  H2  O   H1  H2  O   H1  H2  O   H1  H2  O   
H1  H2  O   H1  H2  O   H1  H2  O   H1  H2  O   H1  H2  O   H1  H2  O   H1  H2  
O   H1  H2  O   H1  H2  O   H1  H2  O   H1  H2  O   H1  H2  O   H1  H2  O   H1  
H2  O   H1  H2  O   H1  H2  O   H1  H2  O   H1  H2  O   H1  H2  O   H1  H2  O   
H1  H2  O   H1  H2  O   H1  H2  O   H1  H2  O   H1  H2  O   H1  H2  O   H1  H2  
O   H1  H2  O   H1  H2  O   H1  H2  O   H1  H2  O   H1  H2  O   H1  H2  O   H1  
H2  O   H1  H2  O   H1  H2  O   H1  H2  O   H1  H2  O   H1  H2  O   H1  H2  O   
H1  H2  O   H1  H2  O   H1  H2  O   H1  H2  O   H1  H2  O   H1  H2  O   H1  H2  
O   H1  H2  O   H1  H2  O   H1  H2  O   H1  H2  O   H1  H2  O   H1  H2  O   H1  
H2  O   H1  H2  O   H1  H2  O   H1  H2  O   H1  H2  O   H1  H2  O   H1  H2  O   
H1  H2  O   H1  H2  O   H1  H2  O   H1  H2  O   H1  H2  O   H1  H2  O   H1  H2  
O   H1  H2  O   H1  H2  O   H1  H2  O   H1  H2  O   H1  H2  O   H1  H2  O   H1  
H2  O   H1  H2  O   H1  H2  O   H1  H2  O   H1  H2  O   H1  H2  O   H1  H2  O   
H1  H2  O   H1  H2  O   H1  H2  O   H1  H2  O   H1  H2  O   H1  H2  O   H1  H2  
O   H1  H2  O   H1  H2  O   H1  H2  O   H1  H2  O   H1  H2  O   H1  H2  O   H1  
H2  O   H1  H2  O   H1  H2  O   H1  H2  O   H1  H2  O   H1  H2  O   H1  H2  O   
H1  H2  O   H1  H2  O   H1  H2  O   H1  H2  O   H1  H2  O   H1  H2  O   H1  H2  
O   H1  H2  O   H1  H2  O   H1  H2  O   H1  H2  O   H1  H2  O   H1  H2  O   H1  
H2  O   H1  H2  O   H1  H2  O   H1  H2  O   H1  H2  O   H1  H2  O   H1  H2  O   
H1  H2  O   H1  H2  O   H1  H2  O   H1  H2  O   H1  H2  O   H1  H2  O   H1  H2  
O   H1  H2  O   H1  H2  O   H1  H2  O   H1  H2  O   H1  H2  O   H1  H2  O   H1  
H2  O   H1  H2  O   H1  H2  O   H1  H2  O   H1  H2  O   H1  H2  O   H1  H2  O   
H1  H2  O   H1  H2  O   H1  H2  O   H1  H2  O   H1  H2  O   H1  H2  O   H1  H2  
O   H1  H2  O   H1  H2  O   H1  H2  O   H1  H2  O   H1  H2  O   H1  H2  O   H1  
H2  O   H1  H2  O   H1  H2  O   H1  H2  O   H1  H2  O   H1  H2  O   H1  H2  O   
H1  H2  O   H1  H2  O   H1  H2  O   H1  H2  O   H1  H2  O   H1  H2  O   H1  H2  
O   H1  H2  O   H1  H2  O   H1  H2  O   H1  H2  O   H1  H2  O   H1  H2  O   H1  
H2  O   H1  H2  O   H1  H2  O   H1  H2  O   H1  H2  O   H1  H2  O   H1  H2  O   
H1  H2  O   H1  H2  O   H1  H2  O   H1  H2  O   H1  H2  O   H1  H2  O   H1  H2  
O   H1  H2  O   H1  H2  O   H1  H2  O   H1  H2  O   H1  H2  O   H1  H2  O   H1  
H2  O   H1  H2  O   H1  H2  O   H1  H2  O   H1  H2  O   H1  H2  O   H1  H2  O   
H1  H2  O   H1  H2  O   H1  H2  O   H1  H2  O   H1  H2  O   H1  H2  O   H1  H2  
O   H1  H2  O   H1  H2  O   H1  H2  O   H1  H2  O   H1  H2  O   H1  H2  O   H1  
H2  O   H1  H2  O   H1  H2  O   H1  H2  O   H1  H2  O   H1  H2  O   H1  H2  O   
H1  H2  O   H1  H2  O   H1  H2  O   H1  H2  O   H1  H2  O   H1  H2  O   H1  H2  
O   H1  H2  O   H1  H2  O   H1  H2  O   H1  H2  O   H1  H2  O   H1  H2  O   H1  
H2  O   H1  H2  O   H1  H2  O   H1  H2  O   H1  H2  O   H1  H2  O   H1  H2  O   
H1  H2  O   H1  H2  O   H1  H2  O   H1  H2  O   H1  H2  O   H1  H2  O   H1  H2  
O   H1  H2  O   H1  H2  O   H1  H2  O   H1  H2  O   H1  H2  O   H1  H2  O   H1  
H2  O   H1  H2  O   H1  H2  O   H1  H2  O   H1  H2  O   H1  H2  O   H1  H2  O   
H1  H2  O   H1  H2  O   H1  H2  O   H1  H2  O   H1  H2  O   H1  H2  O   H1  H2  
O   H1  H2  O   H1  H2  O   H1  H2  O   H1  H2  O   H1  H2  O   H1  H2  O   H1  
H2  O   H1  H2  O   H1  H2  O   H1  H2  O   H1  H2  O   H1  H2  O   H1  H2  O   
H1  H2  O   H1  H2  O   H1  H2  O   H1  H2  O   H1  H2  O   H1  H2  O   H1  H2  
O   H1  H2  O   H1  H2  O   H1  H2  O   H1  H2  O   H1  H2  O   H1  H2  O   H1  
H2  O   H1  H2  O   H1  H2  O   H1  H2  O   H1  H2  O   H1  H2  O   H1  H2  O   
H1  H2  O   H1  H2  O   H1  H2  O   H1  H2  O   H1  H2  O   H1  H2  O   H1  H2  
O   H1  H2  O   H1  H2  O   H1  H2  O   H1  H2  O   H1  H2  O   H1  H2  O   H1  
H2  O   H1  H2  O   H1  H2  O   H1  H2  O   H1  H2  O   H1  H2  O   H1  H2  O   
H1  H2  O   H1  H2  O   H1  H2  O   H1  H2  O   H1  H2  O   H1  H2  O   H1  H2  
O   H1  H2  O   H1  H2  O   H1  H2  O   H1  H2  O   H1  H2  O   H1  H2  O   H1  
H2  O   H1  H2  O   H1  H2  O   H1  H2  O   H1  H2  O   H1  H2  O   H1  H2  O   
H1  H2  O   H1  H2  O   H1  H2  O   H1  H2  O   H1  H2  O   H1  H2  O   H1  H2  
O   H1  H2  O   H1  H2  O   H1  H2  O   H1  H2  O   H1  H2  O   H1  H2  O   H1  
H2  O   H1  H2  O   H1  H2  O   H1  H2  O   H1  H2  O   H1  H2  O   H1  H2  O   
H1  H2  O   H1  H2  O   H1  H2  O   H1  H2  O   H1  H2  O   H1  H2  O   H1  H2  
O   H1  H2  O   H1  H2  O   H1  H2  O   H1  H2  O   H1  H2  O   H1  H2  O   H1  
H2  O   H1  H2  O   H1  H2  O   H1  H2  O   H1  H2  O   H1  H2  O   H1  H2  O   
H1  H2  O   H1  H2  O   H1  H2  O   H1  H2  O   H1  H2  O   H1  H2  O   H1  H2  
O   H1  H2  O   H1  H2  O   H1  H2  O   H1  H2  O   H1  H2  O   H1  H2  O   H1  
H2  O   H1  H2  O   H1  H2  O   H1  H2  O   H1  H2  O   H1  H2  O   H1  H2  O   
H1  H2  O   H1  H2  O   H1  H2  O   H1  H2  O   H1  H2  O   H1  H2  O   H1  H2  
O   H1  H2  O   H1  H2  O   H1  H2  O   H1  H2  O   H1  H2  O   H1  H2  O   H1  
H2  O   H1  H2  O   H1  H2  O   H1  H2  O   H1  H2  O   H1  H2  O   H1  H2  O   
H1  H2  O   H1  H2  O   H1  H2  O   H1  H2  O   H1  H2  O   H1  H2  O   H1  H2  
O   H1  H2  O   H1  H2  O   H1  H2  O   H1  H2  O   H1  H2  O   H1  H2  O   H1  
H2  O   H1  H2  O   H1  H2  O   H1  H2  O   H1  H2  O   H1  H2  O   H1  H2  O   
H1  H2  O   H1  H2  O   H1  H2  O   H1  H2  O   H1  H2  O   H1  H2  O   H1  H2  
O   H1  H2  O   H1  H2  O   H1  H2  O   H1  H2  O   H1  H2  O   H1  H2  O   H1  
H2  O   H1  H2  O   H1  H2  O   H1  H2  O   H1  H2  O   H1  H2  O   H1  H2  O   
H1  H2  O   H1  H2  O   H1  H2  O   H1  H2  O   H1  H2  O   H1  H2  O   H1  H2  
O   H1  H2  O   H1  H2  O   H1  H2  O   H1  H2  O   H1  H2  O   H1  H2  O   H1  
H2  O   H1  H2  O   H1  H2  O   H1  H2  O   H1  H2  O   H1  H2  O   H1  H2  O   
H1  H2  O   H1  H2  O   H1  H2  O   H1  H2  O   H1  H2  O   H1  H2  O   H1  H2  
O   H1  H2  O   H1  H2  O   H1  H2  O   H1  H2  O   H1  H2  O   H1  H2  O   H1  
H2  O   H1  H2  O   H1  H2  O   H1  H2  O   H1  H2  O   H1  H2  O   H1  H2  O   
H1  H2  O   H1  H2  O   H1  H2  O   H1  H2  O   H1  H2  O   H1  H2  O   H1  H2  
O   H1  H2  O   H1  H2  O   H1  H2  O   H1  H2  O   H1  H2  O   H1  H2  O   H1  
H2  O   H1  H2  O   H1  H2  O   H1  H2  O   H1  H2  O   H1  H2  O   H1  H2  O   
H1  H2  O   H1  H2  O   H1  H2  O   H1  H2  O   H1  H2  O   H1  H2  O   H1  H2  
O   H1  H2  O   H1  H2  O   H1  H2  O   H1  H2  O   H1  H2  O   H1  H2  O   H1  
H2  O   H1  H2  O   H1  H2  O   H1  H2  O   H1  H2  O   H1  H2  O   H1  H2  O   
H1  H2  O   H1  H2  O   H1  H2  O   H1  H2  O   H1  H2  O   H1  H2  O   H1  H2  
O   H1  H2  O   H1  H2  O   H1  H2  O   H1  H2  O   H1  H2  O   H1  H2  O   H1  
H2  O   H1  H2  O   H1  H2  O   H1  H2  O   H1  H2  O   H1  H2  O   H1  H2  O   
H1  H2  O   H1  H2  O   H1  H2  O   H1  H2  O   H1  H2  O   H1  H2  O   H1  H2  
O   H1  H2  O   H1  H2  O   H1  H2  O   H1  H2  O   H1  H2  O   H1  H2  O   H1  
H2  O   H1  H2  O   H1  H2  O   H1  H2  O   H1  H2  O   H1  H2  O   H1  H2  O   
H1  H2  O   H1  H2  O   H1  H2  O   H1  H2  O   H1  H2  O   H1  H2  O   H1  H2  
O   H1  H2  O   H1  H2  O   H1  H2  O   H1  H2  O   H1  H2  O   H1  H2  O   H1  
H2  O   H1  H2  O   H1  H2  O   H1  H2  O   H1  H2  O   H1  H2  O   H1  H2  O   
H1  H2  O   H1  H2  O   H1  H2  O   H1  H2  O   H1  H2  O   H1  H2  O   H1  H2  
O   H1  H2  O   H1  H2  O   H1  H2  O   H1  H2  O   H1  H2  O   H1  H2  O   H1  
H2  O   H1  H2  O   H1  H2  O   H1  H2  O   H1  H2  O   H1  H2  O   H1  H2  O   
H1  H2  O   H1  H2  O   H1  H2  O   H1  H2  O   H1  H2  O   H1  H2  O   H1  H2  
O   H1  H2  O   H1  H2  O   H1  H2  O   H1  H2  O   H1  H2  O   H1  H2  O   H1  
H2  O   H1  H2  O   H1  H2  O   H1  H2  O   H1  H2  O   H1  H2  O   H1  H2  O   
H1  H2  O   H1  H2  O   H1  H2  O   H1  H2  O   H1  H2  O   H1  H2  O   H1  H2  
O   H1  H2  O   H1  H2  O   H1  H2  O   H1  H2  O   H1  H2  O   H1  H2  O   H1  
H2  O   H1  H2  O   H1  H2  O   H1  H2  O   H1  H2  O   H1  H2  O   H1  H2  O   
H1  H2  O   H1  H2  O   H1  H2  O   H1  H2  O   H1  H2  O   H1  H2  O   H1  H2  
O   H1  H2  O   H1  H2  O   H1  H2  O   H1  H2  O   H1  H2  O   H1  H2  O   H1  
H2  O   H1  H2  O   H1  H2  O   H1  H2  O   H1  H2  O   H1  H2  O   H1  H2  O   
H1  H2  O   H1  H2  O   H1  H2  O   H1  H2  O   H1  H2  O   H1  H2  O   H1  H2  
O   H1  H2  O   H1  H2  O   H1  H2  O   H1  H2  O   H1  H2  O   H1  H2  O   H1  
H2  O   H1  H2  O   H1  H2  O   H1  H2  O   H1  H2  O   H1  H2  O   H1  H2  O   
H1  H2  O   H1  H2  O   H1  H2  O   H1  H2  O   H1  H2  O   H1  H2  O   H1  H2  
O   H1  H2  O   H1  H2  O   H1  H2  O   H1  H2  O   H1  H2  O   H1  H2  O   H1  
H2  O   H1  H2  O   H1  H2  O   H1  H2  O   H1  H2  O   H1  H2  O   H1  H2  O   
H1  H2  O   H1  H2  O   H1  H2  O   H1  H2  O   H1  H2  O   H1  H2  O   H1  H2  
O   H1  H2  O   H1  H2  O   H1  H2  O   H1  H2  O   H1  H2  O   H1  H2  O   H1  
H2  O   H1  H2  O   H1  H2  O   H1  H2  O   H1  H2  O   H1  H2  O   H1  H2  O   
H1  H2  O   H1  H2  O   H1  H2  O   H1  H2  O   H1  H2  O   H1  H2  O   H1  H2  
O   H1  H2  O   H1  H2  O   H1  H2  O   H1  H2  O   H1  H2  O   H1  H2  O   H1  
H2  O   H1  H2  O   H1  H2  O   H1  H2  O   H1  H2  O   H1  H2  O   H1  H2  O   
H1  H2  O   H1  H2  O   H1  H2  O   H1  H2  O   H1  H2  O   H1  H2  O   H1  H2  
O   H1  H2  O   H1  H2  O   H1  H2  O   H1  H2  O   H1  H2  O   H1  H2  O   H1  
H2  O   H1  H2  O   H1  H2  O   H1  H2  O   H1  H2  O   H1  H2  O   H1  H2  O   
H1  H2  O   H1  H2  O   H1  H2  O   H1  H2  O   H1  H2  O   H1  H2  O   H1  H2  
O   H1  H2  O   H1  H2  O   H1  H2  O   H1  H2  O   H1  H2  O   H1  H2  O   H1  
H2  O   H1  H2  O   H1  H2  O   H1  H2  O   H1  H2  O   H1  H2  O   H1  H2  O   
H1  H2  O   H1  H2  O   H1  H2  O   H1  H2  O   H1  H2  O   H1  H2  O   H1  H2  
O   H1  H2  O   H1  H2  O   H1  H2  O   H1  H2  O   H1  H2  O   H1  H2  O   H1  
H2  O   H1  H2  O   H1  H2  O   H1  H2  O   H1  H2  O   H1  H2  O   H1  H2  O   
H1  H2  O   H1  H2  O   H1  H2  O   H1  H2  O   H1  H2  O   H1  H2  O   H1  H2  
O   H1  H2  O   H1  H2  O   H1  H2  O   H1  H2  O   H1  H2  O   H1  H2  O   H1  
H2  O   H1  H2  O   H1  H2  O   H1  H2  O   H1  H2  O   H1  H2  O   H1  H2  O   
H1  H2  O   H1  H2  O   H1  H2  O   H1  H2  O   H1  H2  O   H1  H2  O   H1  H2  
O   H1  H2  O   H1  H2  O   H1  H2  O   H1  H2  O   H1  H2  O   H1  H2  O   H1  
H2  O   H1  H2  O   H1  H2  O   H1  H2  O   H1  H2  O   H1  H2  O   H1  H2  O   
H1  H2  O   H1  H2  O   H1  H2  O   H1  H2  O   H1  H2  O   H1  H2  O   H1  H2  
O   H1  H2  O   H1  H2  O   H1  H2  O   H1  H2  O   H1  H2  O   H1  H2  O   H1  
H2  O   H1  H2  O   H1  H2  O   H1  H2  O   H1  H2  O   H1  H2  O   H1  H2  O   
H1  H2  O   H1  H2  O   H1  H2  O   H1  H2  O   H1  H2  O   H1  H2  O   H1  H2  
O   H1  H2  O   H1  H2  O   H1  H2  O   H1  H2  O   H1  H2  O   H1  H2  O   H1  
H2  O   H1  H2  O   H1  H2  O   H1  H2  O   H1  H2  O   H1  H2  O   H1  H2  O   
H1  H2  O   H1  H2  O   H1  H2  O   H1  H2  O   H1  H2  O   H1  H2  O   H1  H2  
O   H1  H2  O   H1  H2  O   H1  H2  O   H1  H2  O   H1  H2  O   H1  H2  O   H1  
H2  O   H1  H2  O   H1  H2  O   H1  H2  O   H1  H2  O   H1  H2  O   H1  H2  O   
H1  H2  O   H1  H2  O   H1  H2  O   H1  H2  O   H1  H2  O   H1  H2  O   H1  H2  
O   H1  H2  O   H1  H2  O   H1  H2  O   H1  H2  O   H1  H2  O   H1  H2  O   H1  
H2  O   H1  H2  O   H1  H2  O   H1  H2  O   H1  H2  O   H1  H2  O   H1  H2  O   
H1  H2  O   H1  H2  O   H1  H2  O   H1  H2  O   H1  H2  O   H1  H2  O   H1  H2  
O   H1  H2  O   H1  H2  O   H1  H2  O   H1  H2  O   H1  H2  O   H1  H2  O   H1  
H2  O   H1  H2  O   H1  H2  O   H1  H2  O   H1  H2  O   H1  H2  O   H1  H2  O   
H1  H2  O   H1  H2  O   H1  H2  O   H1  H2  O   H1  H2  O   H1  H2  O   H1  H2  
O   H1  H2  O   H1  H2  O   H1  H2  O   H1  H2  O   H1  H2  O   H1  H2  O   H1  
H2  O   H1  H2  O   H1  H2  O   H1  H2  O   H1  H2  O   H1  H2  O   H1  H2  O   
H1  H2  O   H1  H2  O   H1  H2  O   H1  H2  O   H1  H2  O   H1  H2  O   H1  H2  
O   H1  H2  O   H1  H2  O   H1  H2  O   H1  H2  O   H1  H2  O   H1  H2  O   H1  
H2  O   H1  H2  O   H1  H2  O   H1  H2  O   H1  H2  O   H1  H2  O   H1  H2  O   
H1  H2  O   H1  H2  O   H1  H2  O   H1  H2  O   H1  H2  O   H1  H2  O   H1  H2  
O   H1  H2  O   H1  H2  O   H1  H2  O   H1  H2  O   H1  H2  O   H1  H2  O   H1  
H2  O   H1  H2  O   H1  H2  O   H1  H2  O   H1  H2  O   H1  H2  O   H1  H2  O   
H1  H2  O   H1  H2  O   H1  H2  O   H1  H2  O   H1  H2  O   H1  H2  O   H1  H2  
O   H1  H2  O   H1  H2  O   H1  H2  O   H1  H2  O   H1  H2  O   H1  H2  O   H1  
H2  O   H1  H2  O   H1  H2  O   H1  H2  O   H1  H2  O   H1  H2  O   H1  H2  O   
H1  H2  O   H1  H2  O   H1  H2  O   H1  H2  O   H1  H2  O   H1  H2  O   H1  H2  
O   H1  H2  O   H1  H2  O   H1  H2  O   H1  H2  O   H1  H2  O   H1  H2  O   H1  
H2  O   H1  H2  O   H1  H2  O   H1  H2  O   H1  H2  O   H1  H2  O   H1  H2  O   
H1  H2  O   H1  H2  O   H1  H2  O   H1  H2  O   H1  H2  O   H1  H2  O   H1  H2  
O   H1  H2  O   H1  H2  O   H1  H2  O   H1  H2  O   H1  H2  O   H1  H2  O   H1  
H2  O   H1  H2  O   H1  H2  O   H1  H2  O   H1  H2  O   H1  H2  O   H1  H2  O   
H1  H2  O   H1  H2  O   H1  H2  O   H1  H2  O   H1  H2  O   H1  H2  O   H1  H2  
O   H1  H2  O   H1  H2  O   H1  H2  O   H1  H2  O   H1  H2  O   H1  H2  O   H1  
H2  O   H1  H2  O   H1  H2  O   H1  H2  O   H1  H2  O   H1  H2  O   H1  H2  O   
H1  H2  O   H1  H2  O   H1  H2  O   H1  H2  O   H1  H2  O   H1  H2  O   H1  H2  
O   H1  H2  O   H1  H2  O   H1  H2  O   H1  H2  O   H1  H2  O   H1  H2  O   H1  
H2  O   H1  H2  O   H1  H2  O   H1  H2  O   H1  H2  O   H1  H2  O   H1  H2  O   
H1  H2  O   H1  H2  O   H1  H2  O   H1  H2  O   H1  H2  O   H1  H2  O   H1  H2  
O   H1  H2  O   H1  H2  O   H1  H2  O   H1  H2  O   H1  H2  O   H1  H2  O   H1  
H2  O   H1  H2  O   H1  H2  O   H1  H2  O   H1  H2  O   H1  H2  O   H1  H2  O   
H1  H2  O   H1  H2  O   H1  H2  O   H1  H2  O   H1  H2  O   H1  H2  O   H1  H2  
O   H1  H2  O   H1  H2  O   H1  H2  O   H1  H2  O   H1  H2  O   H1  H2  O   H1  
H2  O   H1  H2  O   H1  H2  O   H1  H2  O   H1  H2  O   H1  H2  O   H1  H2  O   
H1  H2  O   H1  H2  O   H1  H2  O   H1  H2  O   H1  H2  O   H1  H2  O   H1  H2  
O   H1  H2  O   H1  H2  O   H1  H2  O   H1  H2  O   H1  H2  O   H1  H2  O   H1  
H2  O   H1  H2  O   H1  H2  O   H1  H2  O   H1  H2  O   H1  H2  O   H1  H2  O   
H1  H2  O   H1  H2  O   H1  H2  O   H1  H2  O   H1  H2  O   H1  H2  O   H1  H2  
O   H1  H2  O   H1  H2  O   H1  H2  O   H1  H2  O   H1  H2  O   H1  H2  O   H1  
H2  O   H1  H2  O   H1  H2  O   H1  H2  O   H1  H2  O   H1  H2  O   H1  H2  O   
H1  H2  O   H1  H2  O   H1  H2  O   H1  H2  O   H1  H2  O   H1  H2  O   H1  H2  
O   H1  H2  O   H1  H2  O   H1  H2  O   H1  H2  O   H1  H2  O   H1  H2  O   H1  
H2  O   H1  H2  O   H1  H2  O   H1  H2  O   H1  H2  O   H1  H2  O   H1  H2  O   
H1  H2  O   H1  H2  O   H1  H2  O   H1  H2  O   H1  H2  O   H1  H2  O   H1  H2  
O   H1  H2  O   H1  H2  O   H1  H2  O   H1  H2  O   H1  H2  O   H1  H2  O   H1  
H2  O   H1  H2  O   H1  H2  O   H1  H2  O   H1  H2  O   H1  H2  O   H1  H2  O   
H1  H2  O   H1  H2  O   H1  H2  O   H1  H2  O   H1  H2  O   H1  H2  O   H1  H2  
O   H1  H2  O   H1  H2  O   H1  H2  O   H1  H2  O   H1  H2  O   H1  H2  O   H1  
H2  O   H1  H2  O   H1  H2  O   H1  H2  O   H1  H2  O   H1  H2  O   H1  H2  O   
H1  H2  O   H1  H2  O   H1  H2  O   H1  H2  O   H1  H2  O   H1  H2  O   H1  H2  
O   H1  H2  O   H1  H2  O   H1  H2  O   H1  H2  O   H1  H2  O   H1  H2  O   H1  
H2  O   H1  H2  O   H1  H2  O   H1  H2  O   H1  H2  O   H1  H2  O   H1  H2  O   
H1  H2  O   H1  H2  O   H1  H2  O   H1  H2  O   H1  H2  O   H1  H2  O   H1  H2  
O   H1  H2  O   H1  H2  O   H1  H2  O   H1  H2  O   H1  H2  O   H1  H2  O   H1  
H2  O   H1  H2  O   H1  H2  O   H1  H2  O   H1  H2  O   H1  H2  O   H1  H2  O   
H1  H2  O   H1  H2  O   H1  H2  O   H1  H2  O   H1  H2  O   H1  H2  O   H1  H2  
O   H1  H2  O   H1  H2  O   H1  H2  O   H1  H2  O   H1  H2  O   H1  H2  O   H1  
H2  O   H1  H2  O   H1  H2  O   H1  H2  O   H1  H2  O   H1  H2  O   H1  H2  O   
H1  H2  O   H1  H2  O   H1  H2  O   H1  H2  O   H1  H2  O   H1  H2  O   H1  H2  
O   H1  H2  O   H1  H2  O   H1  H2  O   H1  H2  O   H1  H2  O   H1  H2  O   H1  
H2  O   H1  H2  O   H1  H2  O   H1  H2  O   H1  H2  O   H1  H2  O   H1  H2  O   
H1  H2  O   H1  H2  O   H1  H2  O   H1  H2  O   H1  H2  O   H1  H2  O   H1  H2  
O   H1  H2  O   H1  H2  O   H1  H2  O   H1  H2  O   H1  H2  O   H1  H2  O   H1  
H2  O   H1  H2  O   H1  H2  O   H1  H2  O   H1  H2  O   H1  H2  O   H1  H2  O   
H1  H2  O   H1  H2  O   H1  H2  O   H1  H2  O   H1  H2  O   H1  H2  O   H1  H2  
O   H1  H2  O   H1  H2  O   H1  H2  O   H1  H2  O   H1  H2  O   H1  H2  O   H1  
H2  O   H1  H2  O   H1  H2  O   H1  H2  O   H1  H2  O   H1  H2  O   H1  H2  O   
H1  H2  O   H1  H2  O   H1  H2  O   H1  H2  O   H1  H2  O   H1  H2  O   H1  H2  
O   H1  H2  O   H1  H2  O   H1  H2  O   H1  H2  O   H1  H2  O   H1  H2  O   H1  
H2  O   H1  H2  O   H1  H2  O   H1  H2  O   H1  H2  O   H1  H2  O   H1  H2  O   
H1  H2  O   H1  H2  O   H1  H2  O   H1  H2  O   H1  H2  O   H1  H2  O   H1  H2  
O   H1  H2  O   H1  H2  O   H1  H2  O   H1  H2  O   H1  H2  O   H1  H2  O   H1  
H2  O   H1  H2  O   H1  H2  O   H1  H2  O   H1  H2  O   H1  H2  O   H1  H2  O   
H1  H2  O   H1  H2  O   H1  H2  O   H1  H2  O   H1  H2  O   H1  H2  O   H1  H2  
O   H1  H2  O   H1  H2  O   H1  H2  O   H1  H2  O   H1  H2  O   H1  H2  O   H1  
H2  O   H1  H2  O   H1  H2  O   H1  H2  O   H1  H2  O   H1  H2  O   H1  H2  O   
H1  H2  O   H1  H2  O   H1  H2  O   H1  H2  O   H1  H2  O   H1  H2  O   H1  H2  
O   H1  H2  O   H1  H2  O   H1  H2  O   H1  H2  O   H1  H2  O   H1  H2  O   H1  
H2  O   H1  H2  O   H1  H2  O   H1  H2  O   H1  H2  O   H1  H2  O   H1  H2  O   
H1  H2  O   H1  H2  O   H1  H2  O   H1  H2  O   H1  H2  O   H1  H2  O   H1  H2  
O   H1  H2  O   H1  H2  O   H1  H2  O   H1  H2  O   H1  H2  O   H1  H2  O   H1  
H2  O   H1  H2  O   H1  H2  O   H1  H2  O   H1  H2  O   H1  H2  O   H1  H2  O   
H1  H2  O   H1  H2  O   H1  H2  O   H1  H2  O   H1  H2  O   H1  H2  O   H1  H2  
O   H1  H2  O   H1  H2  O   H1  H2  O   H1  H2  O   H1  H2  O   H1  H2  O   H1  
H2  O   H1  H2  O   H1  H2  O   H1  H2  O   H1  H2  O   H1  H2  O   H1  H2  O   
H1  H2  O   H1  H2  O   H1  H2  O   H1  H2  O   H1  H2  O   H1  H2  O   H1  H2  
O   H1  H2  O   H1  H2  O   H1  H2  O   H1  H2  O   H1  H2  O   H1  H2  O   H1  
H2  O   H1  H2  O   H1  H2  O   H1  H2  O   H1  H2  O   H1  H2  O   H1  H2  O   
H1  H2  O   H1  H2  O   H1  H2  O   H1  H2  O   H1  H2  O   H1  H2  O   H1  H2  
O   H1  H2  O   H1  H2  O   H1  H2  O   H1  H2  O   H1  H2  O   H1  H2  O   H1  
H2  O   H1  H2  O   H1  H2  O   H1  H2  O   H1  H2  O   H1  H2  O   H1  H2  O   
H1  H2  O   H1  H2  O   H1  H2  O   H1  H2  O   H1  H2  O   H1  H2  O   H1  H2  
O   H1  H2  O   H1  H2  O   H1  H2  O   H1  H2  O   H1  H2  O   H1  H2  O   H1  
H2  O   H1  H2  O   H1  H2  O   H1  H2  O   H1  H2  O   H1  H2  O   H1  H2  O   
H1  H2  O   H1  H2  O   H1  H2  O   H1  H2  O   H1  H2  O   H1  H2  O   H1  H2  
O   H1  H2  O   H1  H2  O   H1  H2  O   H1  H2  O   H1  H2  O   H1  H2  O   H1  
H2  O   H1  H2  O   H1  H2  O   H1  H2  O   H1  H2  O   H1  H2  O   H1  H2  O   
H1  H2  O   H1  H2  O   H1  H2  O   H1  H2  O   H1  H2  O   H1  H2  O   H1  H2  
O   H1  H2  O   H1  H2  O   H1  H2  O   H1  H2  O   H1  H2  O   H1  H2  O   H1  
H2  O   H1  H2  O   H1  H2  O   H1  H2  O   H1  H2  O   H1  H2  O   H1  H2  O   
H1  H2  O   H1  H2  O   H1  H2  O   H1  H2  O   H1  H2  O   H1  H2  O   H1  H2  
O   H1  H2  O   H1  H2  O   H1  H2  O   H1  H2  O   H1  H2  O   H1  H2  O   H1  
H2  O   H1  H2  O   H1  H2  O   H1  H2  O   H1  H2  O   H1  H2  O   H1  H2  O   
H1  H2  O   H1  H2  O   H1  H2  O   H1  H2  O   H1  H2  O   H1  H2  O   H1  H2  
O   H1  H2  O   H1  H2  O   H1  H2  O   H1  H2  O   H1  H2  O   H1  H2  O   H1  
H2  O   H1  H2  O   H1  H2  O   H1  H2  O   H1  H2  O   H1  H2  O   H1  H2  O   
H1  H2  O   H1  H2  O   H1  H2  O   H1  H2  O   H1  H2  O   H1  H2  O   H1  H2  
O   H1  H2  O   H1  H2  O   H1  H2  O   H1  H2  O   H1  H2  O   H1  H2  O   H1  
H2  O   H1  H2  O   H1  H2  O   H1  H2  O   H1  H2  O   H1  H2  O   H1  H2  O   
H1  H2  O   H1  H2  O   H1  H2  O   H1  H2  O   H1  H2  O   H1  H2  O   H1  H2  
O   H1  H2  O   H1  H2  O   H1  H2  O   H1  H2  O   H1  H2  O   H1  H2  O   H1  
H2  O   H1  H2  O   H1  H2  O   H1  H2  O   H1  H2  O   H1  H2  O   H1  H2  O   
H1  H2  O   H1  H2  O   H1  H2  O   H1  H2  O   H1  H2  O   H1  H2  O   H1  H2  
O   H1  H2  O   H1  H2  O   H1  H2  O   H1  H2  O   H1  H2  O   H1  H2  O   H1  
H2  O   H1  H2  O   H1  H2  O   H1  H2  O   H1  H2  O   H1  H2  O   H1  H2  O   
H1  H2  O   H1  H2  O   H1  H2  O   H1  H2  O   H1  H2  O   H1  H2  O   H1  H2  
O   H1  H2  O   H1  H2  O   H1  H2  O   H1  H2  O   H1  H2  O   H1  H2  O   H1  
H2  O   H1  H2  O   H1  H2  O   H1  H2  O   H1  H2  O   H1  H2  O   H1  H2  O   
H1  H2  O   H1  H2  O   H1  H2  O   H1  H2  O   H1  H2  O   H1  H2  O   H1  H2  
O   H1  H2  O   H1  H2  O   H1  H2  O   H1  H2  O   H1  H2  O   H1  H2  O   H1  
H2  O   H1  H2  O   H1  H2  O   H1  H2  O   H1  H2  O   H1  H2  O   H1  H2  O   
H1  H2  O   H1  H2  O   H1  H2  O   H1  H2  O   H1  H2  O   H1  H2  O   H1  H2  
O   H1  H2  O   H1  H2  O   H1  H2  O   H1  H2  O   H1  H2  O   H1  H2  O   H1  
H2  O   H1  H2  O   H1  H2  O   H1  H2  O   H1  H2  O   H1  H2  O   H1  H2  O   
H1  H2  O   H1  H2  O   H1  H2  O   H1  H2  O   H1  H2  O   H1  H2  O   H1  H2  
O   H1  H2  O   H1  H2  O   H1  H2  O   H1  H2  O   H1  H2  O   H1  H2  O   H1  
H2  O   H1  H2  O   H1  H2  O   H1  H2  O   H1  H2  O   H1  H2  O   H1  H2  O   
H1  H2  O   H1  H2  O   H1  H2  O   H1  H2  O   H1  H2  O   H1  H2  O   H1  H2  
O   H1  H2  O   H1  H2  O   H1  H2  O   H1  H2  O   H1  H2  O   H1  H2  O   H1  
H2  O   H1  H2  O   H1  H2  O   H1  H2  O   H1  H2  O   H1  H2  O   H1  H2  O   
H1  H2  O   H1  H2  O   H1  H2  O   H1  H2  O   H1  H2  O   H1  H2  O   H1  H2  
O   H1  H2  O   H1  H2  O   H1  H2  O   H1  H2  O   H1  H2  O   H1  H2  O   H1  
H2  O   H1  H2  O   H1  H2  O   H1  H2  O   H1  H2  O   H1  H2  O   H1  H2  O   
H1  H2  O   H1  H2  O   H1  H2  O   H1  H2  O   H1  H2  O   H1  H2  O   H1  H2  
O   H1  H2  O   H1  H2  O   H1  H2  O   H1  H2  O   H1  H2  O   H1  H2  O   H1  
H2  O   H1  H2  O   H1  H2  O   H1  H2  O   H1  H2  O   H1  H2  O   H1  H2  O   
H1  H2  O   H1  H2  O   H1  H2  O   H1  H2  O   H1  H2  O   H1  H2  O   H1  H2  
O   H1  H2  O   H1  H2  O   H1  H2  O   H1  H2  O   H1  H2  O   H1  H2  O   H1  
H2  O   H1  H2  O   H1  H2  O   H1  H2  O   H1  H2  O   H1  H2  O   H1  H2  O   
H1  H2  O   H1  H2  O   H1  H2  O   H1  H2  O   H1  H2  O   H1  H2  O   H1  H2  
O   H1  H2  O   H1  H2  O   H1  H2  O   H1  H2  O   H1  H2  O   H1  H2  O   H1  
H2  O   H1  H2  O   H1  H2  O   H1  H2  O   H1  H2  O   H1  H2  O   H1  H2  O   
H1  H2  O   H1  H2  O   H1  H2  O   H1  H2  O   H1  H2  O   H1  H2  O   H1  H2  
O   H1  H2  O   H1  H2  O   H1  H2  O   H1  H2  O   H1  H2  O   H1  H2  O   H1  
H2  O   H1  H2  O   H1  H2  O   H1  H2  O   H1  H2  O   H1  H2  O   H1  H2  O   
H1  H2  O   H1  H2  O   H1  H2  O   H1  H2  O   H1  H2  O   H1  H2  O   H1  H2  
O   H1  H2  O   H1  H2  O   H1  H2  O   H1  H2  O   H1  H2  O   H1  H2  O   H1  
H2  O   H1  H2  O   H1  H2  O   H1  H2  O   H1  H2  O   H1  H2  O   H1  H2  O   
H1  H2  O   H1  H2  O   H1  H2  O   H1  H2  O   H1  H2  O   H1  H2  O   H1  H2  
O   H1  H2  O   H1  H2  O   H1  H2  O   H1  H2  O   H1  H2  O   H1  H2  O   H1  
H2  O   H1  H2  O   H1  H2  O   H1  H2  O   H1  H2  O   H1  H2  O   H1  H2  O   
H1  H2  O   H1  H2  O   H1  H2  O   H1  H2  O   H1  H2  O   H1  H2  O   H1  H2  
O   H1  H2  O   H1  H2  O   H1  H2  O   H1  H2  O   H1  H2  O   H1  H2  O   H1  
H2  O   H1  H2  O   H1  H2  O   H1  H2  O   H1  H2  O   H1  H2  O   H1  H2  O   
H1  H2  O   H1  H2  O   H1  H2  O   H1  H2  O   H1  H2  O   H1  H2  O   H1  H2  
O   H1  H2  O   H1  H2  O   H1  H2  O   H1  H2  O   H1  H2  O   H1  H2  O   H1  
H2  O   H1  H2  O   H1  H2  O   H1  H2  O   H1  H2  O   H1  H2  O   H1  H2  O   
H1  H2  O   H1  H2  O   H1  H2  O   H1  H2  O   H1  H2  O   H1  H2  O   H1  H2  
O   H1  H2  O   H1  H2  O   H1  H2  O   H1  H2  O   H1  H2  O   H1  H2  O   H1  
H2  O   H1  H2  O   H1  H2  O   H1  H2  O   H1  H2  O   H1  H2  O   H1  H2  O   
H1  H2  O   H1  H2  O   H1  H2  O   H1  H2  O   H1  H2  O   H1  H2  O   H1  H2  
O   H1  H2  O   H1  H2  O   H1  H2  O   H1  H2  O   H1  H2  O   H1  H2  O   H1  
H2  O   H1  H2  O   H1  H2  O   H1  H2  O   H1  H2  O   H1  H2  O   H1  H2  O   
H1  H2  O   H1  H2  O   H1  H2  O   H1  H2  O   H1  H2  O   H1  H2  O   H1  H2  
O   H1  H2  O   H1  H2  O   H1  H2  O   H1  H2  O   H1  H2  O   H1  H2  O   H1  
H2  O   H1  H2  O   H1  H2  O   H1  H2  O   H1  H2  O   H1  H2  O   H1  H2  O   
H1  H2  O   H1  H2  O   H1  H2  O   H1  H2  O   H1  H2  O   H1  H2  O   H1  H2  
O   H1  H2  O   H1  H2  O   H1  H2  O   H1  H2  O   H1  H2  O   H1  H2  O   H1  
H2  O   H1  H2  O   H1  H2  O   H1  H2  O   H1  H2  O   H1  H2  O   H1  H2  O   
H1  H2  O   H1  H2  O   H1  H2  O   H1  H2  O   H1  H2  O   H1  H2  O   H1  H2  
O   H1  H2  O   H1  H2  O   H1  H2  O   H1  H2  O   H1  H2  O   H1  H2  O   H1  
H2  O   H1  H2  O   H1  H2  O   H1  H2  O   H1  H2  O   H1  H2  O   H1  H2  O   
H1  H2  O   H1  H2  O   H1  H2  O   H1  H2  O   H1  H2  O   H1  H2  O   H1  H2  
O   H1  H2  O   H1  H2  O   H1  H2  O   H1  H2  O   H1  H2  O   H1  H2  O   H1  
H2  O   H1  H2  O   H1  H2  O   H1  H2  O   H1  H2  O   H1  H2  O   H1  H2  O   
H1  H2  O   H1  H2  O   H1  H2  O   H1  H2  O   H1  H2  O   H1  H2  O   H1  H2  
O   H1  H2  O   H1  H2  O   H1  H2  O   H1  H2  O   H1  H2  O   H1  H2  O   H1  
H2  O   H1  H2  O   H1  H2  O   H1  H2  O   H1  H2  O   H1  H2  O   H1  H2  O   
H1  H2  O   H1  H2  O   H1  H2  O   H1  H2  O   H1  H2  O   H1  H2  O   H1  H2  
O   H1  H2  O   H1  H2  O   H1  H2  O   H1  H2  O   H1  H2  O   H1  H2  O   H1  
H2  O   H1  H2  O   H1  H2  O   H1  H2  O   H1  H2  O   H1  H2  O   H1  H2  O   
H1  H2  O   H1  H2  O   H1  H2  O   H1  H2  O   H1  H2  O   H1  H2  O   H1  H2  
O   H1  H2  O   H1  H2  O   H1  H2  O   H1  H2  O   H1  H2  O   H1  H2  O   H1  
H2  O   H1  H2  O   H1  H2  O   H1  H2  O   H1  H2  O   H1  H2  O   H1  H2  O   
H1  H2  O   H1  H2  O   H1  H2  O   H1  H2  O   H1  H2  O   H1  H2  O   H1  H2  
O   H1  H2  O   H1  H2  O   H1  H2  O   H1  H2  O   H1  H2  O   H1  H2  O   H1  
H2  O   H1  H2  O   H1  H2  O   H1  H2  O   H1  H2  O   H1  H2  O   H1  H2  O   
H1  H2  O   H1  H2  O   H1  H2  O   H1  H2  O   H1  H2  O   H1  H2  O   H1  H2  
O   H1  H2  O   H1  H2  O   H1  H2  O   H1  H2  O   H1  H2  O   H1  H2  O   H1  
H2  O   H1  H2  O   H1  H2  O   H1  H2  O   H1  H2  O   H1  H2  O   H1  H2  O   
H1  H2  O   H1  H2  O   H1  H2  O   H1  H2  O   H1  H2  O   H1  H2  O   H1  H2  
O   H1  H2  O   H1  H2  O   H1  H2  O   H1  H2  O   H1  H2  O   H1  H2  O   H1  
H2  O   H1  H2  O   H1  H2  O   H1  H2  O   H1  H2  O   H1  H2  O   H1  H2  O   
H1  H2  O   H1  H2  O   H1  H2  O   H1  H2  O   H1  H2  O   H1  H2  O   H1  H2  
O   H1  H2  O   H1  H2  O   H1  H2  O   H1  H2  O   H1  H2  O   H1  H2  O   H1  
H2  O   H1  H2  O   H1  H2  O   H1  H2  O   H1  H2  O   H1  H2  O   H1  H2  O   
H1  H2  O   H1  H2  O   H1  H2  O   H1  H2  O   H1  H2  O   H1  H2  O   H1  H2  
O   H1  H2  O   H1  H2  O   H1  H2  O   H1  H2  O   H1  H2  O   H1  H2  O   H1  
H2  O   H1  H2  O   H1  H2  O   H1  H2  O   H1  H2  O   H1  H2  O   H1  H2  O   
H1  H2  O   H1  H2  O   H1  H2  O   H1  H2  O   H1  H2  O   H1  H2  O   H1  H2  
O   H1  H2  O   H1  H2  O   H1  H2  O   H1  H2  O   H1  H2  O   H1  H2  O   H1  
H2  O   H1  H2  O   H1  H2  O   H1  H2  O   H1  H2  O   H1  H2  O   H1  H2  O   
H1  H2  O   H1  H2  O   H1  H2  O   H1  H2  O   H1  H2  O   H1  H2  O   H1  H2  
O   H1  H2  O   H1  H2  O   H1  H2  O   H1  H2  O   H1  H2  O   H1  H2  O   H1  
H2  O   H1  H2  O   H1  H2  O   H1  H2  O   H1  H2  O   H1  H2  O   H1  H2  O   
H1  H2  O   H1  H2  O   H1  H2  O   H1  H2  O   H1  H2  O   H1  H2  O   H1  H2  
O   H1  H2  O   H1  H2  O   H1  H2  O   H1  H2  O   H1  H2  O   H1  H2  O   H1  
H2  O   H1  H2  O   H1  H2  O   H1  H2  O   H1  H2  O   H1  H2  O   H1  H2  O   
H1  H2  O   H1  H2  O   H1  H2  O   H1  H2  O   H1  H2  O   H1  H2  O   H1  H2  
O   H1  H2  O   H1  H2  O   H1  H2  O   H1  H2  O   H1  H2  O   H1  H2  O   H1  
H2  O   H1  H2  O   H1  H2  O   H1  H2  O   H1  H2  O   H1  H2  O   H1  H2  O   
H1  H2  O   H1  H2  O   H1  H2  O   H1  H2  O   H1  H2  O   H1  H2  O   H1  H2  
O   H1  H2  O   H1  H2  O   H1  H2  O   H1  H2  O   H1  H2  O   H1  H2  O   H1  
H2  O   H1  H2  O   H1  H2  O   H1  H2  O   H1  H2  O   H1  H2  O   H1  H2  O   
H1  H2  O   H1  H2  O   H1  H2  O   H1  H2  O   H1  H2  O   H1  H2  O   H1  H2  
O   H1  H2  O   H1  H2  O   H1  H2  O   H1  H2  O   H1  H2  O   H1  H2  O   H1  
H2  O   H1  H2  O   H1  H2  O   H1  H2  O   H1  H2  O   H1  H2  O   H1  H2  O   
H1  H2  O   H1  H2  O   H1  H2  O   H1  H2  O   H1  H2  O   H1  H2  O   H1  H2  
O   H1  H2  O   H1  H2  O   H1  H2  O   H1  H2  O   H1  H2  O   H1  H2  O   H1  
H2  O   H1  H2  O   H1  H2  O   H1  H2  O   H1  H2  O   H1  H2  O   H1  H2  O   
H1  H2  O   H1  H2  O   H1  H2  O   H1  H2  O   H1  H2  O   H1  H2  O   H1  H2  
O   H1  H2  O   H1  H2  O   H1  H2  O   H1  H2  O   H1  H2  O   H1  H2  O   H1  
H2  O   H1  H2  O   H1  H2  O   H1  H2  O   H1  H2  O   H1  H2  O   H1  H2  O   
H1  H2  O   H1  H2  O   H1  H2  O   H1  H2  O   H1  H2  O   H1  H2  O   H1  H2  
O   H1  H2  O   H1  H2  O   H1  H2  O   H1  H2  O   H1  H2  O   H1  H2  O   H1  
H2  O   H1  H2  O   H1  H2  O   H1  H2  O   H1  H2  O   H1  H2  O   H1  H2  O   
H1  H2  O   H1  H2  O   H1  H2  O   H1  H2  O   H1  H2  O   H1  H2  O   H1  H2  
O   H1  H2  O   H1  H2  O   H1  H2  O   H1  H2  O   H1  H2  O   H1  H2  O   H1  
H2  O   H1  H2  O   H1  H2  O   H1  H2  O   H1  H2  O   H1  H2  O   H1  H2  O   
H1  H2  O   H1  H2  O   H1  H2  O   H1  H2  O   H1  H2  O   H1  H2  O   H1  H2  
O   H1  H2  O   H1  H2  O   H1  H2  O   H1  H2  O   H1  H2  O   H1  H2  O   H1  
H2  O   H1  H2  O   H1  H2  O   H1  H2  O   H1  H2  O   H1  H2  O   H1  H2  O   
H1  H2  O   H1  H2  O   H1  H2  O   H1  H2  O   H1  H2  O   H1  H2  O   H1  H2  
O   H1  H2  O   H1  H2  O   H1  H2  O   H1  H2  O   H1  H2  O   H1  H2  O   H1  
H2  O   H1  H2  O   H1  H2  O   H1  H2  O   H1  H2  O   H1  H2  O   H1  H2  O   
H1  H2  O   H1  H2  O   H1  H2  O   H1  H2  O   H1  H2  O   H1  H2  O   H1  H2  
O   H1  H2  O   H1  H2  O   H1  H2  O   H1  H2  O   H1  H2  O   H1  H2  O   H1  
H2  O   H1  H2  O   H1  H2  O   H1  H2  O   H1  H2  O   H1  H2  O   H1  H2  O   
H1  H2  O   H1  H2  O   H1  H2  O   H1  H2  O   H1  H2  O   H1  H2  O   H1  H2  
O   H1  H2  O   H1  H2  O   H1  H2  O   H1  H2  O   H1  H2  O   H1  H2  O   H1  
H2  O   H1  H2  O   H1  H2  O   H1  H2  O   H1  H2  O   H1  H2  O   H1  H2  O   
H1  H2  O   H1  H2  O   H1  H2  O   H1  H2  O   H1  H2  O   H1  H2  O   H1  H2  
O   H1  H2  O   H1  H2  O   H1  H2  O   H1  H2  O   H1  H2  O   H1  H2  O   H1  
H2  O   H1  H2  O   H1  H2  O   H1  H2  O   H1  H2  O   H1  H2  O   H1  H2  O   
H1  H2  O   H1  H2  O   H1  H2  O   H1  H2  O   H1  H2  O   H1  H2  O   H1  H2  
O   H1  H2  O   H1  H2  O   H1  H2  O   H1  H2  O   H1  H2  O   H1  H2  O   H1  
H2  O   H1  H2  O   H1  H2  O   H1  H2  O   H1  H2  O   H1  H2  O   H1  H2  O   
H1  H2  O   H1  H2  O   H1  H2  O   H1  H2  O   H1  H2  O   H1  H2  O   H1  H2  
O   H1  H2  O   H1  H2  O   H1  H2  O   H1  H2  O   H1  H2  O   H1  H2  O   H1  
H2  O   H1  H2  O   H1  H2  O   H1  H2  O   H1  H2  O   H1  H2  O   H1  H2  O   
H1  H2  O   H1  H2  O   H1  H2  O   H1  H2  O   H1  H2  O   H1  H2  O   H1  H2  
O   H1  H2  O   H1  H2  O   H1  H2  O   H1  H2  O   H1  H2  O   H1  H2  O   H1  
H2  O   H1  H2  O   H1  H2  O   H1  H2  O   H1  H2  O   H1  H2  O   H1  H2  O   
H1  H2  O   H1  H2  O   H1  H2  O   H1  H2  O   H1  H2  O   H1  H2  O   H1  H2  
O   H1  H2  O   H1  H2  O   H1  H2  O   H1  H2  O   H1  H2  O   H1  H2  O   H1  
H2  O   H1  H2  O   H1  H2  O   H1  H2  O   H1  H2  O   H1  H2  O   H1  H2  O   
H1  H2  O   H1  H2  O   H1  H2  O   H1  H2  O   H1  H2  O   H1  H2  O   H1  H2  
O   H1  H2  O   H1  H2  O   H1  H2  O   H1  H2  O   H1  H2  O   H1  H2  O   H1  
H2  O   H1  H2  O   H1  H2  O   H1  H2  O   H1  H2  O   H1  H2  O   H1  H2  O   
H1  H2  O   H1  H2  O   H1  H2  O   H1  H2  O   H1  H2  O   H1  H2  O   H1  H2  
O   H1  H2  O   H1  H2  O   H1  H2  O   H1  H2  O   H1  H2  O   H1  H2  O   H1  
H2  O   H1  H2  O   H1  H2  O   H1  H2  O   H1  H2  O   H1  H2  O   H1  H2  O   
H1  H2  O   H1  H2  O   H1  H2  O   H1  H2  O   H1  H2  O   H1  H2  O   H1  H2  
O   H1  H2  O   H1  H2  O   H1  H2  O   H1  H2  O   H1  H2  O   H1  H2  O   H1  
H2  O   H1  H2  O   H1  H2  O   H1  H2  O   H1  H2  O   H1  H2  O   H1  H2  O   
H1  H2  O   H1  H2  O   H1  H2  O   H1  H2  O   H1  H2  O   H1  H2  O   H1  H2  
O   H1  H2  O   H1  H2  O   H1  H2  O   H1  H2  O   H1  H2  O   H1  H2  O   H1  
H2  O   H1  H2  O   H1  H2  O   H1  H2  O   H1  H2  O   H1  H2  O   H1  H2  O   
H1  H2  O   H1  H2  O   H1  H2  O   H1  H2  O   H1  H2  O   H1  H2  O   H1  H2  
O   H1  H2  O   H1  H2  O   H1  H2  O   H1  H2  O   H1  H2  O   H1  H2  O   H1  
H2  O   H1  H2  O   H1  H2  O   H1  H2  O   H1  H2  O   H1  H2  O   H1  H2  O   
H1  H2  O   H1  H2  O   H1  H2  O   H1  H2  O   H1  H2  O   H1  H2  O   H1  H2  
O   H1  H2  O   H1  H2  O   H1  H2  O   H1  H2  O   H1  H2  O   H1  H2  O   H1  
H2  O   H1  H2  O   H1  H2  O   H1  H2  O   H1  H2  O   H1  H2  O   H1  H2  O   
H1  H2  O   H1  H2  O   H1  H2  O   H1  H2  O   H1  H2  O   H1  H2  O   H1  H2  
O   H1  H2  O   H1  H2  O   H1  H2  O   H1  H2  O   H1  H2  O   H1  H2  O   H1  
H2  O   H1  H2  O   H1  H2  O   H1  H2  O   H1  H2  O   H1  H2  O   H1  H2  O   
H1  H2  O   H1  H2  O   H1  H2  O   H1  H2  O   H1  H2  O   H1  H2  O   H1  H2  
O   H1  H2  O   H1  H2  O   H1  H2  O   H1  H2  O   H1  H2  O   H1  H2  O   H1  
H2  O   H1  H2  O   H1  H2  O   H1  H2  O   H1  H2  O   H1  H2  O   H1  H2  O   
H1  H2  O   H1  H2  O   H1  H2  O   H1  H2  O   H1  H2  O   H1  H2  O   H1  H2  
O   H1  H2  O   H1  H2  O   H1  H2  O   H1  H2  O   H1  H2  O   H1  H2  O   H1  
H2  O   H1  H2  O   H1  H2  O   H1  H2  O   H1  H2  O   H1  H2  O   H1  H2  O   
H1  H2  O   H1  H2  O   H1  H2  O   H1  H2  O   H1  H2  O   H1  H2  O   H1  H2  
O   H1  H2  O   H1  H2  O   H1  H2  O   H1  H2  O   H1  H2  O   H1  H2  O   H1  
H2  O   H1  H2  O   H1  H2  O   H1  H2  O   H1  H2  O   H1  H2  O   H1  H2  O   
H1  H2  O   H1  H2  O   H1  H2  O   H1  H2  O   H1  H2  O   H1  H2  O   H1  H2  
O   H1  H2  O   H1  H2  O   H1  H2  O   H1  H2  O   H1  H2  O   H1  H2  O   H1  
H2  O   H1  H2  O   H1  H2  O   H1  H2  O   H1  H2  O   H1  H2  O   H1  H2  O   
H1  H2  O   H1  H2  O   H1  H2  O   H1  H2  O   H1  H2  O   H1  H2  O   H1  H2  
O   H1  H2  O   H1  H2  O   H1  H2  O   H1  H2  O   H1  H2  O   H1  H2  O   H1  
H2  O   H1  H2  O   H1  H2  O   H1  H2  O   H1  H2  O   H1  H2  O   H1  H2  O   
H1  H2  O   H1  H2  O   H1  H2  O   H1  H2  O   H1  H2  O   H1  H2  O   H1  H2  
O   H1  H2  O   H1  H2  O   H1  H2  O   H1  H2  O   H1  H2  O   H1  H2  O   H1  
H2  O   H1  H2  O   H1  H2  O   H1  H2  O   H1  H2  O   H1  H2  O   H1  H2  O   
H1  H2  O   H1  H2  O   H1  H2  O   H1  H2  O   H1  H2  O   H1  H2  O   H1  H2  
O   H1  H2  O   H1  H2  O   H1  H2  O   H1  H2  O   H1  H2  O   H1  H2  O   H1  
H2  O   H1  H2  O   H1  H2  O   H1  H2  O   H1  H2  O   H1  H2  O   H1  H2  O   
H1  H2  O   H1  H2  O   H1  H2  O   H1  H2  O   H1  H2  O   H1  H2  O   H1  H2  
O   H1  H2  O   H1  H2  O   H1  H2  O   H1  H2  O   H1  H2  O   H1  H2  O   H1  
H2  O   H1  H2  O   H1  H2  O   H1  H2  O   H1  H2  O   H1  H2  O   H1  H2  O   
H1  H2  O   H1  H2  O   H1  H2  O   H1  H2  O   H1  H2  O   H1  H2  O   H1  H2  
O   H1  H2  O   H1  H2  O   H1  H2  O   H1  H2  O   H1  H2  O   H1  H2  O   H1  
H2  O   H1  H2  O   H1  H2  O   H1  H2  O   H1  H2  O   H1  H2  O   H1  H2  O   
H1  H2  O   H1  H2  O   H1  H2  O   H1  H2  O   H1  H2  O   H1  H2  O   H1  H2  
O   H1  H2  O   H1  H2  O   H1  H2  O   H1  H2  O   H1  H2  O   H1  H2  O   H1  
H2  O   H1  H2  O   H1  H2  O   H1  H2  O   H1  H2  O   H1  H2  O   H1  H2  O   
H1  H2  O   H1  H2  O   H1  H2  O   H1  H2  O   H1  H2  O   H1  H2  O   H1  H2  
O   H1  H2  O   H1  H2  O   H1  H2  O   H1  H2  O   H1  H2  O   H1  H2  O   H1  
H2  O   H1  H2  O   H1  H2  O   H1  H2  O   H1  H2  O   H1  H2  O   H1  H2  O   
H1  H2  O   H1  H2  O   H1  H2  O   H1  H2  O   H1  H2  O   H1  H2  O   H1  H2  
O   H1  H2  O   H1  H2  O   H1  H2  O   H1  H2  O   H1  H2  O   H1  H2  O   H1  
H2  O   H1  H2  O   H1  H2  O   H1  H2  O   H1  H2  O   H1  H2  O   H1  H2  O   
H1  H2  O   H1  H2  O   H1  H2  O   H1  H2  O   H1  H2  O   H1  H2  O   H1  H2  
O   H1  H2  O   H1  H2  O   H1  H2  O   H1  H2  O   H1  H2  O   H1  H2  O   H1  
H2  O   H1  H2  O   H1  H2  O   H1  H2  O   H1  H2  O   H1  H2  O   H1  H2  O   
H1  H2  O   H1  H2  O   H1  H2  O   H1  H2  O   H1  H2  O   H1  H2  O   H1  H2  
O   H1  H2  O   H1  H2  O   H1  H2  O   H1  H2  O   H1  H2  O   H1  H2  O   H1  
H2  O   H1  H2  O   H1  H2  O   H1  H2  O   H1  H2  O   H1  H2  O   H1  H2  O   
H1  H2  O   H1  H2  O   H1  H2  O   H1  H2  O   H1  H2  O   H1  H2  O   H1  H2  
O   H1  H2  O   H1  H2  O   H1  H2  O   H1  H2  O   H1  H2  O   H1  H2  O   H1  
H2  O   H1  H2  O   H1  H2  O   H1  H2  O   H1  H2  O   H1  H2  O   H1  H2  O   
H1  H2  O   H1  H2  O   H1  H2  O   H1  H2  O   H1  H2  O   H1  H2  O   H1  H2  
O   H1  H2  O   H1  H2  O   H1  H2  O   H1  H2  O   H1  H2  O   H1  H2  O   H1  
H2  O   H1  H2  O   H1  H2  O   H1  H2  O   H1  H2  O   H1  H2  O   H1  H2  O   
H1  H2  O   H1  H2  O   H1  H2  O   H1  H2  O   H1  H2  O   H1  H2  O   H1  H2  
O   H1  H2  O   H1  H2  O   H1  H2  O   H1  H2  O   H1  H2  O   H1  H2  O   H1  
H2  O   H1  H2  O   H1  H2  O   H1  H2  O   H1  H2  O   H1  H2  O   H1  H2  O   
H1  H2  O   H1  H2  O   H1  H2  O   H1  H2  O   H1  H2  O   H1  H2  O   H1  H2  
O   H1  H2  O   H1  H2  O   H1  H2  O   H1  H2  O   H1  H2  O   H1  H2  O   H1  
H2  O   H1  H2  O   H1  H2  O   H1  H2  O   H1  H2  O   H1  H2  O   H1  H2  O   
H1  H2  O   H1  H2  O   H1  H2  O   H1  H2  O   H1  H2  O   H1  H2  O   H1  H2  
O   H1  H2  O   H1  H2  O   H1  H2  O   H1  H2  O   H1  H2  O   H1  H2  O   H1  
H2  O   H1  H2  O   H1  H2  O   H1  H2  O   H1  H2  O   H1  H2  O   H1  H2  O   
H1  H2  O   H1  H2  O   H1  H2  O   H1  H2  O   H1  H2  O   H1  H2  O   H1  H2  
O   H1  H2  O   H1  H2  O   H1  H2  O   H1  H2  O   H1  H2  O   H1  H2  O   H1  
H2  O   H1  H2  O   H1  H2  O   H1  H2  O   H1  H2  O   H1  H2  O   H1  H2  O   
H1  H2  O   H1  H2  O   H1  H2  O   H1  H2  O   H1  H2  O   H1  H2  O   H1  H2  
O   H1  H2  O   H1  H2  O   H1  H2  O   H1  H2  O   H1  H2  O   H1  H2  O   H1  
H2  O   H1  H2  O   H1  H2  O   H1  H2  O   H1  H2  O   H1  H2  O   H1  H2  O   
H1  H2  O   H1  H2  O   H1  H2  O   H1  H2  O   H1  H2  O   H1  H2  O   H1  H2  
O   H1  H2  O   H1  H2  O   H1  H2  O   H1  H2  O   H1  H2  O   H1  H2  O   H1  
H2  O   H1  H2  O   H1  H2  O   H1  H2  O   H1  H2  O   H1  H2  O   H1  H2  O   
H1  H2  O   H1  H2  O   H1  H2  O   H1  H2  O   H1  H2  O   H1  H2  O   H1  H2  
O   H1  H2  O   H1  H2  O   H1  H2  O   H1  H2  O   H1  H2  O   H1  H2  O   H1  
H2  O   H1  H2  O   H1  H2  O   H1  H2  O   H1  H2  O   H1  H2  O   H1  H2  O   
H1  H2  O   H1  H2  O   H1  H2  O   H1  H2  O   H1  H2  O   H1  H2  O   H1  H2  
O   H1  H2  O   H1  H2  O   H1  H2  O   H1  H2  O   H1  H2  O   H1  H2  O   H1  
H2  O   H1  H2  O   H1  H2  O   H1  H2  O   H1  H2  O   H1  H2  O   H1  H2  O   
H1  H2  O   H1  H2  O   H1  H2  O   H1  H2  O   H1  H2  O   H1  H2  O   H1  H2  
O   H1  H2  O   H1  H2  O   H1  H2  O   H1  H2  O   H1  H2  O   H1  H2  O   H1  
H2  O   H1  H2  O   H1  H2  O   H1  H2  O   H1  H2  O   H1  H2  O   H1  H2  O   
H1  H2  O   H1  H2  O   H1  H2  O   H1  H2  O   H1  H2  O   H1  H2  O   H1  H2  
O   H1  H2  O   H1  H2  O   H1  H2  O   H1  H2  O   H1  H2  O   H1  H2  O   H1  
H2  O   H1  H2  O   H1  H2  O   H1  H2  O   H1  H2  O   H1  H2  O   H1  H2  O   
H1  H2  O   H1  H2  O   H1  H2  O   H1  H2  O   H1  H2  O   H1  H2  O   H1  H2  
O   H1  H2  O   H1  H2  O   H1  H2  O   H1  H2  O   H1  H2  O   H1  H2  O   H1  
H2  O   H1  H2  O   H1  H2  O   H1  H2  O   H1  H2  O   H1  H2  O   H1  H2  O   
H1  H2  O   H1  H2  O   H1  H2  O   H1  H2  O   H1  H2  O   H1  H2  O   H1  H2  
O   H1  H2  O   H1  H2  O   H1  H2  O   H1  H2  O   H1  H2  O   H1  H2  O   H1  
H2  O   H1  H2  O   H1  H2  O   H1  H2  O   H1  H2  O   H1  H2  O   H1  H2  O   
H1  H2  O   H1  H2  O   H1  H2  O   H1  H2  O   H1  H2  O   H1  H2  O   H1  H2  
O   H1  H2  O   H1  H2  O   H1  H2  O   H1  H2  O   H1  H2  O   H1  H2  O   H1  
H2  O   H1  H2  O   H1  H2  O   H1  H2  O   H1  H2  O   H1  H2  O   H1  H2  O   
H1  H2  O   H1  H2  O   H1  H2  O   H1  H2  O   H1  H2  O   H1  H2  O   H1  H2  
O   H1  H2  O   H1  H2  O   H1  H2  O   H1  H2  O   H1  H2  O   H1  H2  O   H1  
H2  O   H1  H2  O   H1  H2  O   H1  H2  O   H1  H2  O   H1  H2  O   H1  H2  O   
H1  H2  O   H1  H2  O   H1  H2  O   H1  H2  O   H1  H2  O   H1  H2  O   H1  H2  
O   H1  H2  O   H1  H2  O   H1  H2  O   H1  H2  O   H1  H2  O   H1  H2  O   H1  
H2  O   H1  H2  O   H1  H2  O   H1  H2  O   H1  H2  O   H1  H2  O   H1  H2  O   
H1  H2  O   H1  H2  O   H1  H2  O   H1  H2  O   H1  H2  O   H1  H2  O   H1  H2  
O   H1  H2  O   H1  H2  O   H1  H2  O   H1  H2  O   H1  H2  O   H1  H2  O   H1  
H2  O   H1  H2  O   H1  H2  O   H1  H2  O   H1  H2  O   H1  H2  O   H1  H2  O   
H1  H2  O   H1  H2  O   H1  H2  O   H1  H2  O   H1  H2  O   H1  H2  O   H1  H2  
O   H1  H2  O   H1  H2  O   H1  H2  O   H1  H2  O   H1  H2  O   H1  H2  O   H1  
H2  O   H1  H2  O   H1  H2  O   H1  H2  O   H1  H2  O   H1  H2  O   H1  H2  O   
H1  H2  O   H1  H2  O   H1  H2  O   H1  H2  O   H1  H2  O   H1  H2  O   H1  H2  
O   H1  H2  O   H1  H2  O   H1  H2  O   H1  H2  O   H1  H2  O   H1  H2  O   H1  
H2  O   H1  H2  O   H1  H2  O   H1  H2  O   H1  H2  O   H1  H2  O   H1  H2  O   
H1  H2  O   H1  H2  O   H1  H2  O   H1  H2  O   H1  H2  O   H1  H2  O   H1  H2  
O   H1  H2  O   H1  H2  O   H1  H2  O   H1  H2  O   H1  H2  O   H1  H2  O   H1  
H2  O   H1  H2  O   H1  H2  O   H1  H2  O   H1  H2  O   H1  H2  O   H1  H2  O   
H1  H2  O   H1  H2  O   H1  H2  O   H1  H2  O   H1  H2  O   H1  H2  O   H1  H2  
O   H1  H2  O   H1  H2  O   H1  H2  O   H1  H2  O   H1  H2  O   H1  H2  O   H1  
H2  O   H1  H2  O   H1  H2  O   H1  H2  O   H1  H2  O   H1  H2  O   H1  H2  O   
H1  H2  O   H1  H2  O   H1  H2  O   H1  H2  O   H1  H2  O   H1  H2  O   H1  H2  
O   H1  H2  O   H1  H2  O   H1  H2  O   H1  H2  O   H1  H2  O   H1  H2  O   H1  
H2  O   H1  H2  O   H1  H2  O   H1  H2  O   H1  H2  O   H1  H2  O   H1  H2  O   
H1  H2  O   H1  H2  O   H1  H2  O   H1  H2  O   H1  H2  O   H1  H2  O   H1  H2  
O   H1  H2  O   H1  H2  O   H1  H2  O   H1  H2  O   H1  H2  O   H1  H2  O   H1  
H2  O   H1  H2  O   H1  H2  O   H1  H2  O   H1  H2  O   H1  H2  O   H1  H2  O   
H1  H2  O   H1  H2  O   H1  H2  O   H1  H2  O   H1  H2  O   H1  H2  O   H1  H2  
O   H1  H2  O   H1  H2  O   H1  H2  O   H1  H2  O   H1  H2  O   H1  H2  O   H1  
H2  O   H1  H2  O   H1  H2  O   H1  H2  O   H1  H2  O   H1  H2  O   H1  H2  O   
H1  H2  O   H1  H2  O   H1  H2  O   H1  H2  O   H1  H2  O   H1  H2  O   H1  H2  
O   H1  H2  O   H1  H2  O   H1  H2  O   H1  H2  O   H1  H2  O   H1  H2  O   H1  
H2  O   H1  H2  O   H1  H2  O   H1  H2  O   H1  H2  O   H1  H2  O   H1  H2  O   
H1  H2  O   H1  H2  O   H1  H2  O   H1  H2  O   H1  H2  O   H1  H2  O   H1  H2  
O   H1  H2  O   H1  H2  O   H1  H2  O   H1  H2  O   H1  H2  O   H1  H2  O   H1  
H2  O   H1  H2  O   H1  H2  O   H1  H2  O   H1  H2  O   H1  H2  O   H1  H2  O   
H1  H2  O   H1  H2  O   H1  H2  O   H1  H2  O   H1  H2  O   H1  H2  O   H1  H2  
O   H1  H2  O   H1  H2  O   H1  H2  O   H1  H2  O   H1  H2  O   H1  H2  O   H1  
H2  O   H1  H2  O   H1  H2  O   H1  H2  O   H1  H2  O   H1  H2  O   H1  H2  O   
H1  H2  O   H1  H2  O   H1  H2  O   H1  H2  O   H1  H2  O   H1  H2  O   H1  H2  
O   H1  H2  O   H1  H2  O   H1  H2  O   H1  H2  O   H1  H2  O   H1  H2  O   H1  
H2  O   H1  H2  O   H1  H2  O   H1  H2  O   H1  H2  O   H1  H2  O   H1  H2  O   
H1  H2  O   H1  H2  O   H1  H2  O   H1  H2  O   H1  H2  O   H1  H2  O   H1  H2  
O   H1  H2  O   H1  H2  O   H1  H2  O   H1  H2  O   H1  H2  O   H1  H2  O   H1  
H2  O   H1  H2  O   H1  H2  O   H1  H2  O   H1  H2  O   H1  H2  O   H1  H2  O   
H1  H2  O   H1  H2  O   H1  H2  O   H1  H2  O   H1  H2  O   H1  H2  O   H1  H2  
O   H1  H2  O   H1  H2  O   H1  H2  O   H1  H2  O   H1  H2  O   H1  H2  O   H1  
H2  O   H1  H2  O   H1  H2  O   H1  H2  O   H1  H2  O   H1  H2  O   H1  H2  O   
H1  H2  O   H1  H2  O   H1  H2  O   H1  H2  O   H1  H2  O   H1  H2  O   H1  H2  
O   H1  H2  O   H1  H2  O   H1  H2  O   H1  H2  O   H1  H2  O   H1  H2  O   H1  
H2  O   H1  H2  O   H1  H2  O   H1  H2  O   H1  H2  O   H1  H2  O   H1  H2  O   
H1  H2  O   H1  H2  O   H1  H2  O   H1  H2  O   H1  H2  O   H1  H2  O   H1  H2  
O   H1  H2  O   H1  H2  O   H1  H2  O   H1  H2  O   H1  H2  O   H1  H2  O   H1  
H2  O   H1  H2  O   H1  H2  O   H1  H2  O   H1  H2  O   H1  H2  O   H1  H2  O   
H1  H2  O   H1  H2  O   H1  H2  O   H1  H2  O   H1  H2  O   H1  H2  O   H1  H2  
O   H1  H2  O   H1  H2  O   H1  H2  O   H1  H2  O   H1  H2  O   H1  H2  O   H1  
H2  O   H1  H2  O   H1  H2  O   H1  H2  O   H1  H2  O   H1  H2  O   H1  H2  O   
H1  H2  O   H1  H2  O   H1  H2  O   H1  H2  O   H1  H2  O   H1  H2  O   H1  H2  
O   H1  H2  O   H1  H2  O   H1  H2  O   H1  H2  O   H1  H2  O   H1  H2  O   H1  
H2  O   H1  H2  O   H1  H2  O   H1  H2  O   H1  H2  O   H1  H2  O   H1  H2  O   
H1  H2  O   H1  H2  O   H1  H2  O   H1  H2  O   H1  H2  O   H1  H2  O   H1  H2  
O   H1  H2  O   H1  H2  O   H1  H2  O   H1  H2  O   H1  H2  O   H1  H2  O   H1  
H2  O   H1  H2  O   H1  H2  O   H1  H2  O   H1  H2  O   H1  H2  O   H1  H2  O   
H1  H2  O   H1  H2  O   H1  H2  O   H1  H2  O   H1  H2  O   H1  H2  O   H1  H2  
O   H1  H2  O   H1  H2  O   H1  H2  O   H1  H2  O   H1  H2  O   H1  H2  O   H1  
H2  O   H1  H2  O   H1  H2  O   H1  H2  O   H1  H2  O   H1  H2  O   H1  H2  O   
H1  H2  O   H1  H2  O   H1  H2  O   H1  H2  O   H1  H2  O   H1  H2  O   H1  H2  
O   H1  H2  O   H1  H2  O   H1  H2  O   H1  H2  O   H1  H2  O   H1  H2  O   H1  
H2  O   H1  H2  O   H1  H2  O   H1  H2  O   H1  H2  O   H1  H2  O   H1  H2  O   
H1  H2  O   H1  H2  O   H1  H2  O   H1  H2  O   H1  H2  O   H1  H2  O   H1  H2  
O   H1  H2  O   H1  H2  O   H1  H2  O   H1  H2  O   H1  H2  O   H1  H2  O   H1  
H2  O   H1  H2  O   H1  H2  O   H1  H2  O   H1  H2  O   H1  H2  O   H1  H2  O   
H1  H2  O   H1  H2  O   H1  H2  O   H1  H2  O   H1  H2  O   H1  H2  O   H1  H2  
O   H1  H2  O   H1  H2  O   H1  H2  O   H1  H2  O   H1  H2  O   H1  H2  O   H1  
H2  O   H1  H2  O   H1  H2  O   H1  H2  O   H1  H2  O   H1  H2  O   H1  H2  O   
H1  H2  O   H1  H2  O   H1  H2  O   H1  H2  O   H1  H2  O   H1  H2  O   H1  H2  
O   H1  H2  O   H1  H2  O   H1  H2  O   H1  H2  O   H1  H2  O   H1  H2  O   H1  
H2  O   H1  H2  O   H1  H2  O   H1  H2  O   H1  H2  O   H1  H2  O   H1  H2  O   
H1  H2  O   H1  H2  O   H1  H2  O   H1  H2  O   H1  H2  O   H1  H2  O   H1  H2  
O   H1  H2  O   H1  H2  O   H1  H2  O   H1  H2  O   H1  H2  O   H1  H2  O   H1  
H2  O   H1  H2  O   H1  H2  O   H1  H2  O   H1  H2  O   H1  H2  O   H1  H2  O   
H1  H2  O   H1  H2  O   H1  H2  O   H1  H2  O   H1  H2  O   H1  H2  O   H1  H2  
O   H1  H2  O   H1  H2  O   H1  H2  O   H1  H2  O   H1  H2  O   H1  H2  O   H1  
H2  O   H1  H2  O   H1  H2  O   H1  H2  O   H1  H2  O   H1  H2  O   H1  H2  O   
H1  H2  O   H1  H2  O   H1  H2  O   H1  H2  O   H1  H2  O   H1  H2  O   H1  H2  
O   H1  H2  O   H1  H2  O   H1  H2  O   H1  H2  O   H1  H2  O   H1  H2  O   H1  
H2  O   H1  H2  O   H1  H2  O   H1  H2  O   H1  H2  O   H1  H2  O   H1  H2  O   
H1  H2  O   H1  H2  O   H1  H2  O   H1  H2  O   H1  H2  O   H1  H2  O   H1  H2  
O   H1  H2  O   H1  H2  O   H1  H2  O   H1  H2  O   H1  H2  O   H1  H2  O   H1  
H2  O   H1  H2  O   H1  H2  O   H1  H2  O   H1  H2  O   H1  H2  O   H1  H2  O   
H1  H2  O   H1  H2  O   H1  H2  O   H1  H2  O   H1  H2  O   H1  H2  O   H1  H2  
O   H1  H2  O   H1  H2  O   H1  H2  O   H1  H2  O   H1  H2  O   H1  H2  O   H1  
H2  O   H1  H2  O   H1  H2  O   H1  H2  O   H1  H2  O   H1  H2  O   H1  H2  O   
H1  H2  O   H1  H2  O   H1  H2  O   H1  H2  O   H1  H2  O   H1  H2  O   H1  H2  
O   H1  H2  O   H1  H2  O   H1  H2  O   H1  H2  O   H1  H2  O   H1  H2  O   H1  
H2  O   H1  H2  O   H1  H2  O   H1  H2  O   H1  H2  O   H1  H2  O   H1  H2  O   
H1  H2  O   H1  H2  O   H1  H2  O   H1  H2  O   H1  H2  O   H1  H2  O   H1  H2  
O   H1  H2  O   H1  H2  O   H1  H2  O   H1  H2  O   H1  H2  O   H1  H2  O   H1  
H2  O   H1  H2  O   H1  H2  O   H1  H2  O   H1  H2  O   H1  H2  O   H1  H2  O   
H1  H2  O   H1  H2  O   H1  H2  O   H1  H2  O   H1  H2  O   H1  H2  O   H1  H2  
O   H1  H2  O   H1  H2  O   H1  H2  O   H1  H2  O   H1  H2  O   H1  H2  O   H1  
H2  O   H1  H2  O   H1  H2  O   H1  H2  O   H1  H2  O   H1  H2  O   H1  H2  O   
H1  H2  O   H1  H2  O   H1  H2  O   H1  H2  O   H1  H2  O   H1  H2  O   H1  H2  
O   H1  H2  O   H1  H2  O   H1  H2  O   H1  H2  O   H1  H2  O   H1  H2  O   H1  
H2  O   H1  H2  O   H1  H2  O   H1  H2  O   H1  H2  O   H1  H2  O   H1  H2  O   
H1  H2  O   H1  H2  O   H1  H2  O   H1  H2  O   H1  H2  O   H1  H2  O   H1  H2  
O   H1  H2  O   H1  H2  O   H1  H2  O   H1  H2  O   H1  H2  O   H1  H2  O   H1  
H2  O   H1  H2  O   H1  H2  O   H1  H2  O   H1  H2  O   H1  H2  O   H1  H2  O   
H1  H2  O   H1  H2  O   H1  H2  O   H1  H2  O   H1  H2  O   H1  H2  O   H1  H2  
O   H1  H2  O   H1  H2  O   H1  H2  O   H1  H2  O   H1  H2  O   H1  H2  O   H1  
H2  O   H1  H2  O   H1  H2  O   H1  H2  O   H1  H2  O   H1  H2  O   H1  H2  O   
H1  H2  O   H1  H2  O   H1  H2  O   H1  H2  O   H1  H2  O   H1  H2  O   H1  H2  
O   H1  H2  O   H1  H2  O   H1  H2  O   H1  H2  O   H1  H2  O   H1  H2  O   H1  
H2  O   H1  H2  O   H1  H2  O   H1  H2  O   H1  H2  O   H1  H2  O   H1  H2  O   
H1  H2  O   H1  H2  O   H1  H2  O   H1  H2  O   H1  H2  O   H1  H2  O   H1  H2  
O   H1  H2  O   H1  H2  O   H1  H2  O   H1  H2  O   H1  H2  O   H1  H2  O   H1  
H2  O   H1  H2  O   H1  H2  O   H1  H2  O   H1  H2  O   H1  H2  O   H1  H2  O   
H1  H2  O   H1  H2  O   H1  H2  O   H1  H2  O   H1  H2  O   H1  H2  O   H1  H2  
O   H1  H2  O   H1  H2  O   H1  H2  O   H1  H2  O   H1  H2  O   H1  H2  O   H1  
H2  O   H1  H2  O   H1  H2  O   H1  H2  O   H1  H2  O   H1  H2  O   H1  H2  O   
H1  H2  O   H1  H2  O   H1  H2  O   H1  H2  O   H1  H2  O   H1  H2  O   H1  H2  
O   H1  H2  O   H1  H2  O   H1  H2  O   H1  H2  O   H1  H2  O   H1  H2  O   H1  
H2  O   H1  H2  O   H1  H2  O   H1  H2  O   H1  H2  O   H1  H2  O   H1  H2  O   
H1  H2  O   H1  H2  O   H1  H2  O   H1  H2  O   H1  H2  O   H1  H2  O   H1  H2  
O   H1  H2  O   H1  H2  O   H1  H2  O   H1  H2  O   H1  H2  O   H1  H2  O   H1  
H2  O   H1  H2  O   H1  H2  O   H1  H2  O   H1  H2  O   H1  H2  O   H1  H2  O   
H1  H2  O   H1  H2  O   H1  H2  O   H1  H2  O   H1  H2  O   H1  H2  O   H1  H2  
O   H1  H2  O   H1  H2  O   H1  H2  O   H1  H2  O   H1  H2  O   H1  H2  O   H1  
H2  O   H1  H2  O   H1  H2  O   H1  H2  O   H1  H2  O   H1  H2  O   H1  H2  O   
H1  H2  O   H1  H2  O   H1  H2  O   H1  H2  O   H1  H2  O   H1  H2  O   H1  H2  
O   H1  H2  O   H1  H2  O   H1  H2  O   H1  H2  O   H1  H2  O   H1  H2  O   H1  
H2  O   H1  H2  O   H1  H2  O   H1  H2  O   H1  H2  O   H1  H2  O   H1  H2  O   
H1  H2  O   H1  H2  O   H1  H2  O   H1  H2  O   H1  H2  O   H1  H2  O   H1  H2  
O   H1  H2  O   H1  H2  O   H1  H2  O   H1  H2  O   H1  H2  O   H1  H2  O   H1  
H2  O   H1  H2  O   H1  H2  O   H1  H2  O   H1  H2  O   H1  H2  O   H1  H2  O   
H1  H2  O   H1  H2  O   H1  H2  O   H1  H2  O   H1  H2  O   H1  H2  O   H1  H2  
O   H1  H2  O   H1  H2  O   H1  H2  O   H1  H2  O   H1  H2  O   H1  H2  O   H1  
H2  O   H1  H2  O   H1  H2  O   H1  H2  O   H1  H2  O   H1  H2  O   H1  H2  O   
H1  H2  O   H1  H2  O   H1  H2  O   H1  H2  O   H1  H2  O   H1  H2  O   H1  H2  
O   H1  H2  O   H1  H2  O   H1  H2  O   H1  H2  O   H1  H2  O   H1  H2  O   H1  
H2  O   H1  H2  O   H1  H2  O   H1  H2  O   H1  H2  O   H1  H2  O   H1  H2  O   
H1  H2  O   H1  H2  O   H1  H2  O   H1  H2  O   H1  H2  O   H1  H2  O   H1  H2  
O   H1  H2  O   H1  H2  O   H1  H2  O   H1  H2  O   H1  H2  O   H1  H2  O   H1  
H2  O   H1  H2  O   H1  H2  O   H1  H2  O   H1  H2  O   H1  H2  O   H1  H2  O   
H1  H2  O   H1  H2  O   H1  H2  O   H1  H2  O   H1  H2  O   H1  H2  O   H1  H2  
O   H1  H2  O   H1  H2  O   H1  H2  O   H1  H2  O   H1  H2  O   H1  H2  O   H1  
H2  O   H1  H2  O   H1  H2  O   H1  H2  O   H1  H2  O   H1  H2  O   H1  H2  O   
H1  H2  O   H1  H2  O   H1  H2  O   H1  H2  O   H1  H2  O   H1  H2  O   H1  H2  
O   H1  H2  O   H1  H2  O   H1  H2  O   H1  H2  O   H1  H2  O   H1  H2  O   H1  
H2  O   H1  H2  O   H1  H2  O   H1  H2  O   H1  H2  O   H1  H2  O   H1  H2  O   
H1  H2  O   H1  H2  O   H1  H2  O   H1  H2  O   H1  H2  O   H1  H2  O   H1  H2  
O   H1  H2  O   H1  H2  O   H1  H2  O   H1  H2  O   H1  H2  O   H1  H2  O   H1  
H2  O   H1  H2  O   H1  H2  O   H1  H2  O   H1  H2  O   H1  H2  O   H1  H2  O   
H1  H2  O   H1  H2  O   H1  H2  O   H1  H2  O   H1  H2  O   H1  H2  O   H1  H2  
O   H1  H2  O   H1  H2  O   H1  H2  O   H1  H2  O   H1  H2  O   H1  H2  O   H1  
H2  O   H1  H2  O   H1  H2  O   H1  H2  O   H1  H2  O   H1  H2  O   H1  H2  O   
H1  H2  O   H1  H2  O   H1  H2  O   H1  H2  O   H1  H2  O   H1  H2  O   H1  H2  
O   H1  H2  O   H1  H2  O   H1  H2  O   H1  H2  O   H1  H2  O   H1  H2  O   H1  
H2  O   H1  H2  O   H1  H2  O   H1  H2  O   H1  H2  O   H1  H2  O   H1  H2  O   
H1  H2  O   H1  H2  O   H1  H2  O   H1  H2  O   H1  H2  O   H1  H2  O   H1  H2  
O   H1  H2  O   H1  H2  O   H1  H2  O   H1  H2  O   H1  H2  O   H1  H2  O   H1  
H2  O   H1  H2  O   H1  H2  O   H1  H2  O   H1  H2  O   H1  H2  O   H1  H2  O   
H1  H2  O   H1  H2  O   H1  H2  O   H1  H2  O   H1  H2  O   H1  H2  O   H1  H2  
O   H1  H2  O   H1  H2  O   H1  H2  O   H1  H2  O   H1  H2  O   H1  H2  O   H1  
H2  O   H1  H2  O   H1  H2  O   H1  H2  O   H1  H2  O   H1  H2  O   H1  H2  O   
H1  H2  O   H1  H2  O   H1  H2  O   H1  H2  O   H1  H2  O   H1  H2  O   H1  H2  
O   H1  H2  O   H1  H2  O   H1  H2  O   H1  H2  O   H1  H2  O   H1  H2  O   H1  
H2  O   H1  H2  O   H1  H2  O   H1  H2  O   H1  H2  O   H1  H2  O   H1  H2  O   
H1  H2  O   H1  H2  O   H1  H2  O   H1  H2  O   H1  H2  O   H1  H2  O   H1  H2  
O   H1  H2  O   H1  H2  O   H1  H2  O   H1  H2  O   H1  H2  O   H1  H2  O   H1  
H2  O   H1  H2  O   H1  H2  O   H1  H2  O   H1  H2  O   H1  H2  O   H1  H2  O   
H1  H2  O   H1  H2  O   H1  H2  O   H1  H2  O   H1  H2  O   H1  H2  O   H1  H2  
O   H1  H2  O   H1  H2  O   H1  H2  O   H1  H2  O   H1  H2  O   H1  H2  O   H1  
H2  O   H1  H2  O   H1  H2  O   H1  H2  O   H1  H2  O   H1  H2  O   H1  H2  O   
H1  H2  O   H1  H2  O   H1  H2  O   H1  H2  O   H1  H2  O   H1  H2  O   H1  H2  
O   H1  H2  O   H1  H2  O   H1  H2  O   H1  H2  O   H1  H2  O   H1  H2  O   H1  
H2  O   H1  H2  O   H1  H2  O   H1  H2  O   H1  H2  O   H1  H2  O   H1  H2  O   
H1  H2  O   H1  H2  O   H1  H2  O   H1  H2  O   H1  H2  O   H1  H2  O   H1  H2  
O   H1  H2  O   H1  H2  O   H1  H2  O   H1  H2  O   H1  H2  O   H1  H2  O   H1  
H2  O   H1  H2  O   H1  H2  O   H1  H2  O   H1  H2  O   H1  H2  O   H1  H2  O   
H1  H2  O   H1  H2  O   H1  H2  O   H1  H2  O   H1  H2  O   H1  H2  O   H1  H2  
O   H1  H2  O   H1  H2  O   H1  H2  O   H1  H2  O   H1  H2  O   H1  H2  O   H1  
H2  O   H1  H2  O   H1  H2  O   H1  H2  O   H1  H2  O   H1  H2  O   H1  H2  O   
H1  H2  O   H1  H2  O   H1  H2  O   H1  H2  O   H1  H2  O   H1  H2  O   H1  H2  
O   H1  H2  O   H1  H2  O   H1  H2  O   H1  H2  O   H1  H2  O   H1  H2  O   H1  
H2  O   H1  H2  O   H1  H2  O   H1  H2  O   H1  H2  O   H1  H2  O   H1  H2  O   
H1  H2  O   H1  H2  O   H1  H2  O   H1  H2  O   H1  H2  O   H1  H2  O   H1  H2  
O   H1  H2  O   H1  H2  O   H1  H2  O   H1  H2  O   H1  H2  O   H1  H2  O   H1  
H2  O   H1  H2  O   H1  H2  O   H1  H2  O   H1  H2  O   H1  H2  O   H1  H2  O   
H1  H2  O   H1  H2  O   H1  H2  O   H1  H2  O   H1  H2  O   H1  H2  O   H1  H2  
O   H1  H2  O   H1  H2  O   H1  H2  O   H1  H2  O   H1  H2  O   H1  H2  O   H1  
H2  O   H1  H2  O   H1  H2  O   H1  H2  O   H1  H2  O   H1  H2  O   H1  H2  O   
H1  H2  O   H1  H2  O   H1  H2  O   H1  H2  O   H1  H2  O   H1  H2  O   H1  H2  
O   H1  H2  O   H1  H2  O   H1  H2  O   H1  H2  O   H1  H2  O   H1  H2  O   H1  
H2  O   H1  H2  O   H1  H2  O   H1  H2  O   H1  H2  O   H1  H2  O   H1  H2  O   
H1  H2  O   H1  H2  O   H1  H2  O   H1  H2  O   H1  H2  O   H1  H2  O   H1  H2  
O   H1  H2  O   H1  H2  O   H1  H2  O   H1  H2  O   H1  H2  O   H1  H2  O   H1  
H2  O   H1  H2  O   H1  H2  O   H1  H2  O   H1  H2  O   H1  H2  O   H1  H2  O   
H1  H2  O   H1  H2  O   H1  H2  O   H1  H2  O   H1  H2  O   H1  H2  O   H1  H2  
O   H1  H2  O   H1  H2  O   H1  H2  O   H1  H2  O   H1  H2  O   H1  H2  O   H1  
H2  O   H1  H2  O   H1  H2  O   H1  H2  O   H1  H2  O   H1  H2  O   H1  H2  O   
H1  H2  O   H1  H2  O   H1  H2  O   H1  H2  O   H1  H2  O   H1  H2  O   H1  H2  
O   H1  H2  O   H1  H2  O   H1  H2  O   H1  H2  O   H1  H2  O   H1  H2  O   H1  
H2  O   H1  H2  O   H1  H2  O   H1  H2  O   H1  H2  O   H1  H2  O   H1  H2  O   
H1  H2  O   H1  H2  O   H1  H2  O   H1  H2  O   H1  H2  O   H1  H2  O   H1  H2  
O   H1  H2  O   H1  H2  O   H1  H2  O   H1  H2  O   H1  H2  O   H1  H2  O   H1  
H2  O   H1  H2  O   H1  H2  O   H1  H2  O   H1  H2  O   H1  H2  O   H1  H2  O   
H1  H2  O   H1  H2  O   H1  H2  O   H1  H2  O   H1  H2  O   H1  H2  O   H1  H2  
O   H1  H2  O   H1  H2  O   H1  H2  O   H1  H2  O   H1  H2  O   H1  H2  O   H1  
H2  O   H1  H2  O   H1  H2  O   H1  H2  O   H1  H2  O   H1  H2  O   H1  H2  O   
H1  H2  O   H1  H2  O   H1  H2  O   H1  H2  O   H1  H2  O   H1  H2  O   H1  H2  
O   H1  H2  O   H1  H2  O   H1  H2  O   H1  H2  O   H1  H2  O   H1  H2  O   H1  
H2  O   H1  H2  O   H1  H2  O   H1  H2  O   H1  H2  O   H1  H2  O   H1  H2  O   
H1  H2  O   H1  H2  O   H1  H2  O   H1  H2  O   H1  H2  O   H1  H2  O   H1  H2  
O   H1  H2  O   H1  H2  O   H1  H2  O   H1  H2  O   H1  H2  O   H1  H2  O   H1  
H2  O   H1  H2  O   H1  H2  O   H1  H2  O   H1  H2  O   H1  H2  O   H1  H2  O   
H1  H2  O   H1  H2  O   H1  H2  O   H1  H2  O   H1  H2  O   H1  H2  O   H1  H2  
O   H1  H2  O   H1  H2  O   H1  H2  O   H1  H2  O   H1  H2  O   H1  H2  O   H1  
H2  O   H1  H2  O   H1  H2  O   H1  H2  O   H1  H2  O   H1  H2  O   H1  H2  O   
H1  H2  O   H1  H2  O   H1  H2  O   H1  H2  O   H1  H2  O   H1  H2  O   H1  H2  
O   H1  H2  O   H1  H2  O   H1  H2  O   H1  H2  O   H1  H2  O   H1  H2  O   H1  
H2  O   H1  H2  O   H1  H2  O   H1  H2  O   H1  H2  O   H1  H2  O   H1  H2  O   
H1  H2  O   H1  H2  O   H1  H2  O   H1  H2  O   H1  H2  O   H1  H2  O   H1  H2  
O   H1  H2  O   H1  H2  O   H1  H2  O   H1  H2  O   H1  H2  O   H1  H2  O   H1  
H2  O   H1  H2  O   H1  H2  O   H1  H2  O   H1  H2  O   H1  H2  O   H1  H2  O   
H1  H2  O   H1  H2  O   H1  H2  O   H1  H2  O   H1  H2  O   H1  H2  O   H1  H2  
O   H1  H2  O   H1  H2  O   H1  H2  O   H1  H2  O   H1  H2  O   H1  H2  O   H1  
H2  O   H1  H2  O   H1  H2  O   H1  H2  O   H1  H2  O   H1  H2  O   H1  H2  O   
H1  H2  O   H1  H2  O   H1  H2  O   H1  H2  O   H1  H2  O   H1  H2  O   H1  H2  
O   H1  H2  O   H1  H2  O   H1  H2  O   H1  H2  O   H1  H2  O   H1  H2  O   H1  
H2  O   H1  H2  O   H1  H2  O   H1  H2  O   H1  H2  O   H1  H2  O   H1  H2  O   
H1  H2  O   H1  H2  O   H1  H2  O   H1  H2  O   H1  H2  O   H1  H2  O   H1  H2  
O   H1  H2  O   H1  H2  O   H1  H2  O   H1  H2  O   H1  H2  O   H1  H2  O   H1  
H2  O   H1  H2  O   H1  H2  O   H1  H2  O   H1  H2  O   H1  H2  O   H1  H2  O   
H1  H2  O   H1  H2  O   H1  H2  O   H1  H2  O   H1  H2  O   H1  H2  O   H1  H2  
O   H1  H2  O   H1  H2  O   H1  H2  O   H1  H2  O   H1  H2  O   H1  H2  O   H1  
H2  O   H1  H2  O   H1  H2  O   H1  H2  O   H1  H2  O   H1  H2  O   H1  H2  O   
H1  H2  O   H1  H2  O   H1  H2  O   H1  H2  O   H1  H2  O   H1  H2  O   H1  H2  
O   H1  H2  O   H1  H2  O   H1  H2  O   H1  H2  O   H1  H2  O   H1  H2  O   H1  
H2  O   H1  H2  O   H1  H2  O   H1  H2  O   H1  H2  O   H1  H2  O   H1  H2  O   
H1  H2  O   H1  H2  O   H1  H2  O   H1  H2  O   H1  H2  O   H1  H2  O   H1  H2  
O   H1  H2  O   H1  H2  O   H1  H2  O   H1  H2  O   H1  H2  O   H1  H2  O   H1  
H2  O   H1  H2  O   H1  H2  O   H1  H2  O   H1  H2  O   H1  H2  O   H1  H2  O   
H1  H2  O   H1  H2  O   H1  H2  O   H1  H2  O   H1  H2  O   H1  H2  O   H1  H2  
O   H1  H2  O   H1  H2  O   H1  H2  O   H1  H2  O   H1  H2  O   H1  H2  O   H1  
H2  O   H1  H2  O   H1  H2  O   H1  H2  O   H1  H2  O   H1  H2  O   H1  H2  O   
H1  H2  O   H1  H2  O   H1  H2  O   H1  H2  O   H1  H2  O   H1  H2  O   H1  H2  
O   H1  H2  O   H1  H2  O   H1  H2  O   H1  H2  O   H1  H2  O   H1  H2  O   H1  
H2  O   H1  H2  O   H1  H2  O   H1  H2  O   H1  H2  O   H1  H2  O   H1  H2  O   
H1  H2  O   H1  H2  O   H1  H2  O   H1  H2  O   H1  H2  O   H1  H2  O   H1  H2  
O   H1  H2  O   H1  H2  O   H1  H2  O   H1  H2  O   H1  H2  O   H1  H2  O   H1  
H2  O   H1  H2  O   H1  H2  O   H1  H2  O   H1  H2  O   H1  H2  O   H1  H2  O   
H1  H2  O   H1  H2  O   H1  H2  O   H1  H2  O   H1  H2  O   H1  H2  O   H1  H2  
O   H1  H2  O   H1  H2  O   H1  H2  O   H1  H2  O   H1  H2  O   H1  H2  O   H1  
H2  O   H1  H2  O   H1  H2  O   H1  H2  O   H1  H2  O   H1  H2  O   H1  H2  O   
H1  H2  O   H1  H2  O   H1  H2  O   H1  H2  O   H1  H2  O   H1  H2  O   H1  H2  
O   H1  H2  O   H1  H2  O   H1  H2  O   H1  H2  O   H1  H2  O   H1  H2  O   H1  
H2  O   H1  H2  O   H1  H2  O   H1  H2  O   H1  H2  O   H1  H2  O   H1  H2  O   
H1  H2  O   H1  H2  O   H1  H2  O   H1  H2  O   H1  H2  O   H1  H2  O   H1  H2  
O   H1  H2  O   H1  H2  O   H1  H2  O   H1  H2  O   H1  H2  O   H1  H2  O   H1  
H2  O   H1  H2  O   H1  H2  O   H1  H2  O   H1  H2  O   H1  H2  O   H1  H2  O   
H1  H2  O   H1  H2  O   H1  H2  O   H1  H2  O   H1  H2  O   H1  H2  O   H1  H2  
O   H1  H2  O   H1  H2  O   H1  H2  O   H1  H2  O   H1  H2  O   H1  H2  O   H1  
H2  O   H1  H2  O   H1  H2  O   H1  H2  O   H1  H2  O   H1  H2  O   H1  H2  O   
H1  H2  O   H1  H2  O   H1  H2  O   H1  H2  O   H1  H2  O   H1  H2  O   H1  H2  
O   H1  H2  O   H1  H2  O   H1  H2  O   H1  H2  O   H1  H2  O   H1  H2  O   H1  
H2  O   H1  H2  O   H1  H2  O   H1  H2  O   H1  H2  O   H1  H2  O   H1  H2  O   
H1  H2  O   H1  H2  O   H1  H2  O   H1  H2  O   H1  H2  O   H1  H2  O   H1  H2  
O   H1  H2  O   H1  H2  O   H1  H2  O   H1  H2  O   H1  H2  O   H1  H2  O   H1  
H2  O   H1  H2  O   H1  H2  O   H1  H2  O   H1  H2  O   H1  H2  O   H1  H2  O   
H1  H2  O   H1  H2  O   H1  H2  O   H1  H2  O   H1  H2  O   H1  H2  O   H1  H2  
O   H1  H2  O   H1  H2  O   H1  H2  O   H1  H2  O   H1  H2  O   H1  H2  O   H1  
H2  O   H1  H2  O   H1  H2  O   H1  H2  O   H1  H2  O   H1  H2  O   H1  H2  O   
H1  H2  O   H1  H2  O   H1  H2  O   H1  H2  O   H1  H2  O   H1  H2  O   H1  H2  
O   H1  H2  O   H1  H2  O   H1  H2  O   H1  H2  O   H1  H2  O   H1  H2  O   H1  
H2  O   H1  H2  O   H1  H2  O   H1  H2  O   H1  H2  O   H1  H2  O   H1  H2  O   
H1  H2  O   H1  H2  O   H1  H2  O   H1  H2  O   H1  H2  O   H1  H2  O   H1  H2  
O   H1  H2  O   H1  H2  O   H1  H2  O   H1  H2  O   H1  H2  O   H1  H2  O   H1  
H2  O   H1  H2  O   H1  H2  O   H1  H2  O   H1  H2  O   H1  H2  O   H1  H2  O   
H1  H2  O   H1  H2  O   H1  H2  O   H1  H2  O   H1  H2  O   H1  H2  O   H1  H2  
O   H1  H2  O   H1  H2  O   H1  H2  O   H1  H2  O   H1  H2  O   H1  H2  O   H1  
H2  O   H1  H2  O   H1  H2  O   H1  H2  O   H1  H2  O   H1  H2  O   H1  H2  O   
H1  H2  O   H1  H2  O   H1  H2  O   H1  H2  O   H1  H2  O   H1  H2  O   H1  H2  
O   H1  H2  O   H1  H2  O   H1  H2  O   H1  H2  O   H1  H2  O   H1  H2  O   H1  
H2  O   H1  H2  O   H1  H2  O   H1  H2  O   H1  H2  O   H1  H2  O   H1  H2  O   
H1  H2  O   H1  H2  O   H1  H2  O   H1  H2  O   H1  H2  O   H1  H2  O   H1  H2  
O   H1  H2  O   H1  H2  O   H1  H2  O   H1  H2  O   H1  H2  O   H1  H2  O   H1  
H2  O   H1  H2  O   H1  H2  O   H1  H2  O   H1  H2  O   H1  H2  O   H1  H2  O   
H1  H2  O   H1  H2  O   H1  H2  O   H1  H2  O   H1  H2  O   H1  H2  O   H1  H2  
O   H1  H2  O   H1  H2  O   H1  H2  O   H1  H2  O   H1  H2  O   H1  H2  O   H1  
H2  O   H1  H2  O   H1  H2  O   H1  H2  O   H1  H2  O   H1  H2  O   H1  H2  O   
H1  H2  O   H1  H2  O   H1  H2  O   H1  H2  O   H1  H2  O   H1  H2  O   H1  H2  
O   H1  H2  O   H1  H2  O   H1  H2  O   H1  H2  O   H1  H2  O   H1  H2  O   H1  
H2  O   H1  H2  O   H1  H2  O   H1  H2  O   H1  H2  O   H1  H2  O   H1  H2  O   
H1  H2  O   H1  H2  O   H1  H2  O   H1  H2  O   H1  H2  O   H1  H2  O   H1  H2  
O   H1  H2  O   H1  H2  O   H1  H2  O   H1  H2  O   H1  H2  O   H1  H2  O   H1  
H2  O   H1  H2  O   H1  H2  O   H1  H2  O   H1  H2  O   H1  H2  O   H1  H2  O   
H1  H2  O   H1  H2  O   H1  H2  O   H1  H2  O   H1  H2  O   H1  H2  O   H1  H2  
O   H1  H2  O   H1  H2  O   H1  H2  O   H1  H2  O   H1  H2  O   H1  H2  O   H1  
H2  O   H1  H2  O   H1  H2  O   H1  H2  O   H1  H2  O   H1  H2  O   H1  H2  O   
H1  H2  O   H1  H2  O   H1  H2  O   H1  H2  O   H1  H2  O   H1  H2  O   H1  H2  
O   H1  H2  O   H1  H2  O   H1  H2  O   H1  H2  O   H1  H2  O   H1  H2  O   H1  
H2  O   H1  H2  O   H1  H2  O   H1  H2  O   H1  H2  O   H1  H2  O   H1  H2  O   
H1  H2  O   H1  H2  O   H1  H2  O   H1  H2  O   H1  H2  O   H1  H2  O   H1  H2  
O   H1  H2  O   H1  H2  O   H1  H2  O   H1  H2  O   H1  H2  O   H1  H2  O   H1  
H2  O   H1  H2  O   H1  H2  O   H1  H2  O   H1  H2  O   H1  H2  O   H1  H2  O   
H1  H2  O   H1  H2  O   H1  H2  O   H1  H2  O   H1  H2  O   H1  H2  O   H1  H2  
O   H1  H2  O   H1  H2  O   H1  H2  O   H1  H2  O   H1  H2  O   H1  H2  O   H1  
H2  O   H1  H2  O   H1  H2  O   H1  H2  O   H1  H2  O   H1  H2  O   H1  H2  O   
H1  H2  O   H1  H2  O   H1  H2  O   H1  H2  O   H1  H2  O   H1  H2  O   H1  H2  
O   H1  H2  O   H1  H2  O   H1  H2  O   H1  H2  O   H1  H2  O   H1  H2  O   H1  
H2  O   H1  H2  O   H1  H2  O   H1  H2  O   H1  H2  O   H1  H2  O   H1  H2  O   
H1  H2  O   H1  H2  O   H1  H2  O   H1  H2  O   H1  H2  O   H1  H2  O   H1  H2  
O   H1  H2  O   H1  H2  O   H1  H2  O   H1  H2  O   H1  H2  O   H1  H2  O   H1  
H2  O   H1  H2  O   H1  H2  O   H1  H2  O   H1  H2  O   H1  H2  O   H1  H2  O   
H1  H2  O   H1  H2  O   H1  H2  O   H1  H2  O   H1  H2  O   H1  H2  O   H1  H2  
O   H1  H2  O   H1  H2  O   H1  H2  O   H1  H2  O   H1  H2  O   H1  H2  O   H1  
H2  O   H1  H2  O   H1  H2  O   H1  H2  O   H1  H2  O   H1  H2  O   H1  H2  O   
H1  H2  O   H1  H2  O   H1  H2  O   H1  H2  O   H1  H2  O   H1  H2  O   H1  H2  
O   H1  H2  O   H1  H2  O   H1  H2  O   H1  H2  O   H1  H2  O   H1  H2  O   H1  
H2  O   H1  H2  O   H1  H2  O   H1  H2  O   H1  H2  O   H1  H2  O   H1  H2  O   
H1  H2  O   H1  H2  O   H1  H2  O   H1  H2  O   H1  H2  O   H1  H2  O   H1  H2  
O   H1  H2  O   H1  H2  O   H1  H2  O   H1  H2  O   H1  H2  O   H1  H2  O   H1  
H2  O   H1  H2  O   H1  H2  O   H1  H2  O   H1  H2  O   H1  H2  O   H1  H2  O   
H1  H2  O   H1  H2  O   H1  H2  O   H1  H2  O   H1  H2  O   H1  H2  O   H1  H2  
O   H1  H2  O   H1  H2  O   H1  H2  O   H1  H2  O   H1  H2  O   H1  H2  O   H1  
H2  O   H1  H2  O   H1  H2  O   H1  H2  O   H1  H2  O   H1  H2  O   H1  H2  O   
H1  H2  O   H1  H2  O   H1  H2  O   H1  H2  O   H1  H2  O   H1  H2  O   H1  H2  
O   H1  H2  O   H1  H2  O   H1  H2  O   H1  H2  O   H1  H2  O   H1  H2  O   H1  
H2  O   H1  H2  O   H1  H2  O   H1  H2  O   H1  H2  O   H1  H2  O   H1  H2  O   
H1  H2  O   H1  H2  O   H1  H2  O   H1  H2  O   H1  H2  O   H1  H2  O   H1  H2  
O   H1  H2  O   H1  H2  O   H1  H2  O   H1  H2  O   H1  H2  O   H1  H2  O   H1  
H2  O   H1  H2  O   H1  H2  O   H1  H2  O   H1  H2  O   H1  H2  O   H1  H2  O   
H1  H2  O   H1  H2  O   H1  H2  O   H1  H2  O   H1  H2  O   H1  H2  O   H1  H2  
O   H1  H2  O   H1  H2  O   H1  H2  O   H1  H2  O   H1  H2  O   H1  H2  O   H1  
H2  O   H1  H2  O   H1  H2  O   H1  H2  O   H1  H2  O   H1  H2  O   H1  H2  O   
H1  H2  O   H1  H2  O   H1  H2  O   H1  H2  O   H1  H2  O   H1  H2  O   H1  H2  
O   H1  H2  O   H1  H2  O   H1  H2  O   H1  H2  O   H1  H2  O   H1  H2  O   H1  
H2  O   H1  H2  O   H1  H2  O   H1  H2  O   H1  H2  O   H1  H2  O   H1  H2  O   
H1  H2  O   H1  H2  O   H1  H2  O   H1  H2  O   H1  H2  O   H1  H2  O   H1  H2  
O   H1  H2  O   H1  H2  O   H1  H2  O   H1  H2  O   H1  H2  O   H1  H2  O   H1  
H2  O   H1  H2  O   H1  H2  O   H1  H2  O   H1  H2  O   H1  H2  O   H1  H2  O   
H1  H2  O   H1  H2  O   H1  H2  O   H1  H2  O   H1  H2  O   H1  H2  O   H1  H2  
O   H1  H2  O   H1  H2  O   H1  H2  O   H1  H2  O   H1  H2  O   H1  H2  O   H1  
H2  O   H1  H2  O   H1  H2  O   H1  H2  O   H1  H2  O   H1  H2  O   H1  H2  O   
H1  H2  O   H1  H2  O   H1  H2  O   H1  H2  O   H1  H2  O   H1  H2  O   H1  H2  
O   H1  H2  O   H1  H2  O   H1  H2  O   H1  H2  O   H1  H2  O   H1  H2  O   H1  
H2  O   H1  H2  O   H1  H2  O   H1  H2  O   H1  H2  O   H1  H2  O   H1  H2  O   
H1  H2  O   H1  H2  O   H1  H2  O   H1  H2  O   H1  H2  O   H1  H2  O   H1  H2  
O   H1  H2  O   H1  H2  O   H1  H2  O   H1  H2  O   H1  H2  O   H1  H2  O   H1  
H2  O   H1  H2  O   H1  H2  O   H1  H2  O   H1  H2  O   H1  H2  O   H1  H2  O   
H1  H2  O   H1  H2  O   H1  H2  O   H1  H2  O   H1  H2  O   H1  H2  O   H1  H2  
O   H1  H2  O   H1  H2  O   H1  H2  O   H1  H2  O   H1  H2  O   H1  H2  O   H1  
H2  O   H1  H2  O   H1  H2  O   H1  H2  O   H1  H2  O   H1  H2  O   H1  H2  O   
H1  H2  O   H1  H2  O   H1  H2  O   H1  H2  O   H1  H2  O   H1  H2  O   H1  H2  
O   H1  H2  O   H1  H2  O   H1  H2  O   H1  H2  O   H1  H2  O   H1  H2  O   H1  
H2  O   H1  H2  O   H1  H2  O   H1  H2  O   H1  H2  O   H1  H2  O   H1  H2  O   
H1  H2  O   H1  H2  O   H1  H2  O   H1  H2  O   H1  H2  O   H1  H2  O   H1  H2  
O   H1  H2  O   H1  H2  O   H1  H2  O   H1  H2  O   H1  H2  O   H1  H2  O   H1  
H2  O   H1  H2  O   H1  H2  O   H1  H2  O   H1  H2  O   H1  H2  O   H1  H2  O   
H1  H2  O   H1  H2  O   H1  H2  O   H1  H2  O   H1  H2  O   H1  H2  O   H1  H2  
O   H1  H2  O   H1  H2  O   H1  H2  O   H1  H2  O   H1  H2  O   H1  H2  O   H1  
H2  O   H1  H2  O   H1  H2  O   H1  H2  O   H1  H2  O   H1  H2  O   H1  H2  O   
H1  H2  O   H1  H2  O   H1  H2  O   H1  H2  O   H1  H2  O   H1  H2  O   H1  H2  
O   H1  H2  O   H1  H2  O   H1  H2  O   H1  H2  O   H1  H2  O   H1  H2  O   H1  
H2  O   H1  H2  O   H1  H2  O   H1  H2  O   H1  H2  O   H1  H2  O   H1  H2  O   
H1  H2  O   H1  H2  O   H1  H2  O   H1  H2  O   H1  H2  O   H1  H2  O   H1  H2  
O   H1  H2  O   H1  H2  O   H1  H2  O   H1  H2  O   H1  H2  O   H1  H2  O   H1  
H2  O   H1  H2  O   H1  H2  O   H1  H2  O   H1  H2  O   H1  H2  O   H1  H2  O   
H1  H2  O   H1  H2  O   H1  H2  O   H1  H2  O   H1  H2  O   H1  H2  O   H1  H2  
O   H1  H2  O   H1  H2  O   H1  H2  O   H1  H2  O   H1  H2  O   H1  H2  O   H1  
H2  O   H1  H2  O   H1  H2  O   H1  H2  O   H1  H2  O   H1  H2  O   H1  H2  O   
H1  H2  O   H1  H2  O   H1  H2  O   H1  H2  O   H1  H2  O   H1  H2  O   H1  H2  
O   H1  H2  O   H1  H2  O   H1  H2  O   H1  H2  O   H1  H2  O   H1  H2  O   H1  
H2  O   H1  H2  O   H1  H2  O   H1  H2  O   H1  H2  O   H1  H2  O   H1  H2  O   
H1  H2  O   H1  H2  O   H1  H2  O   H1  H2  O   H1  H2  O   H1  H2  O   H1  H2  
O   H1  H2  O   H1  H2  O   H1  H2  O   H1  H2  O   H1  H2  O   H1  H2  O   H1  
H2  O   H1  H2  O   H1  H2  O   H1  H2  O   H1  H2  O   H1  H2  O   H1  H2  O   
H1  H2  O   H1  H2  O   H1  H2  O   H1  H2  O   H1  H2  O   H1  H2  O   H1  H2  
O   H1  H2  O   H1  H2  O   H1  H2  O   H1  H2  O   H1  H2  O   H1  H2  O   H1  
H2  O   H1  H2  O   H1  H2  O   H1  H2  O   H1  H2  O   H1  H2  O   H1  H2  O   
H1  H2  O   H1  H2  O   H1  H2  O   H1  H2  O   H1  H2  O   H1  H2  O   H1  H2  
O   H1  H2  O   H1  H2  O   H1  H2  O   H1  H2  O   H1  H2  O   H1  H2  O   H1  
H2  O   H1  H2  O   H1  H2  O   H1  H2  O   H1  H2  O   H1  H2  O   H1  H2  O   
H1  H2  O   H1  H2  O   H1  H2  O   H1  H2  O   H1  H2  O   H1  H2  O   H1  H2  
O   H1  H2  O   H1  H2  O   H1  H2  O   H1  H2  O   H1  H2  O   H1  H2  O   H1  
H2  O   H1  H2  O   H1  H2  O   H1  H2  O   H1  H2  O   H1  H2  O   H1  H2  O   
H1  H2  O   H1  H2  O   H1  H2  O   H1  H2  O   H1  H2  O   H1  H2  O   H1  H2  
O   H1  H2  O   H1  H2  O   H1  H2  O   H1  H2  O   H1  H2  O   H1  H2  O   H1  
H2  O   H1  H2  O   H1  H2  O   H1  H2  O   H1  H2  O   H1  H2  O   H1  H2  O   
H1  H2  O   H1  H2  O   H1  H2  O   H1  H2  O   H1  H2  O   H1  H2  O   H1  H2  
O   H1  H2  O   H1  H2  O   H1  H2  O   H1  H2  O   H1  H2  O   H1  H2  O   H1  
H2  O   H1  H2  O   H1  H2  O   H1  H2  O   H1  H2  O   H1  H2  O   H1  H2  O   
H1  H2  O   H1  H2  O   H1  H2  O   H1  H2  O   H1  H2  O   H1  H2  O   H1  H2  
O   H1  H2  O   H1  H2  O   H1  H2  O   H1  H2  O   H1  H2  O   H1  H2  O   H1  
H2  O   H1  H2  O   H1  H2  O   H1  H2  O   H1  H2  O   H1  H2  O   H1  H2  O   
H1  H2  O   H1  H2  O   H1  H2  O   H1  H2  O   H1  H2  O   H1  H2  O   H1  H2  
O   H1  H2  O   H1  H2  O   H1  H2  O   H1  H2  O   H1  H2  O   H1  H2  O   H1  
H2  O   H1  H2  O   H1  H2  O   H1  H2  O   H1  H2  O   H1  H2  O   H1  H2  O   
H1  H2  O   H1  H2  O   H1  H2  O   H1  H2  O   H1  H2  O   H1  H2  O   H1  H2  
O   H1  H2  O   H1  H2  O   H1  H2  O   H1  H2  O   H1  H2  O   H1  H2  O   H1  
H2  O   H1  H2  O   H1  H2  O   H1  H2  O   H1  H2  O   H1  H2  O   H1  H2  O   
H1  H2  O   H1  H2  O   H1  H2  O   H1  H2  O   H1  H2  O   H1  H2  O   H1  H2  
O   H1  H2  O   H1  H2  O   H1  H2  O   H1  H2  O   H1  H2  O   H1  H2  O   H1  
H2  O   H1  H2  O   H1  H2  O   H1  H2  O   H1  H2  O   H1  H2  O   H1  H2  O   
H1  H2  O   H1  H2  O   H1  H2  O   H1  H2  O   H1  H2  O   H1  H2  O   H1  H2  
O   H1  H2  O   H1  H2  O   H1  H2  O   H1  H2  O   H1  H2  O   H1  H2  O   H1  
H2  O   H1  H2  O   H1  H2  O   H1  H2  O   H1  H2  O   H1  H2  O   H1  H2  O   
H1  H2  O   H1  H2  O   H1  H2  O   H1  H2  O   H1  H2  O   H1  H2  O   H1  H2  
O   H1  H2  O   H1  H2  O   H1  H2  O   H1  H2  O   H1  H2  O   H1  H2  O   H1  
H2  O   H1  H2  O   H1  H2  O   H1  H2  O   H1  H2  O   H1  H2  O   H1  H2  O   
H1  H2  O   H1  H2  O   H1  H2  O   H1  H2  O   H1  H2  O   H1  H2  O   H1  H2  
O   H1  H2  O   H1  H2  O   H1  H2  O   H1  H2  O   H1  H2  O   H1  H2  O   H1  
H2  O   H1  H2  O   H1  H2  O   H1  H2  O   H1  H2  O   H1  H2  O   H1  H2  O   
H1  H2  O   H1  H2  O   H1  H2  O   H1  H2  O   H1  H2  O   H1  H2  O   H1  H2  
O   H1  H2  O   H1  H2  O   H1  H2  O   H1  H2  O   H1  H2  O   H1  H2  O   H1  
H2  O   H1  H2  O   H1  H2  O   H1  H2  O   H1  H2  O   H1  H2  O   H1  H2  O   
H1  H2  O   H1  H2  O   H1  H2  O   H1  H2  O   H1  H2  O   H1  H2  O   H1  H2  
O   H1  H2  O   H1  H2  O   H1  H2  O   H1  H2  O   H1  H2  O   H1  H2  O   H1  
H2  O   H1  H2  O   H1  H2  O   H1  H2  O   H1  H2  O   H1  H2  O   H1  H2  O   
H1  H2  O   H1  H2  O   H1  H2  O   H1  H2  O   H1  H2  O   H1  H2  O   H1  H2  
O   H1  H2  O   H1  H2  O   H1  H2  O   H1  H2  O   H1  H2  O   H1  H2  O   H1  
H2  O   H1  H2  O   H1  H2  O   H1  H2  O   H1  H2  O   H1  H2  O   H1  H2  O   
H1  H2  O   H1  H2  O   H1  H2  O   H1  H2  O   H1  H2  O   H1  H2  O   H1  H2  
O   H1  H2  O   H1  H2  O   H1  H2  O   H1  H2  O   H1  H2  O   H1  H2  O   H1  
H2  O   H1  H2  O   H1  H2  O   H1  H2  O   H1  H2  O   H1  H2  O   H1  H2  O   
H1  H2  O   H1  H2  O   H1  H2  O   H1  H2  O   H1  H2  O   H1  H2  O   H1  H2  
O   H1  H2  O   H1  H2  O   H1  H2  O   H1  H2  O   H1  H2  O   H1  H2  O   H1  
H2  O   H1  H2  O   H1  H2  O   H1  H2  O   H1  H2  O   H1  H2  O   H1  H2  O   
H1  H2  O   H1  H2  O   H1  H2  O   H1  H2  O   H1  H2  O   H1  H2  O   H1  H2  
O   H1  H2  O   H1  H2  O   H1  H2  O   H1  H2  O   H1  H2  O   H1  H2  O   H1  
H2  O   H1  H2  O   H1  H2  O   H1  H2  O   H1  H2  O   H1  H2  O   H1  H2  O   
H1  H2  O   H1  H2  O   H1  H2  O   H1  H2  O   H1  H2  O   H1  H2  O   H1  H2  
O   H1  H2  O   H1  H2  O   H1  H2  O   H1  H2  O   H1  H2  O   H1  H2  O   H1  
H2  O   H1  H2  O   H1  H2  O   H1  H2  O   H1  H2  O   H1  H2  O   H1  H2  O   
H1  H2  O   H1  H2  O   H1  H2  O   H1  H2  O   H1  H2  O   H1  H2  O   H1  H2  
O   H1  H2  O   H1  H2  O   H1  H2  O   H1  H2  O   H1  H2  O   H1  H2  O   H1  
H2  O   H1  H2  O   H1  H2  O   H1  H2  O   H1  H2  O   H1  H2  O   H1  H2  O   
H1  H2  O   H1  H2  O   H1  H2  O   H1  H2  O   H1  H2  O   H1  H2  O   H1  H2  
O   H1  H2  O   H1  H2  O   H1  H2  O   H1  H2  O   H1  H2  O   H1  H2  O   H1  
H2  O   H1  H2  O   H1  H2  O   H1  H2  O   H1  H2  O   H1  H2  O   H1  H2  O   
H1  H2  O   H1  H2  O   H1  H2  O   H1  H2  O   H1  H2  O   H1  H2  O   H1  H2  
O   H1  H2  O   H1  H2  O   H1  H2  O   H1  H2  O   H1  H2  O   H1  H2  O   H1  
H2  O   H1  H2  O   H1  H2  O   H1  H2  O   H1  H2  O   H1  H2  O   H1  H2  O   
H1  H2  O   H1  H2  O   H1  H2  O   H1  H2  O   H1  H2  O   H1  H2  O   H1  H2  
O   H1  H2  O   H1  H2  O   H1  H2  O   H1  H2  O   H1  H2  O   H1  H2  O   H1  
H2  O   H1  H2  O   H1  H2  O   H1  H2  O   H1  H2  O   H1  H2  O   H1  H2  O   
H1  H2  O   H1  H2  O   H1  H2  O   H1  H2  O   H1  H2  O   H1  H2  O   H1  H2  
O   H1  H2  O   H1  H2  O   H1  H2  O   H1  H2  O   H1  H2  O   H1  H2  O   H1  
H2  O   H1  H2  O   H1  H2  O   H1  H2  O   H1  H2  O   H1  H2  O   H1  H2  O   
H1  H2  O   H1  H2  O   H1  H2  O   H1  H2  O   H1  H2  O   H1  H2  O   H1  H2  
O   H1  H2  O   H1  H2  O   H1  H2  O   H1  H2  O   H1  H2  O   H1  H2  O   H1  
H2  O   H1  H2  O   H1  H2  O   H1  H2  O   H1  H2  O   H1  H2  O   H1  H2  O   
H1  H2  O   H1  H2  O   H1  H2  O   H1  H2  O   H1  H2  O   H1  H2  O   H1  H2  
O   H1  H2  O   H1  H2  O   H1  H2  O   H1  H2  O   H1  H2  O   H1  H2  O   H1  
H2  O   H1  H2  O   H1  H2  O   H1  H2  O   H1  H2  O   H1  H2  O   H1  H2  O   
H1  H2  O   H1  H2  O   H1  H2  O   H1  H2  O   H1  H2  O   H1  H2  O   H1  H2  
O   H1  H2  O   H1  H2  O   H1  H2  O   H1  H2  O   H1  H2  O   H1  H2  O   H1  
H2  O   H1  H2  O   H1  H2  O   H1  H2  O   H1  H2  O   H1  H2  O   H1  H2  O   
H1  H2  O   H1  H2  O   H1  H2  O   H1  H2  O   H1  H2  O   H1  H2  O   H1  H2  
O   H1  H2  O   H1  H2  O   H1  H2  O   H1  H2  O   H1  H2  O   H1  H2  O   H1  
H2  O   H1  H2  O   H1  H2  O   H1  H2  O   H1  H2  O   H1  H2  O   H1  H2  O   
H1  H2  O   H1  H2  O   H1  H2  O   H1  H2  O   H1  H2  O   H1  H2  O   H1  H2  
O   H1  H2  O   H1  H2  O   H1  H2  O   H1  H2  O   H1  H2  O   H1  H2  O   H1  
H2  O   H1  H2  O   H1  H2  O   H1  H2  O   H1  H2  O   H1  H2  O   H1  H2  O   
H1  H2  O   H1  H2  O   H1  H2  O   H1  H2  O   H1  H2  O   H1  H2  O   H1  H2  
O   H1  H2  O   H1  H2  O   H1  H2  O   H1  H2  O   H1  H2  O   H1  H2  O   H1  
H2  O   H1  H2  O   H1  H2  O   H1  H2  O   H1  H2  O   H1  H2  O   H1  H2  O   
H1  H2  O   H1  H2  O   H1  H2  O   H1  H2  O   H1  H2  O   H1  H2  O   H1  H2  
O   H1  H2  O   H1  H2  O   H1  H2  O   H1  H2  O   H1  H2  O   H1  H2  O   H1  
H2  O   H1  H2  O   H1  H2  O   H1  H2  O   H1  H2  O   H1  H2  O   H1  H2  O   
H1  H2  O   H1  H2  O   H1  H2  O   H1  H2  O   H1  H2  O   H1  H2  O   H1  H2  
O   H1  H2  O   H1  H2  O   H1  H2  O   H1  H2  O   H1  H2  O   H1  H2  O   H1  
H2  O   H1  H2  O   H1  H2  O   H1  H2  O   H1  H2  O   H1  H2  O   H1  H2  O   
H1  H2  O   H1  H2  O   H1  H2  O   H1  H2  O   H1  H2  O   H1  H2  O   H1  H2  
O   H1  H2  O   H1  H2  O   H1  H2  O   H1  H2  O   H1  H2  O   H1  H2  O   H1  
H2  O   H1  H2  O   H1  H2  O   H1  H2  O   H1  H2  O   H1  H2  O   H1  H2  O   
H1  H2  O   H1  H2  O   H1  H2  O   H1  H2  O   H1  H2  O   H1  H2  O   H1  H2  
O   H1  H2  O   H1  H2  O   H1  H2  O   H1  H2  O   H1  H2  O   H1  H2  O   H1  
H2  O   H1  H2  O   H1  H2  O   H1  H2  O   H1  H2  O   H1  H2  O   H1  H2  O   
H1  H2  O   H1  H2  O   H1  H2  O   H1  H2  O   H1  H2  O   H1  H2  O   H1  H2  
O   H1  H2  O   H1  H2  O   H1  H2  O   H1  H2  O   H1  H2  O   H1  H2  O   H1  
H2  O   H1  H2  O   H1  H2  O   H1  H2  O   H1  H2  O   H1  H2  O   H1  H2  O   
H1  H2  O   H1  H2  O   H1  H2  O   H1  H2  O   H1  H2  O   H1  H2  O   H1  H2  
O   H1  H2  O   H1  H2  O   H1  H2  O   H1  H2  O   H1  H2  O   H1  H2  O   H1  
H2  O   H1  H2  O   H1  H2  O   H1  H2  O   H1  H2  O   H1  H2  O   H1  H2  O   
H1  H2  O   H1  H2  O   H1  H2  O   H1  H2  O   H1  H2  O   H1  H2  O   H1  H2  
O   H1  H2  O   H1  H2  O   H1  H2  O   H1  H2  O   H1  H2  O   H1  H2  O   H1  
H2  O   H1  H2  O   H1  H2  O   H1  H2  O   H1  H2  O   H1  H2  O   H1  H2  O   
H1  H2  O   H1  H2  O   H1  H2  O   H1  H2  O   H1  H2  O   H1  H2  O   H1  H2  
O   H1  H2  O   H1  H2  O   H1  H2  O   H1  H2  O   H1  H2  O   H1  H2  O   H1  
H2  O   H1  H2  O   H1  H2  O   H1  H2  O   H1  H2  O   H1  H2  O   H1  H2  O   
H1  H2  O   H1  H2  O   H1  H2  O   H1  H2  O   H1  H2  O   H1  H2  O   H1  H2  
O   H1  H2  O   H1  H2  O   H1  H2  O   H1  H2  O   H1  H2  O   H1  H2  O   H1  
H2  O   H1  H2  O   H1  H2  O   H1  H2  O   H1  H2  O   H1  H2  O   H1  H2  O   
H1  H2  O   H1  H2  O   H1  H2  O   H1  H2  O   H1  H2  O   H1  H2  O   H1  H2  
O   H1  H2  O   H1  H2  O   H1  H2  O   H1  H2  O   H1  H2  O   H1  H2  O   H1  
H2  O   H1  H2  O   H1  H2  O   H1  H2  O   H1  H2  O   H1  H2  O   H1  H2  O   
H1  H2  O   H1  H2  O   H1  H2  O   H1  H2  O   H1  H2  O   H1  H2  O   H1  H2  
O   H1  H2  O   H1  H2  O   H1  H2  O   H1  H2  O   H1  H2  O   H1  H2  O   H1  
H2  O   H1  H2  O   H1  H2  O   H1  H2  O   H1  H2  O   H1  H2  O   H1  H2  O   
H1  H2  O   H1  H2  O   H1  H2  O   H1  H2  O   H1  H2  O   H1  H2  O   H1  H2  
O   H1  H2  O   H1  H2  O   H1  H2  O   H1  H2  O   H1  H2  O   H1  H2  O   H1  
H2  O   H1  H2  O   H1  H2  O   H1  H2  O   H1  H2  O   H1  H2  O   H1  H2  O   
H1  H2  O   H1  H2  O   H1  H2  O   H1  H2  O   H1  H2  O   H1  H2  O   H1  H2  
O   H1  H2  O   H1  H2  O   H1  H2  O   H1  H2  O   H1  H2  O   H1  H2  O   H1  
H2  O   H1  H2  O   H1  H2  O   H1  H2  O   H1  H2  O   H1  H2  O   H1  H2  O   
H1  H2  O   H1  H2  O   H1  H2  O   H1  H2  O   H1  H2  O   H1  H2  O   H1  H2  
O   H1  H2  O   H1  H2  O   H1  H2  O   H1  H2  O   H1  H2  O   H1  H2  O   H1  
H2  O   H1  H2  O   H1  H2  O   H1  H2  O   H1  H2  O   H1  H2  O   H1  H2  O   
H1  H2  O   H1  H2  O   H1  H2  O   H1  H2  O   H1  H2  O   H1  H2  O   H1  H2  
O   H1  H2  O   H1  H2  O   H1  H2  O   H1  H2  O   H1  H2  O   H1  H2  O   H1  
H2  O   H1  H2  O   H1  H2  O   H1  H2  O   H1  H2  O   H1  H2  O   H1  H2  O   
H1  H2  O   H1  H2  O   H1  H2  O   H1  H2  O   H1  H2  O   H1  H2  O   H1  H2  
O   H1  H2  O   H1  H2  O   H1  H2  O   H1  H2  O   H1  H2  O   H1  H2  O   H1  
H2  O   H1  H2  O   H1  H2  O   H1  H2  O   H1  H2  O   H1  H2  O   H1  H2  O   
H1  H2  O   H1  H2  O   H1  H2  O   H1  H2  O   H1  H2  O   H1  H2  O   H1  H2  
O   H1  H2  O   H1  H2  O   H1  H2  O   H1  H2  O   H1  H2  O   H1  H2  O   H1  
H2  O   H1  H2  O   H1  H2  O   H1  H2  O   H1  H2  O   H1  H2  O   H1  H2  O   
H1  H2  O   H1  H2  O   H1  H2  O   H1  H2  O   H1  H2  O   H1  H2  O   H1  H2  
O   H1  H2  O   H1  H2  O   H1  H2  O   H1  H2  O   H1  H2  O   H1  H2  O   H1  
H2  O   H1  H2  O   H1  H2  O   H1  H2  O   H1  H2  O   H1  H2  O   H1  H2  O   
H1  H2  O   H1  H2  O   H1  H2  O   H1  H2  O   H1  H2  O   H1  H2  O   H1  H2  
O   H1  H2  O   H1  H2  O   H1  H2  O   H1  H2  O   H1  H2  O   H1  H2  O   H1  
H2  O   H1  H2  O   H1  H2  O   H1  H2  O   H1  H2  O   H1  H2  O   H1  H2  O   
H1  H2  O   H1  H2  O   H1  H2  O   H1  H2  O   H1  H2  O   H1  H2  O   H1  H2  
O   H1  H2  O   H1  H2  O   H1  H2  O   H1  H2  O   H1  H2  O   H1  H2  O   H1  
H2  O   H1  H2  O   H1  H2  O   H1  H2  O   H1  H2  O   H1  H2  O   H1  H2  O   
H1  H2  O   H1  H2  O   H1  H2  O   H1  H2  O   H1  H2  O   H1  H2  O   H1  H2  
O   H1  H2  O   H1  H2  O   H1  H2  O   H1  H2  O   H1  H2  O   H1  H2  O   H1  
H2  O   H1  H2  O   H1  H2  O   H1  H2  O   H1  H2  O   H1  H2  O   H1  H2  O   
H1  H2  O   H1  H2  O   H1  H2  O   H1  H2  O   H1  H2  O   H1  H2  O   H1  H2  
O   H1  H2  O   H1  H2  O   H1  H2  O   H1  H2  O   H1  H2  O   H1  H2  O   H1  
H2  O   H1  H2  O   H1  H2  O   H1  H2  O   H1  H2  O   H1  H2  O   H1  H2  O   
H1  H2  O   H1  H2  O   H1  H2  O   H1  H2  O   H1  H2  O   H1  H2  O   H1  H2  
O   H1  H2  O   H1  H2  O   H1  H2  O   H1  H2  O   H1  H2  O   H1  H2  O   H1  
H2  O   H1  H2  O   H1  H2  O   H1  H2  O   H1  H2  O   H1  H2  O   H1  H2  O   
H1  H2  O   H1  H2  O   H1  H2  O   H1  H2  O   H1  H2  O   H1  H2  O   H1  H2  
O   H1  H2  O   H1  H2  O   H1  H2  O   H1  H2  O   H1  H2  O   H1  H2  O   H1  
H2  O   H1  H2  O   H1  H2  O   H1  H2  O   H1  H2  O   H1  H2  O   H1  H2  O   
H1  H2  O   H1  H2  O   H1  H2  O   H1  H2  O   H1  H2  O   H1  H2  O   H1  H2  
O   H1  H2  O   H1  H2  O   H1  H2  O   H1  H2  O   H1  H2  O   H1  H2  O   H1  
H2  O   H1  H2  O   H1  H2  O   H1  H2  O   H1  H2  O   H1  H2  O   H1  H2  O   
H1  H2  O   H1  H2  O   H1  H2  O   H1  H2  O   H1  H2  O   H1  H2  O   H1  H2  
O   H1  H2  O   H1  H2  O   H1  H2  O   H1  H2  O   H1  H2  O   H1  H2  O   H1  
H2  O   H1  H2  O   H1  H2  O   H1  H2  O   H1  H2  O   H1  H2  O   H1  H2  O   
H1  H2  O   H1  H2  O   H1  H2  O   H1  H2  O   H1  H2  O   H1  H2  O   H1  H2  
O   H1  H2  O   H1  H2  O   H1  H2  O   H1  H2  O   H1  H2  O   H1  H2  O   H1  
H2  O   H1  H2  O   H1  H2  O   H1  H2  O   H1  H2  O   H1  H2  O   H1  H2  O   
H1  H2  O   H1  H2  O   H1  H2  O   H1  H2  O   H1  H2  O   H1  H2  O   H1  H2  
O   H1  H2  O   H1  H2  O   H1  H2  O   H1  H2  O   H1  H2  O   H1  H2  O   H1  
H2  O   H1  H2  O   H1  H2  O   H1  H2  O   H1  H2  O   H1  H2  O   H1  H2  O   
H1  H2  O   H1  H2  O   H1  H2  O   H1  H2  O   H1  H2  O   H1  H2  O   H1  H2  
O   H1  H2  O   H1  H2  O   H1  H2  O   H1  H2  O   H1  H2  O   H1  H2  O   H1  
H2  O   H1  H2  O   H1  H2  O   H1  H2  O   H1  H2  O   H1  H2  O   H1  H2  O   
H1  H2  O   H1  H2  O   H1  H2  O   H1  H2  O   H1  H2  O   H1  H2  O   H1  H2  
O   H1  H2  O   H1  H2  O   H1  H2  O   H1  H2  O   H1  H2  O   H1  H2  O   H1  
H2  O   H1  H2  O   H1  H2  O   H1  H2  O   H1  H2  O   H1  H2  O   H1  H2  O   
H1  H2  O   H1  H2  O   H1  H2  O   H1  H2  O   H1  H2  O   H1  H2  O   H1  H2  
O   H1  H2  O   H1  H2  O   H1  H2  O   H1  H2  O   H1  H2  O   H1  H2  O   H1  
H2  O   H1  H2  O   H1  H2  O   H1  H2  O   H1  H2  O   H1  H2  O   H1  H2  O   
H1  H2  O   H1  H2  O   H1  H2  O   H1  H2  O   H1  H2  O   H1  H2  O   H1  H2  
O   H1  H2  O   H1  H2  O   H1  H2  O   H1  H2  O   H1  H2  O   H1  H2  O   H1  
H2  O   H1  H2  O   H1  H2  O   H1  H2  O   H1  H2  O   H1  H2  O   H1  H2  O   
H1  H2  O   H1  H2  O   H1  H2  O   H1  H2  O   H1  H2  O   H1  H2  O   H1  H2  
O   H1  H2  O   H1  H2  O   H1  H2  O   H1  H2  O   H1  H2  O   H1  H2  O   H1  
H2  O   H1  H2  O   H1  H2  O   H1  H2  O   H1  H2  O   H1  H2  O   H1  H2  O   
H1  H2  O   H1  H2  O   H1  H2  O   H1  H2  O   H1  H2  O   H1  H2  O   H1  H2  
O   H1  H2  O   H1  H2  O   H1  H2  O   H1  H2  O   H1  H2  O   H1  H2  O   H1  
H2  O   H1  H2  O   H1  H2  O   H1  H2  O   H1  H2  O   H1  H2  O   H1  H2  O   
H1  H2  O   H1  H2  O   H1  H2  O   H1  H2  O   H1  H2  O   H1  H2  O   H1  H2  
O   H1  H2  O   H1  H2  O   H1  H2  O   H1  H2  O   H1  H2  O   H1  H2  O   H1  
H2  O   H1  H2  O   H1  H2  O   H1  H2  O   H1  H2  O   H1  H2  O   H1  H2  O   
H1  H2  O   H1  H2  O   H1  H2  O   H1  H2  O   H1  H2  O   H1  H2  O   H1  H2  
O   H1  H2  O   H1  H2  O   H1  H2  O   H1  H2  O   H1  H2  O   H1  H2  O   H1  
H2  O   H1  H2  O   H1  H2  O   H1  H2  O   H1  H2  O   H1  H2  O   H1  H2  O   
H1  H2  O   H1  H2  O   H1  H2  O   H1  H2  O   H1  H2  O   H1  H2  O   H1  H2  
O   H1  H2  O   H1  H2  O   H1  H2  O   H1  H2  O   H1  H2  O   H1  H2  O   H1  
H2  O   H1  H2  O   H1  H2  O   H1  H2  O   H1  H2  O   H1  H2  O   H1  H2  O   
H1  H2  O   H1  H2  O   H1  H2  O   H1  H2  O   H1  H2  O   H1  H2  O   H1  H2  
O   H1  H2  O   H1  H2  O   H1  H2  O   H1  H2  O   H1  H2  O   H1  H2  O   H1  
H2  O   H1  H2  O   H1  H2  O   H1  H2  O   H1  H2  O   H1  H2  O   H1  H2  O   
H1  H2  O   H1  H2  O   H1  H2  O   H1  H2  O   H1  H2  O   H1  H2  O   H1  H2  
O   H1  H2  O   H1  H2  O   H1  H2  O   H1  H2  O   H1  H2  O   H1  H2  O   H1  
H2  O   H1  H2  O   H1  H2  O   H1  H2  O   H1  H2  O   H1  H2  O   H1  H2  O   
H1  H2  O   H1  H2  O   H1  H2  O   H1  H2  O   H1  H2  O   H1  H2  O   H1  H2  
O   H1  H2  O   H1  H2  O   H1  H2  O   H1  H2  O   H1  H2  O   H1  H2  O   H1  
H2  O   H1  H2  O   H1  H2  O   H1  H2  O   H1  H2  O   H1  H2  O   H1  H2  O   
H1  H2  O   H1  H2  O   H1  H2  O   H1  H2  O   H1  H2  O   H1  H2  O   H1  H2  
O   H1  H2  O   H1  H2  O   H1  H2  O   H1  H2  O   H1  H2  O   H1  H2  O   H1  
H2  O   H1  H2  O   H1  H2  O   H1  H2  O   H1  H2  O   H1  H2  O   H1  H2  O   
H1  H2  O   H1  H2  O   H1  H2  O   H1  H2  O   H1  H2  O   H1  H2  O   H1  H2  
O   H1  H2  O   H1  H2  O   H1  H2  O   H1  H2  O   H1  H2  O   H1  H2  O   H1  
H2  O   H1  H2  O   H1  H2  O   H1  H2  O   H1  H2  O   H1  H2  O   H1  H2  O   
H1  H2  O   H1  H2  O   H1  H2  O   H1  H2  O   H1  H2  O   H1  H2  O   H1  H2  
O   H1  H2  O   H1  H2  O   H1  H2  O   H1  H2  O   H1  H2  O   H1  H2  O   H1  
H2  O   H1  H2  O   H1  H2  O   H1  H2  O   H1  H2  O   H1  H2  O   H1  H2  O   
H1  H2  O   H1  H2  O   H1  H2  O   H1  H2  O   H1  H2  O   H1  H2  O   H1  H2  
O   H1  H2  O   H1  H2  O   H1  H2  O   H1  H2  O   H1  H2  O   H1  H2  O   H1  
H2  O   H1  H2  O   H1  H2  O   H1  H2  O   H1  H2  O   H1  H2  O   H1  H2  O   
H1  H2  O   H1  H2  O   H1  H2  O   H1  H2  O   H1  H2  O   H1  H2  O   H1  H2  
O   H1  H2  O   H1  H2  O   H1  H2  O   H1  H2  O   H1  H2  O   H1  H2  O   H1  
H2  O   H1  H2  O   H1  H2  O   H1  H2  O   H1  H2  O   H1  H2  O   H1  H2  O   
H1  H2  O   H1  H2  O   H1  H2  O   H1  H2  O   H1  H2  O   H1  H2  O   H1  H2  
O   H1  H2  O   H1  H2  O   H1  H2  O   H1  H2  O   H1  H2  O   H1  H2  O   H1  
H2  O   H1  H2  O   H1  H2  O   H1  H2  O   H1  H2  O   H1  H2  O   H1  H2  O   
H1  H2  O   H1  H2  O   H1  H2  O   H1  H2  O   H1  H2  O   H1  H2  O   H1  H2  
O   H1  H2  O   H1  H2  O   H1  H2  O   H1  H2  O   H1  H2  O   H1  H2  O   H1  
H2  O   H1  H2  O   H1  H2  O   H1  H2  O   H1  H2  O   H1  H2  O   H1  H2  O   
H1  H2  O   H1  H2  O   H1  H2  O   H1  H2  O   H1  H2  O   H1  H2  O   H1  H2  
O   H1  H2  O   H1  H2  O   H1  H2  O   H1  H2  O   H1  H2  O   H1  H2  O   H1  
H2  O   H1  H2  O   H1  H2  O   H1  H2  O   H1  H2  O   H1  H2  O   H1  H2  O   
H1  H2  O   H1  H2  O   H1  H2  O   H1  H2  O   H1  H2  O   H1  H2  O   H1  H2  
O   H1  H2  O   H1  H2  O   H1  H2  O   H1  H2  O   H1  H2  O   H1  H2  O   H1  
H2  O   H1  H2  O   H1  H2  O   H1  H2  O   H1  H2  O   H1  H2  O   H1  H2  O   
H1  H2  O   H1  H2  O   H1  H2  O   H1  H2  O   H1  H2  O   H1  H2  O   H1  H2  
O   H1  H2  O   H1  H2  O   H1  H2  O   H1  H2  O   H1  H2  O   H1  H2  O   H1  
H2  O   H1  H2  O   H1  H2  O   H1  H2  O   H1  H2  O   H1  H2  O   H1  H2  O   
H1  H2  O   H1  H2  O   H1  H2  O   H1  H2  O   H1  H2  O   H1  H2  O   H1  H2  
O   H1  H2  O   H1  H2  O   H1  H2  O   H1  H2  O   H1  H2  O   H1  H2  O   H1  
H2  O   H1  H2  O   H1  H2  O   H1  H2  O   H1  H2  O   H1  H2  O   H1  H2  O   
H1  H2  O   H1  H2  O   H1  H2  O   H1  H2  O   H1  H2  O   H1  H2  O   H1  H2  
O   H1  H2  O   H1  H2  O   H1  H2  O   H1  H2  O   H1  H2  O   H1  H2  O   H1  
H2  O   H1  H2  O   H1  H2  O   H1  H2  O   H1  H2  O   H1  H2  O   H1  H2  O   
H1  H2  O   H1  H2  O   H1  H2  O   H1  H2  O   H1  H2  O   H1  H2  O   H1  H2  
O   H1  H2  O   H1  H2  O   H1  H2  O   H1  H2  O   H1  H2  O   H1  H2  O   H1  
H2  O   H1  H2  O   H1  H2  O   H1  H2  O   H1  H2  O   H1  H2  O   H1  H2  O   
H1  H2  O   H1  H2  O   H1  H2  O   H1  H2  O   H1  H2  O   H1  H2  O   H1  H2  
O   H1  H2  O   H1  H2  O   H1  H2  O   H1  H2  O   H1  H2  O   H1  H2  O   H1  
H2  O   H1  H2  O   H1  H2  O   H1  H2  O   H1  H2  O   H1  H2  O   H1  H2  O   
H1  H2  O   H1  H2  O   H1  H2  O   H1  H2  O   H1  H2  O   H1  H2  O   H1  H2  
O   H1  H2  O   H1  H2  O   H1  H2  O   H1  H2  O   H1  H2  O   H1  H2  O   H1  
H2  O   H1  H2  O   H1  H2  O   H1  H2  O   H1  H2  O   H1  H2  O   H1  H2  O   
H1  H2  O   H1  H2  O   H1  H2  O   H1  H2  O   H1  H2  O   H1  H2  O   H1  H2  
O   H1  H2  O   H1  H2  O   H1  H2  O   H1  H2  O   H1  H2  O   H1  H2  O   H1  
H2  O   H1  H2  O   H1  H2  O   H1  H2  O   H1  H2  O   H1  H2  O   H1  H2  O   
H1  H2  O   H1  H2  O   H1  H2  O   H1  H2  O   H1  H2  O   H1  H2  O   H1  H2  
O   H1  H2  O   H1  H2  O   H1  H2  O   H1  H2  O   H1  H2  O   H1  H2  O   H1  
H2  O   H1  H2  O   H1  H2  O   H1  H2  O   H1  H2  O   H1  H2  O   H1  H2  O   
H1  H2  O   H1  H2  O   H1  H2  O   H1  H2  O   H1  H2  O   H1  H2  O   H1  H2  
O   H1  H2  O   H1  H2  O   H1  H2  O   H1  H2  O   H1  H2  O   H1  H2  O   H1  
H2  O   H1  H2  O   H1  H2  O   H1  H2  O   H1  H2  O   H1  H2  O   H1  H2  O   
H1  H2  O   H1  H2  O   H1  H2  O   H1  H2  O   H1  H2  O   H1  H2  O   H1  H2  
O   H1  H2  O   H1  H2  O   H1  H2  O   H1  H2  O   H1  H2  O   H1  H2  O   H1  
H2  O   H1  H2  O   H1  H2  O   H1  H2  O   H1  H2  O   H1  H2  O   H1  H2  O   
H1  H2  O   H1  H2  O   H1  H2  O   H1  H2  O   H1  H2  O   H1  H2  O   H1  H2  
O   H1  H2  O   H1  H2  O   H1  H2  O   H1  H2  O   H1  H2  O   H1  H2  O   H1  
H2  O   H1  H2  O   H1  H2  O   H1  H2  O   H1  H2  O   H1  H2  O   H1  H2  O   
H1  H2  O   H1  H2  O   H1  H2  O   H1  H2  O   H1  H2  O   H1  H2  O   H1  H2  
O   H1  H2  O   H1  H2  O   H1  H2  O   H1  H2  O   H1  H2  O   H1  H2  O   H1  
H2  O   H1  H2  O   H1  H2  O   H1  H2  O   H1  H2  O   H1  H2  O   H1  H2  O   
H1  H2  O   H1  H2  O   H1  H2  O   H1  H2  O   H1  H2  O   H1  H2  O   H1  H2  
O   H1  H2  O   H1  H2  O   H1  H2  O   H1  H2  O   H1  H2  O   H1  H2  O   H1  
H2  O   H1  H2  O   H1  H2  O   H1  H2  O   H1  H2  O   H1  H2  O   H1  H2  O   
H1  H2  O   H1  H2  O   H1  H2  O   H1  H2  O   H1  H2  O   H1  H2  O   H1  H2  
O   H1  H2  O   H1  H2  O   H1  H2  O   H1  H2  O   H1  H2  O   H1  H2  O   H1  
H2  O   H1  H2  O   H1  H2  O   H1  H2  O   H1  H2  O   H1  H2  O   H1  H2  O   
H1  H2  O   H1  H2  O   H1  H2  O   H1  H2  O   H1  H2  O   H1  H2  O   H1  H2  
O   H1  H2  O   H1  H2  O   H1  H2  O   H1  H2  O   H1  H2  O   H1  H2  O   H1  
H2  O   H1  H2  O   H1  H2  O   H1  H2  O   H1  H2  O   H1  H2  O   H1  H2  O   
H1  H2  O   H1  H2  O   H1  H2  O   H1  H2  O   H1  H2  O   H1  H2  O   H1  H2  
O   H1  H2  O   H1  H2  O   H1  H2  O   H1  H2  O   H1  H2  O   H1  H2  O   H1  
H2  O   H1  H2  O   H1  H2  O   H1  H2  O   H1  H2  O   H1  H2  O   H1  H2  O   
H1  H2  O   H1  H2  O   H1  H2  O   H1  H2  O   H1  H2  O   H1  H2  O   H1  H2  
O   H1  H2  O   H1  H2  O   H1  H2  O   H1  H2  O   H1  H2  O   H1  H2  O   H1  
H2  O   H1  H2  O   H1  H2  O   H1  H2  O   H1  H2  O   H1  H2  O   H1  H2  O   
H1  H2  O   H1  H2  O   H1  H2  O   H1  H2  O   H1  H2  O   H1  H2  O   H1  H2  
O   H1  H2  O   H1  H2  O   H1  H2  O   H1  H2  O   H1  H2  O   H1  H2  O   H1  
H2  O   H1  H2  O   H1  H2  O   H1  H2  O   H1  H2  O   H1  H2  O   H1  H2  O   
H1  H2  O   H1  H2  O   H1  H2  O   H1  H2  O   H1  H2  O   H1  H2  O   H1  H2  
O   H1  H2  O   H1  H2  O   H1  H2  O   H1  H2  O   H1  H2  O   H1  H2  O   H1  
H2  O   H1  H2  O   H1  H2  O   H1  H2  O   H1  H2  O   H1  H2  O   H1  H2  O   
H1  H2  O   H1  H2  O   H1  H2  O   H1  H2  O   H1  H2  O   H1  H2  O   H1  H2  
O   H1  H2  O   H1  H2  O   H1  H2  O   H1  H2  O   H1  H2  O   H1  H2  O   H1  
H2  O   H1  H2  O   H1  H2  O   H1  H2  O   H1  H2  O   H1  H2  O   H1  H2  O   
H1  H2  O   H1  H2  O   H1  H2  O   H1  H2  O   H1  H2  O   H1  H2  O   H1  H2  
O   H1  H2  O   H1  H2  O   H1  H2  O   H1  H2  O   H1  H2  O   H1  H2  O   H1  
H2  O   H1  H2  O   H1  H2  O   H1  H2  O   H1  H2  O   H1  H2  O   H1  H2  O   
H1  H2  O   H1  H2  O   H1  H2  O   H1  H2  O   H1  H2  O   H1  H2  O   H1  H2  
O   H1  H2  O   H1  H2  O   H1  H2  O   H1  H2  O   H1  H2  O   H1  H2  O   H1  
H2  O   H1  H2  O   H1  H2  O   H1  H2  O   H1  H2  O   H1  H2  O   H1  H2  O   
H1  H2  O   H1  H2  O   H1  H2  O   H1  H2  O   H1  H2  O   H1  H2  O   H1  H2  
O   H1  H2  O   H1  H2  O   H1  H2  O   H1  H2  O   H1  H2  O   H1  H2  O   H1  
H2  O   H1  H2  O   H1  H2  O   H1  H2  O   H1  H2  O   H1  H2  O   H1  H2  O   
H1  H2  O   H1  H2  O   H1  H2  O   H1  H2  O   H1  H2  O   H1  H2  O   H1  H2  
O   H1  H2  O   H1  H2  O   H1  H2  O   H1  H2  O   H1  H2  O   H1  H2  O   H1  
H2  O   H1  H2  O   H1  H2  O   H1  H2  O   H1  H2  O   H1  H2  O   H1  H2  O   
H1  H2  O   H1  H2  O   H1  H2  O   H1  H2  O   H1  H2  O   H1  H2  O   H1  H2  
O   H1  H2  O   H1  H2  O   H1  H2  O   H1  H2  O   H1  H2  O   H1  H2  O   H1  
H2  O   H1  H2  O   H1  H2  O   H1  H2  O   H1  H2  O   H1  H2  O   H1  H2  O   
H1  H2  O   H1  H2  O   H1  H2  O   H1  H2  O   H1  H2  O   H1  H2  O   H1  H2  
O   H1  H2  O   H1  H2  O   H1  H2  O   H1  H2  O   H1  H2  O   H1  H2  O   H1  
H2  O   H1  H2  O   H1  H2  O   H1  H2  O   H1  H2  O   H1  H2  O   H1  H2  O   
H1  H2  O   H1  H2  O   H1  H2  O   H1  H2  O   H1  H2  O   H1  H2  O   H1  H2  
O   H1  H2  O   H1  H2  O   H1  H2  O   H1  H2  O   H1  H2  O   H1  H2  O   H1  
H2  O   H1  H2  O   H1  H2  O   H1  H2  O   H1  H2  O   H1  H2  O   H1  H2  O   
H1  H2  O   H1  H2  O   H1  H2  O   H1  H2  O   H1  H2  O   H1  H2  O   H1  H2  
O   H1  H2  O   H1  H2  O   H1  H2  O   H1  H2  O   H1  H2  O   H1  H2  O   H1  
H2  O   H1  H2  O   H1  H2  O   H1  H2  O   H1  H2  O   H1  H2  O   H1  H2  O   
H1  H2  O   H1  H2  O   H1  H2  O   H1  H2  O   H1  H2  O   H1  H2  O   H1  H2  
O   H1  H2  O   H1  H2  O   H1  H2  O   H1  H2  O   H1  H2  O   H1  H2  O   H1  
H2  O   H1  H2  O   H1  H2  O   H1  H2  O   H1  H2  O   H1  H2  O   H1  H2  O   
H1  H2  O   H1  H2  O   H1  H2  O   H1  H2  O   H1  H2  O   H1  H2  O   H1  H2  
O   H1  H2  O   H1  H2  O   H1  H2  O   H1  H2  O   H1  H2  O   H1  H2  O   H1  
H2  O   H1  H2  O   H1  H2  O   H1  H2  O   H1  H2  O   H1  H2  O   H1  H2  O   
H1  H2  O   H1  H2  O   H1  H2  O   H1  H2  O   H1  H2  O   H1  H2  O   H1  H2  
O   H1  H2  O   H1  H2  O   H1  H2  O   H1  H2  O   H1  H2  O   H1  H2  O   H1  
H2  O   H1  H2  O   H1  H2  O   H1  H2  O   H1  H2  O   H1  H2  O   H1  H2  O   
H1  H2  O   H1  H2  O   H1  H2  O   H1  H2  O   H1  H2  O   H1  H2  O   H1  H2  
O   H1  H2  O   H1  H2  O   H1  H2  O   H1  H2  O   H1  H2  O   H1  H2  O   H1  
H2  O   H1  H2  O   H1  H2  O   H1  H2  O   H1  H2  O   H1  H2  O   H1  H2  O   
H1  H2  O   H1  H2  O   H1  H2  O   H1  H2  O   H1  H2  O   H1  H2  O   H1  H2  
O   H1  H2  O   H1  H2  O   H1  H2  O   H1  H2  O   H1  H2  O   H1  H2  O   H1  
H2  O   H1  H2  O   H1  H2  O   H1  H2  O   H1  H2  O   H1  H2  O   H1  H2  O   
H1  H2  O   H1  H2  O   H1  H2  O   H1  H2  O   H1  H2  O   H1  H2  O   H1  H2  
O   H1  H2  O   H1  H2  O   H1  H2  O   H1  H2  O   H1  H2  O   H1  H2  O   H1  
H2  O   H1  H2  O   H1  H2  O   H1  H2  O   H1  H2  O   H1  H2  O   H1  H2  O   
H1  H2  O   H1  H2  O   H1  H2  O   H1  H2  O   H1  H2  O   H1  H2  O   H1  H2  
O   H1  H2  O   H1  H2  O   H1  H2  O   H1  H2  O   H1  H2  O   H1  H2  O   H1  
H2  O   H1  H2  O   H1  H2  O   H1  H2  O   H1  H2  O   H1  H2  O   H1  H2  O   
H1  H2  O   H1  H2  O   H1  H2  O   H1  H2  O   H1  H2  O   H1  H2  O   H1  H2  
O   H1  H2  O   H1  H2  O   H1  H2  O   H1  H2  O   H1  H2  O   H1  H2  O   H1  
H2  O   H1  H2  O   H1  H2  O   H1  H2  O   H1  H2  O   H1  H2  O   H1  H2  O   
H1  H2  O   H1  H2  O   H1  H2  O   H1  H2  O   H1  H2  O   H1  H2  O   H1  H2  
O   H1  H2  O   H1  H2  O   H1  H2  O   H1  H2  O   H1  H2  O   H1  H2  O   H1  
H2  O   H1  H2  O   H1  H2  O   H1  H2  O   H1  H2  O   H1  H2  O   H1  H2  O   
H1  H2  O   H1  H2  O   H1  H2  O   H1  H2  O   H1  H2  O   H1  H2  O   H1  H2  
O   H1  H2  O   H1  H2  O   H1  H2  O   H1  H2  O   H1  H2  O   H1  H2  O   H1  
H2  O   H1  H2  O   H1  H2  O   H1  H2  O   H1  H2  O   H1  H2  O   H1  H2  O   
H1  H2  O   H1  H2  O   H1  H2  O   H1  H2  O   H1  H2  O   H1  H2  O   H1  H2  
O   H1  H2  O   H1  H2  O   H1  H2  O   H1  H2  O   H1  H2  O   H1  H2  O   H1  
H2  O   H1  H2  O   H1  H2  O   H1  H2  O   H1  H2  O   H1  H2  O   H1  H2  O   
H1  H2  O   H1  H2  O   H1  H2  O   H1  H2  O   H1  H2  O   H1  H2  O   H1  H2  
O   H1  H2  O   H1  H2  O   H1  H2  O   H1  H2  O   H1  H2  O   H1  H2  O   H1  
H2  O   H1  H2  O   H1  H2  O   H1  H2  O   H1  H2  O   H1  H2  O   H1  H2  O   
H1  H2  O   H1  H2  O   H1  H2  O   H1  H2  O   H1  H2  O   H1  H2  O   H1  H2  
O   H1  H2  O   H1  H2  O   H1  H2  O   H1  H2  O   H1  H2  O   H1  H2  O   H1  
H2  O   H1  H2  O   H1  H2  O   H1  H2  O   H1  H2  O   H1  H2  O   H1  H2  O   
H1  H2  O   H1  H2  O   H1  H2  O   H1  H2  O   H1  H2  O   H1  H2  O   H1  H2  
O   H1  H2  O   H1  H2  O   H1  H2  O   H1  H2  O   H1  H2  O   H1  H2  O   H1  
H2  O   H1  H2  O   H1  H2  O   H1  H2  O   H1  H2  O   H1  H2  O   H1  H2  O   
H1  H2  O   H1  H2  O   H1  H2  O   H1  H2  O   H1  H2  O   H1  H2  O   H1  H2  
O   H1  H2  O   H1  H2  O   H1  H2  O   H1  H2  O   H1  H2  O   H1  H2  O   H1  
H2  O   H1  H2  O   H1  H2  O   H1  H2  O   H1  H2  O   H1  H2  O   H1  H2  O   
H1  H2  O   H1  H2  O   H1  H2  O   H1  H2  O   H1  H2  O   H1  H2  O   H1  H2  
O   H1  H2  O   H1  H2  O   H1  H2  O   H1  H2  O   H1  H2  O   H1  H2  O   H1  
H2  O   H1  H2  O   H1  H2  O   H1  H2  O   H1  H2  O   H1  H2  O   H1  H2  O   
H1  H2  O   H1  H2  O   H1  H2  O   H1  H2  O   H1  H2  O   H1  H2  O   H1  H2  
O   H1  H2  O   H1  H2  O   H1  H2  O   H1  H2  O   H1  H2  O   H1  H2  O   H1  
H2  O   H1  H2  O   H1  H2  O   H1  H2  O   H1  H2  O   H1  H2  O   H1  H2  O   
H1  H2  O   H1  H2  O   H1  H2  O   H1  H2  O   H1  H2  O   H1  H2  O   H1  H2  
O   H1  H2  O   H1  H2  O   H1  H2  O   H1  H2  O   H1  H2  O   H1  H2  O   H1  
H2  O   H1  H2  O   H1  H2  O   H1  H2  O   H1  H2  O   H1  H2  O   H1  H2  O   
H1  H2  O   H1  H2  O   H1  H2  O   H1  H2  O   H1  H2  O   H1  H2  O   H1  H2  
O   H1  H2  O   H1  H2  O   H1  H2  O   H1  H2  O   H1  H2  O   H1  H2  O   H1  
H2  O   H1  H2  O   H1  H2  O   H1  H2  O   H1  H2  O   H1  H2  O   H1  H2  O   
H1  H2  O   H1  H2  O   H1  H2  O   H1  H2  O   H1  H2  O   H1  H2  O   H1  H2  
O   H1  H2  O   H1  H2  O   H1  H2  O   H1  H2  O   H1  H2  O   H1  H2  O   H1  
H2  O   H1  H2  O   H1  H2  O   H1  H2  O   H1  H2  O   H1  H2  O   H1  H2  O   
H1  H2  O   H1  H2  O   H1  H2  O   H1  H2  O   H1  H2  O   H1  H2  O   H1  H2  
O   H1  H2  O   H1  H2  O   H1  H2  O   H1  H2  O   H1  H2  O   H1  H2  O   H1  
H2  O   H1  H2  O   H1  H2  O   H1  H2  O   H1  H2  O   H1  H2  O   H1  H2  O   
H1  H2  O   H1  H2  O   H1  H2  O   H1  H2  O   H1  H2  O   H1  H2  O   H1  H2  
O   H1  H2  O   H1  H2  O   H1  H2  O   H1  H2  O   H1  H2  O   H1  H2  O   H1  
H2  O   H1  H2  O   H1  H2  O   H1  H2  O   H1  H2  O   H1  H2  O   H1  H2  O   
H1  H2  O   H1  H2  O   H1  H2  O   H1  H2  O   H1  H2  O   H1  H2  O   H1  H2  
O   H1  H2  O   H1  H2  O   H1  H2  O   H1  H2  O   H1  H2  O   H1  H2  O   H1  
H2  O   H1  H2  O   H1  H2  O   H1  H2  O   H1  H2  O   H1  H2  O   H1  H2  O   
H1  H2  O   H1  H2  O   H1  H2  O   H1  H2  O   H1  H2  O   H1  H2  O   H1  H2  
O   H1  H2  O   H1  H2  O   H1  H2  O   H1  H2  O   H1  H2  O   H1  H2  O   H1  
H2  O   H1  H2  O   H1  H2  O   H1  H2  O   H1  H2  O   H1  H2  O   H1  H2  O   
H1  H2  O   H1  H2  O   H1  H2  O   H1  H2  O   H1  H2  O   H1  H2  O   H1  H2  
O   H1  H2  O   H1  H2  O   H1  H2  O   H1  H2  O   H1  H2  O   H1  H2  O   H1  
H2  O   H1  H2  O   H1  H2  O   H1  H2  O   H1  H2  O   H1  H2  O   H1  H2  O   
H1  H2  O   H1  H2  O   H1  H2  O   H1  H2  O   H1  H2  O   H1  H2  O   H1  H2  
O   H1  H2  O   H1  H2  O   H1  H2  O   H1  H2  O   H1  H2  O   H1  H2  O   H1  
H2  O   H1  H2  O   H1  H2  O   H1  H2  O   H1  H2  O   H1  H2  O   H1  H2  O   
H1  H2  O   H1  H2  O   H1  H2  O   H1  H2  O   H1  H2  O   H1  H2  O   H1  H2  
O   H1  H2  O   H1  H2  O   H1  H2  O   H1  H2  O   H1  H2  O   H1  H2  O   H1  
H2  O   H1  H2  O   H1  H2  O   H1  H2  O   H1  H2  O   H1  H2  O   H1  H2  O   
H1  H2  O   H1  H2  O   H1  H2  O   H1  H2  O   H1  H2  O   H1  H2  O   H1  H2  
O   H1  H2  O   H1  H2  O   H1  H2  O   H1  H2  O   H1  H2  O   H1  H2  O   H1  
H2  O   H1  H2  O   H1  H2  O   H1  H2  O   H1  H2  O   H1  H2  O   H1  H2  O   
H1  H2  O   H1  H2  O   H1  H2  O   H1  H2  O   H1  H2  O   H1  H2  O   H1  H2  
O   H1  H2  O   H1  H2  O   H1  H2  O   H1  H2  O   H1  H2  O   H1  H2  O   H1  
H2  O   H1  H2  O   H1  H2  O   H1  H2  O   H1  H2  O   H1  H2  O   H1  H2  O   
H1  H2  O   H1  H2  O   H1  H2  O   H1  H2  O   H1  H2  O   H1  H2  O   H1  H2  
O   H1  H2  O   H1  H2  O   H1  H2  O   H1  H2  O   H1  H2  O   H1  H2  O   H1  
H2  O   H1  H2  O   H1  H2  O   H1  H2  O   H1  H2  O   H1  H2  O   H1  H2  O   
H1  H2  O   H1  H2  O   H1  H2  O   H1  H2  O   H1  H2  O   H1  H2  O   H1  H2  
O   H1  H2  O   H1  H2  O   H1  H2  O   H1  H2  O   H1  H2  O   H1  H2  O   H1  
H2  O   H1  H2  O   H1  H2  O   H1  H2  O   H1  H2  O   H1  H2  O   H1  H2  O   
H1  H2  O   H1  H2  O   H1  H2  O   H1  H2  O   H1  H2  O   H1  H2  O   H1  H2  
O   H1  H2  O   H1  H2  O   H1  H2  O   H1  H2  O   H1  H2  O   H1  H2  O   H1  
H2  O   H1  H2  O   H1  H2  O   H1  H2  O   H1  H2  O   H1  H2  O   H1  H2  O   
H1  H2  O   H1  H2  O   H1  H2  O   H1  H2  O   H1  H2  O   H1  H2  O   H1  H2  
O   H1  H2  O   H1  H2  O   H1  H2  O   H1  H2  O   H1  H2  O   H1  H2  O   H1  
H2  O   H1  H2  O   H1  H2  O   H1  H2  O   H1  H2  O   H1  H2  O   H1  H2  O   
H1  H2  O   H1  H2  O   H1  H2  O   H1  H2  O   H1  H2  O   H1  H2  O   H1  H2  
O   H1  H2  O   H1  H2  O   H1  H2  O   H1  H2  O   H1  H2  O   H1  H2  O   H1  
H2  O   H1  H2  O   H1  H2  O   H1  H2  O   H1  H2  O   H1  H2  O   H1  H2  O   
H1  H2  O   H1  H2  O   H1  H2  O   H1  H2  O   H1  H2  O   H1  H2  O   H1  H2  
O   H1  H2  O   H1  H2  O   H1  H2  O   H1  H2  O   H1  H2  O   H1  H2  O   H1  
H2  O   H1  H2  O   H1  H2  O   H1  H2  O   H1  H2  O   H1  H2  O   H1  H2  O   
H1  H2  O   H1  H2  O   H1  H2  O   H1  H2  O   H1  H2  O   H1  H2  O   H1  H2  
O   H1  H2  O   H1  H2  O   H1  H2  O   H1  H2  O   H1  H2  O   H1  H2  O   H1  
H2  O   H1  H2  O   H1  H2  O   H1  H2  O   H1  H2  O   H1  H2  O   H1  H2  O   
H1  H2  O   H1  H2  O   H1  H2  O   H1  H2  O   H1  H2  O   H1  H2  O   H1  H2  
O   H1  H2  O   H1  H2  O   H1  H2  O   H1  H2  O   H1  H2  O   H1  H2  O   H1  
H2  O   H1  H2  O   H1  H2  O   H1  H2  O   H1  H2  O   H1  H2  O   H1  H2  O   
H1  H2  O   H1  H2  O   H1  H2  O   H1  H2  O   H1  H2  O   H1  H2  O   H1  H2  
O   H1  H2  O   H1  H2  O   H1  H2  O   H1  H2  O   H1  H2  O   H1  H2  O   H1  
H2  O   H1  H2  O   H1  H2  O   H1  H2  O   H1  H2  O   H1  H2  O   H1  H2  O   
H1  H2  O   H1  H2  O   H1  H2  O   H1  H2  O   H1  H2  O   H1  H2  O   H1  H2  
O   H1  H2  O   H1  H2  O   H1  H2  O   H1  H2  O   H1  H2  O   H1  H2  O   H1  
H2  O   H1  H2  O   H1  H2  O   H1  H2  O   H1  H2  O   H1  H2  O   H1  H2  O   
H1  H2  O   H1  H2  O   H1  H2  O   H1  H2  O   H1  H2  O   H1  H2  O   H1  H2  
O   H1  H2  O   H1  H2  O   H1  H2  O   H1  H2  O   H1  H2  O   H1  H2  O   H1  
H2  O   H1  H2  O   H1  H2  O   H1  H2  O   H1  H2  O   H1  H2  O   H1  H2  O   
H1  H2  O   H1  H2  O   H1  H2  O   H1  H2  O   H1  H2  O   H1  H2  O   H1  H2  
O   H1  H2  O   H1  H2  O   H1  H2  O   H1  H2  O   H1  H2  O   H1  H2  O   H1  
H2  O   H1  H2  O   H1  H2  O   H1  H2  O   H1  H2  O   H1  H2  O   H1  H2  O   
H1  H2  O   H1  H2  O   H1  H2  O   H1  H2  O   H1  H2  O   H1  H2  O   H1  H2  
O   H1  H2  O   H1  H2  O   H1  H2  O   H1  H2  O   H1  H2  O   H1  H2  O   H1  
H2  O   H1  H2  O   H1  H2  O   H1  H2  O   H1  H2  O   H1  H2  O   H1  H2  O   
H1  H2  O   H1  H2  O   H1  H2  O   H1  H2  O   H1  H2  O   H1  H2  O   H1  H2  
O   H1  H2  O   H1  H2  O   H1  H2  O   H1  H2  O   H1  H2  O   H1  H2  O   H1  
H2  O   H1  H2  O   H1  H2  O   H1  H2  O   H1  H2  O   H1  H2  O   H1  H2  O   
H1  H2  O   H1  H2  O   H1  H2  O   H1  H2  O   H1  H2  O   H1  H2  O   H1  H2  
O   H1  H2  O   H1  H2  O   H1  H2  O   H1  H2  O   H1  H2  O   H1  H2  O   H1  
H2  O   H1  H2  O   H1  H2  O   H1  H2  O   H1  H2  O   H1  H2  O   H1  H2  O   
H1  H2  O   H1  H2  O   H1  H2  O   H1  H2  O   H1  H2  O   H1  H2  O   H1  H2  
O   H1  H2  O   H1  H2  O   H1  H2  O   H1  H2  O   H1  H2  O   H1  H2  O   H1  
H2  O   H1  H2  O   H1  H2  O   H1  H2  O   H1  H2  O   H1  H2  O   H1  H2  O   
H1  H2  O   H1  H2  O   H1  H2  O   H1  H2  O   H1  H2  O   H1  H2  O   H1  H2  
O   H1  H2  O   H1  H2  O   H1  H2  O   H1  H2  O   H1  H2  O   H1  H2  O   H1  
H2  O   H1  H2  O   H1  H2  O   H1  H2  O   H1  H2  O   H1  H2  O   H1  H2  O   
H1  H2  O   H1  H2  O   H1  H2  O   H1  H2  O   H1  H2  O   H1  H2  O   H1  H2  
O   H1  H2  O   H1  H2  O   H1  H2  O   H1  H2  O   H1  H2  O   H1  H2  O   H1  
H2  O   H1  H2  O   H1  H2  O   H1  H2  O   H1  H2  O   H1  H2  O   H1  H2  O   
H1  H2  O   H1  H2  O   H1  H2  O   H1  H2  O   H1  H2  O   H1  H2  O   H1  H2  
O   H1  H2  O   H1  H2  O   H1  H2  O   H1  H2  O   H1  H2  O   H1  H2  O   H1  
H2  O   H1  H2  O   H1  H2  O   H1  H2  O   H1  H2  O   H1  H2  O   H1  H2  O   
H1  H2  O   H1  H2  O   H1  H2  O   H1  H2  O   H1  H2  O   H1  H2  O   H1  H2  
O   H1  H2  O   H1  H2  O   H1  H2  O   H1  H2  O   H1  H2  O   H1  H2  O   H1  
H2  O   H1  H2  O   H1  H2  O   H1  H2  O   H1  H2  O   H1  H2  O   H1  H2  O   
H1  H2  O   H1  H2  O   H1  H2  O   H1  H2  O   H1  H2  O   H1  H2  O   H1  H2  
O   H1  H2  O   H1  H2  O   H1  H2  O   H1  H2  O   H1  H2  O   H1  H2  O   H1  
H2  O   H1  H2  O   H1  H2  O   H1  H2  O   H1  H2  O   H1  H2  O   H1  H2  O   
H1  H2  O   H1  H2  O   H1  H2  O   H1  H2  O   H1  H2  O   H1  H2  O   H1  H2  
O   H1  H2  O   H1  H2  O   H1  H2  O   H1  H2  O   H1  H2  O   H1  H2  O   H1  
H2  O   H1  H2  O   H1  H2  O   H1  H2  O   H1  H2  O   H1  H2  O   H1  H2  O   
H1  H2  O   H1  H2  O   H1  H2  O   H1  H2  O   H1  H2  O   H1  H2  O   H1  H2  
O   H1  H2  O   H1  H2  O   H1  H2  O   H1  H2  O   H1  H2  O   H1  H2  O   H1  
H2  O   H1  H2  O   H1  H2  O   H1  H2  O   H1  H2  O   H1  H2  O   H1  H2  O   
H1  H2  O   H1  H2  O   H1  H2  O   H1  H2  O   H1  H2  O   H1  H2  O   H1  H2  
O   H1  H2  O   H1  H2  O   H1  H2  O   H1  H2  O   H1  H2  O   H1  H2  O   H1  
H2  O   H1  H2  O   H1  H2  O   H1  H2  O   H1  H2  O   H1  H2  O   H1  H2  O   
H1  H2  O   H1  H2  O   H1  H2  O   H1  H2  O   H1  H2  O   H1  H2  O   H1  H2  
O   H1  H2  O   H1  H2  O   H1  H2  O   H1  H2  O   H1  H2  O   H1  H2  O   H1  
H2  O   H1  H2  O   H1  H2  O   H1  H2  O   H1  H2  O   H1  H2  O   H1  H2  O   
H1  H2  O   H1  H2  O   H1  H2  O   H1  H2  O   H1  H2  O   H1  H2  O   H1  H2  
O   H1  H2  O   H1  H2  O   H1  H2  O   H1  H2  O   H1  H2  O   H1  H2  O   H1  
H2  O   H1  H2  O   H1  H2  O   H1  H2  O   H1  H2  O   H1  H2  O   H1  H2  O   
H1  H2  O   H1  H2  O   H1  H2  O   H1  H2  O   H1  H2  O   H1  H2  O   H1  H2  
O   H1  H2  O   H1  H2  O   H1  H2  O   H1  H2  O   H1  H2  O   H1  H2  O   H1  
H2  O   H1  H2  O   H1  H2  O   H1  H2  O   H1  H2  O   H1  H2  O   H1  H2  O   
H1  H2  O   H1  H2  O   H1  H2  O   H1  H2  O   H1  H2  O   H1  H2  O   H1  H2  
O   H1  H2  O   H1  H2  O   H1  H2  O   H1  H2  O   H1  H2  O   H1  H2  O   H1  
H2  O   H1  H2  O   H1  H2  O   H1  H2  O   H1  H2  O   H1  H2  O   H1  H2  O   
H1  H2  O   H1  H2  O   H1  H2  O   H1  H2  O   H1  H2  O   H1  H2  O   H1  H2  
O   H1  H2  O   H1  H2  O   H1  H2  O   H1  H2  O   H1  H2  O   H1  H2  O   H1  
H2  O   H1  H2  O   H1  H2  O   H1  H2  O   H1  H2  O   H1  H2  O   H1  H2  O   
H1  H2  O   H1  H2  O   H1  H2  O   H1  H2  O   H1  H2  O   H1  H2  O   H1  H2  
O   H1  H2  O   H1  H2  O   H1  H2  O   H1  H2  O   H1  H2  O   H1  H2  O   H1  
H2  O   H1  H2  O   H1  H2  O   H1  H2  O   H1  H2  O   H1  H2  O   H1  H2  O   
H1  H2  O   H1  H2  O   H1  H2  O   H1  H2  O   H1  H2  O   H1  H2  O   H1  H2  
O   H1  H2  O   H1  H2  O   H1  H2  O   H1  H2  O   H1  H2  O   H1  H2  O   H1  
H2  O   H1  H2  O   H1  H2  O   H1  H2  O   H1  H2  O   H1  H2  O   H1  H2  O   
H1  H2  O   H1  H2  O   H1  H2  O   H1  H2  O   H1  H2  O   H1  H2  O   H1  H2  
O   H1  H2  O   H1  H2  O   H1  H2  O   H1  H2  O   H1  H2  O   H1  H2  O   H1  
H2  O   H1  H2  O   H1  H2  O   H1  H2  O   H1  H2  O   H1  H2  O   H1  H2  O   
H1  H2  O   H1  H2  O   H1  H2  O   H1  H2  O   H1  H2  O   H1  H2  O   H1  H2  
O   H1  H2  O   H1  H2  O   H1  H2  O   H1  H2  O   H1  H2  O   H1  H2  O   H1  
H2  O   H1  H2  O   H1  H2  O   H1  H2  O   H1  H2  O   H1  H2  O   H1  H2  O   
H1  H2  O   H1  H2  O   H1  H2  O   H1  H2  O   H1  H2  O   H1  H2  O   H1  H2  
O   H1  H2  O   H1  H2  O   H1  H2  O   H1  H2  O   H1  H2  O   H1  H2  O   H1  
H2  O   H1  H2  O   H1  H2  O   H1  H2  O   H1  H2  O   H1  H2  O   H1  H2  O   
H1  H2  O   H1  H2  O   H1  H2  O   H1  H2  O   H1  H2  O   H1  H2  O   H1  H2  
O   H1  H2  O   H1  H2  O   H1  H2  O   H1  H2  O   H1  H2  O   H1  H2  O   H1  
H2  O   H1  H2  O   H1  H2  O   H1  H2  O   H1  H2  O   H1  H2  O   H1  H2  O   
H1  H2  O   H1  H2  O   H1  H2  O   H1  H2  O   H1  H2  O   H1  H2  O   H1  H2  
O   H1  H2  O   H1  H2  O   H1  H2  O   H1  H2  O   H1  H2  O   H1  H2  O   H1  
H2  O   H1  H2  O   H1  H2  O   H1  H2  O   H1  H2  O   H1  H2  O   H1  H2  O   
H1  H2  O   H1  H2  O   H1  H2  O   H1  H2  O   H1  H2  O   H1  H2  O   H1  H2  
O   H1  H2  O   H1  H2  O   H1  H2  O   H1  H2  O   H1  H2  O   H1  H2  O   H1  
H2  O   H1  H2  O   H1  H2  O   H1  H2  O   H1  H2  O   H1  H2  O   H1  H2  O   
H1  H2  O   H1  H2  O   H1  H2  O   H1  H2  O   H1  H2  O   H1  H2  O   H1  H2  
O   H1  H2  O   H1  H2  O   H1  H2  O   H1  H2  O   H1  H2  O   H1  H2  O   H1  
H2  O   H1  H2  O   H1  H2  O   H1  H2  O   H1  H2  O   H1  H2  O   H1  H2  O   
H1  H2  O   H1  H2  O   H1  H2  O   H1  H2  O   H1  H2  O   H1  H2  O   H1  H2  
O   H1  H2  O   H1  H2  O   H1  H2  O   H1  H2  O   H1  H2  O   H1  H2  O   H1  
H2  O   H1  H2  O   H1  H2  O   H1  H2  O   H1  H2  O   H1  H2  O   H1  H2  O   
H1  H2  O   H1  H2  O   H1  H2  O   H1  H2  O   H1  H2  O   H1  H2  O   H1  H2  
O   H1  H2  O   H1  H2  O   H1  H2  O   H1  H2  O   H1  H2  O   H1  H2  O   H1  
H2  O   H1  H2  O   H1  H2  O   H1  H2  O   H1  H2  O   H1  H2  O   H1  H2  O   
H1  H2  O   H1  H2  O   H1  H2  O   H1  H2  O   H1  H2  O   H1  H2  O   H1  H2  
O   H1  H2  O   H1  H2  O   H1  H2  O   H1  H2  O   H1  H2  O   H1  H2  O   H1  
H2  O   H1  H2  O   H1  H2  O   H1  H2  O   H1  H2  O   H1  H2  O   H1  H2  O   
H1  H2  O   H1  H2  O   H1  H2  O   H1  H2  O   H1  H2  O   H1  H2  O   H1  H2  
O   H1  H2  O   H1  H2  O   H1  H2  O   H1  H2  O   H1  H2  O   H1  H2  O   H1  
H2  O   H1  H2  O   H1  H2  O   H1  H2  O   H1  H2  O   H1  H2  O   H1  H2  O   
H1  H2  O   H1  H2  O   H1  H2  O   H1  H2  O   H1  H2  O   H1  H2  O   H1  H2  
O   H1  H2  O   H1  H2  O   H1  H2  O   H1  H2  O   H1  H2  O   H1  H2  O   H1  
H2  O   H1  H2  O   H1  H2  O   H1  H2  O   H1  H2  O   H1  H2  O   H1  H2  O   
H1  H2  O   H1  H2  O   H1  H2  O   H1  H2  O   H1  H2  O   H1  H2  O   H1  H2  
O   H1  H2  O   H1  H2  O   H1  H2  O   H1  H2  O   H1  H2  O   H1  H2  O   H1  
H2  O   H1  H2  O   H1  H2  O   H1  H2  O   H1  H2  O   H1  H2  O   H1  H2  O   
H1  H2  O   H1  H2  O   H1  H2  O   H1  H2  O   H1  H2  O   H1  H2  O   H1  H2  
O   H1  H2  O   H1  H2  O   H1  H2  O   H1  H2  O   H1  H2  O   H1  H2  O   H1  
H2  O   H1  H2  O   H1  H2  O   H1  H2  O   H1  H2  O   H1  H2  O   H1  H2  O   
H1  H2  O   H1  H2  O   H1  H2  O   H1  H2  O   H1  H2  O   H1  H2  O   H1  H2  
O   H1  H2  O   H1  H2  O   H1  H2  O   H1  H2  O   H1  H2  O   H1  H2  O   H1  
H2  O   H1  H2  O   H1  H2  O   H1  H2  O   H1  H2  O   H1  H2  O   H1  H2  O   
H1  H2  O   H1  H2  O   H1  H2  O   H1  H2  O   H1  H2  O   H1  H2  O   H1  H2  
O   H1  H2  O   H1  H2  O   H1  H2  O   H1  H2  O   H1  H2  O   H1  H2  O   H1  
H2  O   H1  H2  O   H1  H2  O   H1  H2  O   H1  H2  O   H1  H2  O   H1  H2  O   
H1  H2  O   H1  H2  O   H1  H2  O   H1  H2  O   H1  H2  O   H1  H2  O   H1  H2  
O   H1  H2  O   H1  H2  O   H1  H2  O   H1  H2  O   H1  H2  O   H1  H2  O   H1  
H2  O   H1  H2  O   H1  H2  O   H1  H2  O   H1  H2  O   H1  H2  O   H1  H2  O   
H1  H2  O   H1  H2  O   H1  H2  O   H1  H2  O   H1  H2  O   H1  H2  O   H1  H2  
O   H1  H2  O   H1  H2  O   H1  H2  O   H1  H2  O   H1  H2  O   H1  H2  O   H1  
H2  O   H1  H2  O   H1  H2  O   H1  H2  O   H1  H2  O   H1  H2  O   H1  H2  O   
H1  H2  O   H1  H2  O   H1  H2  O   H1  H2  O   H1  H2  O   H1  H2  O   H1  H2  
%FLAG CHARGE
%FORMAT(5E16.8)
  5.36282289E+00  2.99210166E+00  2.99210166E+00  2.99210166E+00 -1.82223000E-01
  1.63089585E+00  1.63089585E+00  1.12304035E+01 -1.04268001E+01 -7.57501011E+00
  4.95464337E+00 -1.08787131E+00  1.58351787E+00  2.37436569E+00  3.40757010E-01
 -5.83842492E+00  1.60720686E+00  1.60720686E+00  1.60720686E+00 -7.83558900E-01
  4.30046280E-01  4.30046280E-01 -1.20267180E+00  3.38934780E-01  3.38934780E-01
  3.38934780E-01  1.08841798E+01 -1.03484442E+01 -7.57501011E+00  4.95464337E+00
 -1.59445125E+00  1.76574087E+00  5.43935655E+00 -5.41202310E-01 -5.81655816E+00
  1.44138393E+00  1.44138393E+00  1.44138393E+00 -5.81655816E+00  1.44138393E+00
  1.44138393E+00  1.44138393E+00  1.08841798E+01 -1.03484442E+01 -9.40817349E+00
  5.35006728E+00  7.23425310E-01  2.01356415E+00  1.02044880E+00 -3.15245790E-01
 -3.15245790E-01  2.47823280E-01 -7.74447750E-01 -7.74447750E-01  1.46762404E+01
 -1.49204192E+01 -1.49204192E+01  0.00000000E+00  9.77808618E+00 -1.06035564E+01
  0.00000000E+00  0.00000000E+00  0.00000000E+00 -7.57501011E+00  4.95464337E+00
 -5.64891300E-02  1.54889550E+00 -6.56002800E-02  3.11601330E-01  3.11601330E-01
 -1.17533835E+00  6.41424960E-01  6.41424960E-01  1.26663207E+01 -1.10900918E+01
 -1.71417176E+01  7.74629973E+00  7.74629973E+00  1.08841798E+01 -1.03484442E+01
 -7.57501011E+00  4.95464337E+00  7.81736670E-01  1.39582818E+00 -1.43956170E+00
  1.65822930E+00  1.65822930E+00 -1.96983063E+00  1.08841798E+01 -1.03484442E+01
 -7.57501011E+00  4.95464337E+00  7.81736670E-01  1.39582818E+00 -1.43956170E+00
  1.65822930E+00  1.65822930E+00 -1.96983063E+00  1.08841798E+01 -1.03484442E+01
 -7.57501011E+00  4.95464337E+00 -7.08847470E-01  1.83498561E+00  6.65842842E+00
  7.83558900E-02 -4.44259674E+00  1.16987166E+00  1.16987166E+00  1.16987166E+00
 -1.23200970E+01  7.47478746E+00  1.08841798E+01 -1.03484442E+01 -7.57501011E+00
  4.95464337E+00 -4.53735270E-01  1.53613989E+00  3.85766091E+00  6.41424960E-01
  6.41424960E-01 -1.19283176E+01  7.79003325E+00  1.08841798E+01 -1.03484442E+01
 -7.57501011E+00  4.95464337E+00 -1.08787131E+00  1.58351787E+00  2.37436569E+00
  3.40757010E-01 -5.83842492E+00  1.60720686E+00  1.60720686E+00  1.60720686E+00
 -7.83558900E-01  4.30046280E-01  4.30046280E-01 -1.20267180E+00  3.38934780E-01
  3.38934780E-01  3.38934780E-01  1.08841798E+01 -1.03484442E+01 -7.57501011E+00
  4.95464337E+00  7.81736670E-01  1.39582818E+00 -1.43956170E+00  1.65822930E+00
  1.65822930E+00 -1.96983063E+00  1.08841798E+01 -1.03484442E+01 -7.57501011E+00
  4.95464337E+00 -4.53735270E-01  1.53613989E+00  3.85766091E+00  6.41424960E-01
  6.41424960E-01 -1.19283176E+01  7.79003325E+00  1.08841798E+01 -1.03484442E+01
 -7.57501011E+00  4.95464337E+00 -9.43915140E-01  1.68009606E+00 -2.00809746E+00
  8.32759110E-01  8.32759110E-01  6.43429413E+00 -6.57825030E-01 -7.50940983E+00
  1.82223000E+00  1.82223000E+00  1.82223000E+00 -7.50940983E+00  1.82223000E+00
  1.82223000E+00  1.82223000E+00  1.08841798E+01 -1.03484442E+01 -7.57501011E+00
  4.95464337E+00 -2.55112200E-02  1.59627348E+00 -2.76978960E-01  5.37557850E-01
  5.37557850E-01 -2.00445300E-02 -3.47317038E+00  3.09596877E+00 -4.26584043E+00
  3.01761288E+00  5.87851398E+00 -1.01662212E+01  7.27434216E+00 -4.26584043E+00
  3.01761288E+00 -3.47317038E+00  3.09596877E+00  1.08841798E+01 -1.03484442E+01
 -7.57501011E+00  4.95464337E+00 -5.64891300E-02  1.54889550E+00 -6.56002800E-02
  3.11601330E-01  3.11601330E-01 -1.17533835E+00  6.41424960E-01  6.41424960E-01
  1.26663207E+01 -1.10900918E+01 -1.71417176E+01  7.74629973E+00  7.74629973E+00
  1.08841798E+01 -1.03484442E+01 -7.57501011E+00  4.95464337E+00 -9.43915140E-01
  1.68009606E+00 -2.00809746E+00  8.32759110E-01  8.32759110E-01  6.43429413E+00
 -6.57825030E-01 -7.50940983E+00  1.82223000E+00  1.82223000E+00  1.82223000E+00
 -7.50940983E+00  1.82223000E+00  1.82223000E+00  1.82223000E+00  1.08841798E+01
 -1.03484442E+01 -9.40817349E+00  5.35006728E+00  7.23425310E-01  2.01356415E+00
  1.02044880E+00 -3.15245790E-01 -3.15245790E-01  2.47823280E-01 -7.74447750E-01
 -7.74447750E-01  1.46762404E+01 -1.49204192E+01 -1.49204192E+01  0.00000000E+00
  9.77808618E+00 -1.06035564E+01  0.00000000E+00  0.00000000E+00  0.00000000E+00
 -7.57501011E+00  4.95464337E+00  2.60578890E-01  1.90969704E+00 -3.71917143E+00
  1.45231731E+00  1.45231731E+00  1.29924999E+01 -1.08076461E+01 -1.67481159E+01
  7.64607708E+00  7.64607708E+00  1.08841798E+01 -1.03484442E+01 -7.57501011E+00
  4.95464337E+00 -2.55112200E-02  1.59627348E+00 -2.76978960E-01  5.37557850E-01
  5.37557850E-01 -2.00445300E-02 -3.47317038E+00  3.09596877E+00 -4.26584043E+00
  3.01761288E+00  5.87851398E+00 -1.01662212E+01  7.27434216E+00 -4.26584043E+00
  3.01761288E+00 -3.47317038E+00  3.09596877E+00  1.08841798E+01 -1.03484442E+01
 -7.57501011E+00  4.95464337E+00  7.81736670E-01  1.39582818E+00 -1.43956170E+00
  1.65822930E+00  1.65822930E+00 -1.96983063E+00  1.08841798E+01 -1.03484442E+01
 -6.96274083E+00  4.88539863E+00 -3.79023840E+00  2.47458834E+00 -4.18930677E+00
  1.86414129E+00  1.86414129E+00  1.30344112E+01 -1.09516023E+01 -1.65531373E+01
  7.56225450E+00  7.56225450E+00  1.46689515E+01 -1.48457078E+01 -1.48457078E+01
  3.16521351E+00  3.50050383E+00  3.50050383E+00  3.50050383E+00  1.33569459E+00
  1.89694143E+00  6.01335900E-01  1.89511920E-01  1.89511920E-01  5.64891300E-02
 -2.53654416E+00  2.50374402E+00 -2.91921246E+00  2.61125559E+00 -2.20125384E+00
  2.42174367E+00 -2.92103469E+00  2.61125559E+00 -2.53472193E+00  2.50374402E+00
  1.11575143E+01 -1.04104000E+01 -7.57501011E+00  4.95464337E+00 -1.59445125E+00
  1.76574087E+00  5.43935655E+00 -5.41202310E-01 -5.81655816E+00  1.44138393E+00
  1.44138393E+00  1.44138393E+00 -5.81655816E+00  1.44138393E+00  1.44138393E+00
  1.44138393E+00  1.08841798E+01 -1.03484442E+01 -7.57501011E+00  4.95464337E+00
  2.60578890E-01  1.90969704E+00 -3.71917143E+00  1.45231731E+00  1.45231731E+00
  1.29924999E+01 -1.08076461E+01 -1.67481159E+01  7.64607708E+00  7.64607708E+00
  1.08841798E+01 -1.03484442E+01 -7.57501011E+00  4.95464337E+00 -5.64891300E-02
  1.54889550E+00 -6.56002800E-02  3.11601330E-01  3.11601330E-01 -1.17533835E+00
  6.41424960E-01  6.41424960E-01  1.26663207E+01 -1.10900918E+01 -1.71417176E+01
  7.74629973E+00  7.74629973E+00  1.08841798E+01 -1.03484442E+01 -6.33953817E+00
  5.00566581E+00 -2.46729942E+00  2.20854276E+00 -7.54403220E-01  1.47600630E+00
  1.47600630E+00 -2.18667600E-02 -2.75703399E+00  7.04474118E+00 -3.09779100E-01
  4.88539863E+00 -3.13059114E+00  7.12674153E+00 -2.07916443E+00  4.22210691E+00
  1.33769904E+01 -1.07402236E+01 -7.57501011E+00  4.95464337E+00 -9.43915140E-01
  1.68009606E+00 -2.00809746E+00  8.32759110E-01  8.32759110E-01  6.43429413E+00
 -6.57825030E-01 -7.50940983E+00  1.82223000E+00  1.82223000E+00  1.82223000E+00
 -7.50940983E+00  1.82223000E+00  1.82223000E+00  1.82223000E+00  1.08841798E+01
 -1.03484442E+01 -7.57501011E+00  4.95464337E+00  7.81736670E-01  1.39582818E+00
 -1.43956170E+00  1.65822930E+00  1.65822930E+00 -1.96983063E+00  1.08841798E+01
 -1.03484442E+01 -7.57501011E+00  4.95464337E+00 -4.59201960E-01  1.27191654E+00
  1.27191654E+00  1.08841798E+01 -1.03484442E+01 -7.57501011E+00  4.95464337E+00
 -4.53735270E-01  1.53613989E+00  3.85766091E+00  6.41424960E-01  6.41424960E-01
 -1.19283176E+01  7.79003325E+00  1.08841798E+01 -1.03484442E+01 -6.33953817E+00
  5.00566581E+00 -2.46729942E+00  2.20854276E+00 -7.54403220E-01  1.47600630E+00
  1.47600630E+00 -2.18667600E-02 -2.75703399E+00  7.04474118E+00 -3.09779100E-01
  4.88539863E+00 -3.13059114E+00  7.12674153E+00 -2.07916443E+00  4.22210691E+00
  1.33769904E+01 -1.07402236E+01 -7.57501011E+00  4.95464337E+00 -9.43915140E-01
  1.68009606E+00 -2.00809746E+00  8.32759110E-01  8.32759110E-01  6.43429413E+00
 -6.57825030E-01 -7.50940983E+00  1.82223000E+00  1.82223000E+00  1.82223000E+00
 -7.50940983E+00  1.82223000E+00  1.82223000E+00  1.82223000E+00  1.08841798E+01
 -1.03484442E+01 -7.57501011E+00  4.95464337E+00 -1.59445125E+00  1.76574087E+00
  5.43935655E+00 -5.41202310E-01 -5.81655816E+00  1.44138393E+00  1.44138393E+00
  1.44138393E+00 -5.81655816E+00  1.44138393E+00  1.44138393E+00  1.44138393E+00
  1.08841798E+01 -1.03484442E+01 -9.40817349E+00  5.35006728E+00  7.23425310E-01
  2.01356415E+00  1.02044880E+00 -3.15245790E-01 -3.15245790E-01  2.47823280E-01
 -7.74447750E-01 -7.74447750E-01  1.46762404E+01 -1.49204192E+01 -1.49204192E+01
  0.00000000E+00  9.77808618E+00 -1.06035564E+01  0.00000000E+00  0.00000000E+00
  0.00000000E+00 -7.57501011E+00  4.95464337E+00  6.14091510E-01  1.49969529E+00
 -3.32556975E+00  1.09880469E+00  1.09880469E+00  1.09880469E+00  1.08841798E+01
 -1.03484442E+01 -7.57501011E+00  4.95464337E+00 -9.43915140E-01  1.68009606E+00
 -2.00809746E+00  8.32759110E-01  8.32759110E-01  6.43429413E+00 -6.57825030E-01
 -7.50940983E+00  1.82223000E+00  1.82223000E+00  1.82223000E+00 -7.50940983E+00
  1.82223000E+00  1.82223000E+00  1.82223000E+00  1.08841798E+01 -1.03484442E+01
 -7.57501011E+00  4.95464337E+00 -2.55112200E-02  1.59627348E+00 -2.76978960E-01
  5.37557850E-01  5.37557850E-01 -2.00445300E-02 -3.47317038E+00  3.09596877E+00
 -4.26584043E+00  3.01761288E+00  5.87851398E+00 -1.01662212E+01  7.27434216E+00
 -4.26584043E+00  3.01761288E+00 -3.47317038E+00  3.09596877E+00  1.08841798E+01
 -1.03484442E+01 -7.57501011E+00  4.95464337E+00 -9.43915140E-01  1.68009606E+00
 -2.00809746E+00  8.32759110E-01  8.32759110E-01  6.43429413E+00 -6.57825030E-01
 -7.50940983E+00  1.82223000E+00  1.82223000E+00  1.82223000E+00 -7.50940983E+00
  1.82223000E+00  1.82223000E+00  1.82223000E+00  1.08841798E+01 -1.03484442E+01
 -7.57501011E+00  4.95464337E+00 -1.59445125E+00  1.76574087E+00  5.43935655E+00
 -5.41202310E-01 -5.81655816E+00  1.44138393E+00  1.44138393E+00  1.44138393E+00
 -5.81655816E+00  1.44138393E+00  1.44138393E+00  1.44138393E+00  1.08841798E+01
 -1.03484442E+01 -7.57501011E+00  4.95464337E+00  7.81736670E-01  1.39582818E+00
 -1.43956170E+00  1.65822930E+00  1.65822930E+00 -1.96983063E+00  1.08841798E+01
 -1.03484442E+01 -7.57501011E+00  4.95464337E+00 -4.59201960E-01  1.27191654E+00
  1.27191654E+00  1.08841798E+01 -1.03484442E+01 -9.40817349E+00  5.35006728E+00
  7.23425310E-01  2.01356415E+00  1.02044880E+00 -3.15245790E-01 -3.15245790E-01
  2.47823280E-01 -7.74447750E-01 -7.74447750E-01  1.46762404E+01 -1.49204192E+01
 -1.49204192E+01  0.00000000E+00  9.77808618E+00 -1.06035564E+01  0.00000000E+00
  0.00000000E+00  0.00000000E+00 -6.33953817E+00  5.00566581E+00 -4.80522051E+00
  2.84267880E+00 -1.27556100E-02  5.95869210E-01  5.95869210E-01  7.10669700E-01
  5.19335550E-01  5.19335550E-01  8.85603780E-01  1.25187201E+00  1.25187201E+00
 -9.64870785E+00  6.29762688E+00  1.47163295E+01 -1.57203782E+01  8.15994594E+00
  8.15994594E+00 -1.57203782E+01  8.15994594E+00  8.15994594E+00  1.33769904E+01
 -1.07402236E+01 -7.57501011E+00  4.95464337E+00 -4.59201960E-01  1.27191654E+00
  1.27191654E+00  1.08841798E+01 -1.03484442E+01 -7.57501011E+00  4.95464337E+00
 -4.37335200E-02  1.78214094E+00 -6.25024890E-01  5.37557850E-01  5.37557850E-01
  2.15023140E-01 -2.28872088E+00  2.42356590E+00 -3.10507992E+00  2.60578890E+00
 -1.95343056E+00  2.36343231E+00 -3.10507992E+00  2.60578890E+00 -2.28872088E+00
  2.42356590E+00  1.08841798E+01 -1.03484442E+01 -7.57501011E+00  4.95464337E+00
 -4.37335200E-02  1.78214094E+00 -6.25024890E-01  5.37557850E-01  5.37557850E-01
  2.15023140E-01 -2.28872088E+00  2.42356590E+00 -3.10507992E+00  2.60578890E+00
 -1.95343056E+00  2.36343231E+00 -3.10507992E+00  2.60578890E+00 -2.28872088E+00
  2.42356590E+00  1.08841798E+01 -1.03484442E+01 -7.57501011E+00  4.95464337E+00
 -2.55112200E-02  1.59627348E+00 -2.76978960E-01  5.37557850E-01  5.37557850E-01
 -2.00445300E-02 -3.47317038E+00  3.09596877E+00 -4.26584043E+00  3.01761288E+00
  5.87851398E+00 -1.01662212E+01  7.27434216E+00 -4.26584043E+00  3.01761288E+00
 -3.47317038E+00  3.09596877E+00  1.08841798E+01 -1.03484442E+01 -7.57501011E+00
  4.95464337E+00 -7.08847470E-01  1.83498561E+00  6.65842842E+00  7.83558900E-02
 -4.44259674E+00  1.16987166E+00  1.16987166E+00  1.16987166E+00 -1.23200970E+01
  7.47478746E+00  1.08841798E+01 -1.03484442E+01 -4.64304204E+00  3.49868160E-01
  7.12491930E-01  7.12491930E-01  3.44401470E-01  3.88134990E-01  3.88134990E-01
 -1.27556100E-01  4.61024190E-01  4.61024190E-01 -4.84713180E-01  1.16804943E+00
  1.07438681E+01 -1.04741780E+01 -6.33953817E+00  5.00566581E+00 -4.37335200E+00
  2.59849998E+00 -1.71289620E-01  6.59647260E-01  6.59647260E-01  3.40757010E-01
  1.87689690E-01  1.87689690E-01 -8.72848170E-01  1.13160483E+00  1.13160483E+00
 -2.60578890E-01  2.06823105E+00  2.06823105E+00 -7.02287442E+00  6.19558200E+00
  6.19558200E+00  6.19558200E+00  1.33769904E+01 -1.07402236E+01 -6.96274083E+00
  4.88539863E+00 -3.18343581E+00  1.94431941E+00 -3.81392739E+00  1.39218372E+00
  1.39218372E+00  1.39218372E+00  1.40876601E+01 -1.46780627E+01 -1.46780627E+01
 -1.51973982E+01  7.59869910E+00  7.59869910E+00 -1.51973982E+01  7.59869910E+00
  7.59869910E+00 -1.51973982E+01  7.59869910E+00  7.59869910E+00 -1.51973982E+01
  7.59869910E+00  7.59869910E+00 -1.51973982E+01  7.59869910E+00  7.59869910E+00
 -1.51973982E+01  7.59869910E+00  7.59869910E+00 -1.51973982E+01  7.59869910E+00
  7.59869910E+00 -1.51973982E+01  7.59869910E+00  7.59869910E+00 -1.51973982E+01
  7.59869910E+00  7.59869910E+00 -1.51973982E+01  7.59869910E+00  7.59869910E+00
 -1.51973982E+01  7.59869910E+00  7.59869910E+00 -1.51973982E+01  7.59869910E+00
  7.59869910E+00 -1.51973982E+01  7.59869910E+00  7.59869910E+00 -1.51973982E+01
  7.59869910E+00  7.59869910E+00 -1.51973982E+01  7.59869910E+00  7.59869910E+00
 -1.51973982E+01  7.59869910E+00  7.59869910E+00 -1.51973982E+01  7.59869910E+00
  7.59869910E+00 -1.51973982E+01  7.59869910E+00  7.59869910E+00 -1.51973982E+01
  7.59869910E+00  7.59869910E+00 -1.51973982E+01  7.59869910E+00  7.59869910E+00
 -1.51973982E+01  7.59869910E+00  7.59869910E+00 -1.51973982E+01  7.59869910E+00
  7.59869910E+00 -1.51973982E+01  7.59869910E+00  7.59869910E+00 -1.51973982E+01
  7.59869910E+00  7.59869910E+00 -1.51973982E+01  7.59869910E+00  7.59869910E+00
 -1.51973982E+01  7.59869910E+00  7.59869910E+00 -1.51973982E+01  7.59869910E+00
  7.59869910E+00 -1.51973982E+01  7.59869910E+00  7.59869910E+00 -1.51973982E+01
  7.59869910E+00  7.59869910E+00 -1.51973982E+01  7.59869910E+00  7.59869910E+00
 -1.51973982E+01  7.59869910E+00  7.59869910E+00 -1.51973982E+01  7.59869910E+00
  7.59869910E+00 -1.51973982E+01  7.59869910E+00  7.59869910E+00 -1.51973982E+01
  7.59869910E+00  7.59869910E+00 -1.51973982E+01  7.59869910E+00  7.59869910E+00
 -1.51973982E+01  7.59869910E+00  7.59869910E+00 -1.51973982E+01  7.59869910E+00
  7.59869910E+00 -1.51973982E+01  7.59869910E+00  7.59869910E+00 -1.51973982E+01
  7.59869910E+00  7.59869910E+00 -1.51973982E+01  7.59869910E+00  7.59869910E+00
 -1.51973982E+01  7.59869910E+00  7.59869910E+00 -1.51973982E+01  7.59869910E+00
  7.59869910E+00 -1.51973982E+01  7.59869910E+00  7.59869910E+00 -1.51973982E+01
  7.59869910E+00  7.59869910E+00 -1.51973982E+01  7.59869910E+00  7.59869910E+00
 -1.51973982E+01  7.59869910E+00  7.59869910E+00 -1.51973982E+01  7.59869910E+00
  7.59869910E+00 -1.51973982E+01  7.59869910E+00  7.59869910E+00 -1.51973982E+01
  7.59869910E+00  7.59869910E+00 -1.51973982E+01  7.59869910E+00  7.59869910E+00
 -1.51973982E+01  7.59869910E+00  7.59869910E+00 -1.51973982E+01  7.59869910E+00
  7.59869910E+00 -1.51973982E+01  7.59869910E+00  7.59869910E+00 -1.51973982E+01
  7.59869910E+00  7.59869910E+00 -1.51973982E+01  7.59869910E+00  7.59869910E+00
 -1.51973982E+01  7.59869910E+00  7.59869910E+00 -1.51973982E+01  7.59869910E+00
  7.59869910E+00 -1.51973982E+01  7.59869910E+00  7.59869910E+00 -1.51973982E+01
  7.59869910E+00  7.59869910E+00 -1.51973982E+01  7.59869910E+00  7.59869910E+00
 -1.51973982E+01  7.59869910E+00  7.59869910E+00 -1.51973982E+01  7.59869910E+00
  7.59869910E+00 -1.51973982E+01  7.59869910E+00  7.59869910E+00 -1.51973982E+01
  7.59869910E+00  7.59869910E+00 -1.51973982E+01  7.59869910E+00  7.59869910E+00
 -1.51973982E+01  7.59869910E+00  7.59869910E+00 -1.51973982E+01  7.59869910E+00
  7.59869910E+00 -1.51973982E+01  7.59869910E+00  7.59869910E+00 -1.51973982E+01
  7.59869910E+00  7.59869910E+00 -1.51973982E+01  7.59869910E+00  7.59869910E+00
 -1.51973982E+01  7.59869910E+00  7.59869910E+00 -1.51973982E+01  7.59869910E+00
  7.59869910E+00 -1.51973982E+01  7.59869910E+00  7.59869910E+00 -1.51973982E+01
  7.59869910E+00  7.59869910E+00 -1.51973982E+01  7.59869910E+00  7.59869910E+00
 -1.51973982E+01  7.59869910E+00  7.59869910E+00 -1.51973982E+01  7.59869910E+00
  7.59869910E+00 -1.51973982E+01  7.59869910E+00  7.59869910E+00 -1.51973982E+01
  7.59869910E+00  7.59869910E+00 -1.51973982E+01  7.59869910E+00  7.59869910E+00
 -1.51973982E+01  7.59869910E+00  7.59869910E+00 -1.51973982E+01  7.59869910E+00
  7.59869910E+00 -1.51973982E+01  7.59869910E+00  7.59869910E+00 -1.51973982E+01
  7.59869910E+00  7.59869910E+00 -1.51973982E+01  7.59869910E+00  7.59869910E+00
 -1.51973982E+01  7.59869910E+00  7.59869910E+00 -1.51973982E+01  7.59869910E+00
  7.59869910E+00 -1.51973982E+01  7.59869910E+00  7.59869910E+00 -1.51973982E+01
  7.59869910E+00  7.59869910E+00 -1.51973982E+01  7.59869910E+00  7.59869910E+00
 -1.51973982E+01  7.59869910E+00  7.59869910E+00 -1.51973982E+01  7.59869910E+00
  7.59869910E+00 -1.51973982E+01  7.59869910E+00  7.59869910E+00 -1.51973982E+01
  7.59869910E+00  7.59869910E+00 -1.51973982E+01  7.59869910E+00  7.59869910E+00
 -1.51973982E+01  7.59869910E+00  7.59869910E+00 -1.51973982E+01  7.59869910E+00
  7.59869910E+00 -1.51973982E+01  7.59869910E+00  7.59869910E+00 -1.51973982E+01
  7.59869910E+00  7.59869910E+00 -1.51973982E+01  7.59869910E+00  7.59869910E+00
 -1.51973982E+01  7.59869910E+00  7.59869910E+00 -1.51973982E+01  7.59869910E+00
  7.59869910E+00 -1.51973982E+01  7.59869910E+00  7.59869910E+00 -1.51973982E+01
  7.59869910E+00  7.59869910E+00 -1.51973982E+01  7.59869910E+00  7.59869910E+00
 -1.51973982E+01  7.59869910E+00  7.59869910E+00 -1.51973982E+01  7.59869910E+00
  7.59869910E+00 -1.51973982E+01  7.59869910E+00  7.59869910E+00 -1.51973982E+01
  7.59869910E+00  7.59869910E+00 -1.51973982E+01  7.59869910E+00  7.59869910E+00
 -1.51973982E+01  7.59869910E+00  7.59869910E+00 -1.51973982E+01  7.59869910E+00
  7.59869910E+00 -1.51973982E+01  7.59869910E+00  7.59869910E+00 -1.51973982E+01
  7.59869910E+00  7.59869910E+00 -1.51973982E+01  7.59869910E+00  7.59869910E+00
 -1.51973982E+01  7.59869910E+00  7.59869910E+00 -1.51973982E+01  7.59869910E+00
  7.59869910E+00 -1.51973982E+01  7.59869910E+00  7.59869910E+00 -1.51973982E+01
  7.59869910E+00  7.59869910E+00 -1.51973982E+01  7.59869910E+00  7.59869910E+00
 -1.51973982E+01  7.59869910E+00  7.59869910E+00 -1.51973982E+01  7.59869910E+00
  7.59869910E+00 -1.51973982E+01  7.59869910E+00  7.59869910E+00 -1.51973982E+01
  7.59869910E+00  7.59869910E+00 -1.51973982E+01  7.59869910E+00  7.59869910E+00
 -1.51973982E+01  7.59869910E+00  7.59869910E+00 -1.51973982E+01  7.59869910E+00
  7.59869910E+00 -1.51973982E+01  7.59869910E+00  7.59869910E+00 -1.51973982E+01
  7.59869910E+00  7.59869910E+00 -1.51973982E+01  7.59869910E+00  7.59869910E+00
 -1.51973982E+01  7.59869910E+00  7.59869910E+00 -1.51973982E+01  7.59869910E+00
  7.59869910E+00 -1.51973982E+01  7.59869910E+00  7.59869910E+00 -1.51973982E+01
  7.59869910E+00  7.59869910E+00 -1.51973982E+01  7.59869910E+00  7.59869910E+00
 -1.51973982E+01  7.59869910E+00  7.59869910E+00 -1.51973982E+01  7.59869910E+00
  7.59869910E+00 -1.51973982E+01  7.59869910E+00  7.59869910E+00 -1.51973982E+01
  7.59869910E+00  7.59869910E+00 -1.51973982E+01  7.59869910E+00  7.59869910E+00
 -1.51973982E+01  7.59869910E+00  7.59869910E+00 -1.51973982E+01  7.59869910E+00
  7.59869910E+00 -1.51973982E+01  7.59869910E+00  7.59869910E+00 -1.51973982E+01
  7.59869910E+00  7.59869910E+00 -1.51973982E+01  7.59869910E+00  7.59869910E+00
 -1.51973982E+01  7.59869910E+00  7.59869910E+00 -1.51973982E+01  7.59869910E+00
  7.59869910E+00 -1.51973982E+01  7.59869910E+00  7.59869910E+00 -1.51973982E+01
  7.59869910E+00  7.59869910E+00 -1.51973982E+01  7.59869910E+00  7.59869910E+00
 -1.51973982E+01  7.59869910E+00  7.59869910E+00 -1.51973982E+01  7.59869910E+00
  7.59869910E+00 -1.51973982E+01  7.59869910E+00  7.59869910E+00 -1.51973982E+01
  7.59869910E+00  7.59869910E+00 -1.51973982E+01  7.59869910E+00  7.59869910E+00
 -1.51973982E+01  7.59869910E+00  7.59869910E+00 -1.51973982E+01  7.59869910E+00
  7.59869910E+00 -1.51973982E+01  7.59869910E+00  7.59869910E+00 -1.51973982E+01
  7.59869910E+00  7.59869910E+00 -1.51973982E+01  7.59869910E+00  7.59869910E+00
 -1.51973982E+01  7.59869910E+00  7.59869910E+00 -1.51973982E+01  7.59869910E+00
  7.59869910E+00 -1.51973982E+01  7.59869910E+00  7.59869910E+00 -1.51973982E+01
  7.59869910E+00  7.59869910E+00 -1.51973982E+01  7.59869910E+00  7.59869910E+00
 -1.51973982E+01  7.59869910E+00  7.59869910E+00 -1.51973982E+01  7.59869910E+00
  7.59869910E+00 -1.51973982E+01  7.59869910E+00  7.59869910E+00 -1.51973982E+01
  7.59869910E+00  7.59869910E+00 -1.51973982E+01  7.59869910E+00  7.59869910E+00
 -1.51973982E+01  7.59869910E+00  7.59869910E+00 -1.51973982E+01  7.59869910E+00
  7.59869910E+00 -1.51973982E+01  7.59869910E+00  7.59869910E+00 -1.51973982E+01
  7.59869910E+00  7.59869910E+00 -1.51973982E+01  7.59869910E+00  7.59869910E+00
 -1.51973982E+01  7.59869910E+00  7.59869910E+00 -1.51973982E+01  7.59869910E+00
  7.59869910E+00 -1.51973982E+01  7.59869910E+00  7.59869910E+00 -1.51973982E+01
  7.59869910E+00  7.59869910E+00 -1.51973982E+01  7.59869910E+00  7.59869910E+00
 -1.51973982E+01  7.59869910E+00  7.59869910E+00 -1.51973982E+01  7.59869910E+00
  7.59869910E+00 -1.51973982E+01  7.59869910E+00  7.59869910E+00 -1.51973982E+01
  7.59869910E+00  7.59869910E+00 -1.51973982E+01  7.59869910E+00  7.59869910E+00
 -1.51973982E+01  7.59869910E+00  7.59869910E+00 -1.51973982E+01  7.59869910E+00
  7.59869910E+00 -1.51973982E+01  7.59869910E+00  7.59869910E+00 -1.51973982E+01
  7.59869910E+00  7.59869910E+00 -1.51973982E+01  7.59869910E+00  7.59869910E+00
 -1.51973982E+01  7.59869910E+00  7.59869910E+00 -1.51973982E+01  7.59869910E+00
  7.59869910E+00 -1.51973982E+01  7.59869910E+00  7.59869910E+00 -1.51973982E+01
  7.59869910E+00  7.59869910E+00 -1.51973982E+01  7.59869910E+00  7.59869910E+00
 -1.51973982E+01  7.59869910E+00  7.59869910E+00 -1.51973982E+01  7.59869910E+00
  7.59869910E+00 -1.51973982E+01  7.59869910E+00  7.59869910E+00 -1.51973982E+01
  7.59869910E+00  7.59869910E+00 -1.51973982E+01  7.59869910E+00  7.59869910E+00
 -1.51973982E+01  7.59869910E+00  7.59869910E+00 -1.51973982E+01  7.59869910E+00
  7.59869910E+00 -1.51973982E+01  7.59869910E+00  7.59869910E+00 -1.51973982E+01
  7.59869910E+00  7.59869910E+00 -1.51973982E+01  7.59869910E+00  7.59869910E+00
 -1.51973982E+01  7.59869910E+00  7.59869910E+00 -1.51973982E+01  7.59869910E+00
  7.59869910E+00 -1.51973982E+01  7.59869910E+00  7.59869910E+00 -1.51973982E+01
  7.59869910E+00  7.59869910E+00 -1.51973982E+01  7.59869910E+00  7.59869910E+00
 -1.51973982E+01  7.59869910E+00  7.59869910E+00 -1.51973982E+01  7.59869910E+00
  7.59869910E+00 -1.51973982E+01  7.59869910E+00  7.59869910E+00 -1.51973982E+01
  7.59869910E+00  7.59869910E+00 -1.51973982E+01  7.59869910E+00  7.59869910E+00
 -1.51973982E+01  7.59869910E+00  7.59869910E+00 -1.51973982E+01  7.59869910E+00
  7.59869910E+00 -1.51973982E+01  7.59869910E+00  7.59869910E+00 -1.51973982E+01
  7.59869910E+00  7.59869910E+00 -1.51973982E+01  7.59869910E+00  7.59869910E+00
 -1.51973982E+01  7.59869910E+00  7.59869910E+00 -1.51973982E+01  7.59869910E+00
  7.59869910E+00 -1.51973982E+01  7.59869910E+00  7.59869910E+00 -1.51973982E+01
  7.59869910E+00  7.59869910E+00 -1.51973982E+01  7.59869910E+00  7.59869910E+00
 -1.51973982E+01  7.59869910E+00  7.59869910E+00 -1.51973982E+01  7.59869910E+00
  7.59869910E+00 -1.51973982E+01  7.59869910E+00  7.59869910E+00 -1.51973982E+01
  7.59869910E+00  7.59869910E+00 -1.51973982E+01  7.59869910E+00  7.59869910E+00
 -1.51973982E+01  7.59869910E+00  7.59869910E+00 -1.51973982E+01  7.59869910E+00
  7.59869910E+00 -1.51973982E+01  7.59869910E+00  7.59869910E+00 -1.51973982E+01
  7.59869910E+00  7.59869910E+00 -1.51973982E+01  7.59869910E+00  7.59869910E+00
 -1.51973982E+01  7.59869910E+00  7.59869910E+00 -1.51973982E+01  7.59869910E+00
  7.59869910E+00 -1.51973982E+01  7.59869910E+00  7.59869910E+00 -1.51973982E+01
  7.59869910E+00  7.59869910E+00 -1.51973982E+01  7.59869910E+00  7.59869910E+00
 -1.51973982E+01  7.59869910E+00  7.59869910E+00 -1.51973982E+01  7.59869910E+00
  7.59869910E+00 -1.51973982E+01  7.59869910E+00  7.59869910E+00 -1.51973982E+01
  7.59869910E+00  7.59869910E+00 -1.51973982E+01  7.59869910E+00  7.59869910E+00
 -1.51973982E+01  7.59869910E+00  7.59869910E+00 -1.51973982E+01  7.59869910E+00
  7.59869910E+00 -1.51973982E+01  7.59869910E+00  7.59869910E+00 -1.51973982E+01
  7.59869910E+00  7.59869910E+00 -1.51973982E+01  7.59869910E+00  7.59869910E+00
 -1.51973982E+01  7.59869910E+00  7.59869910E+00 -1.51973982E+01  7.59869910E+00
  7.59869910E+00 -1.51973982E+01  7.59869910E+00  7.59869910E+00 -1.51973982E+01
  7.59869910E+00  7.59869910E+00 -1.51973982E+01  7.59869910E+00  7.59869910E+00
 -1.51973982E+01  7.59869910E+00  7.59869910E+00 -1.51973982E+01  7.59869910E+00
  7.59869910E+00 -1.51973982E+01  7.59869910E+00  7.59869910E+00 -1.51973982E+01
  7.59869910E+00  7.59869910E+00 -1.51973982E+01  7.59869910E+00  7.59869910E+00
 -1.51973982E+01  7.59869910E+00  7.59869910E+00 -1.51973982E+01  7.59869910E+00
  7.59869910E+00 -1.51973982E+01  7.59869910E+00  7.59869910E+00 -1.51973982E+01
  7.59869910E+00  7.59869910E+00 -1.51973982E+01  7.59869910E+00  7.59869910E+00
 -1.51973982E+01  7.59869910E+00  7.59869910E+00 -1.51973982E+01  7.59869910E+00
  7.59869910E+00 -1.51973982E+01  7.59869910E+00  7.59869910E+00 -1.51973982E+01
  7.59869910E+00  7.59869910E+00 -1.51973982E+01  7.59869910E+00  7.59869910E+00
 -1.51973982E+01  7.59869910E+00  7.59869910E+00 -1.51973982E+01  7.59869910E+00
  7.59869910E+00 -1.51973982E+01  7.59869910E+00  7.59869910E+00 -1.51973982E+01
  7.59869910E+00  7.59869910E+00 -1.51973982E+01  7.59869910E+00  7.59869910E+00
 -1.51973982E+01  7.59869910E+00  7.59869910E+00 -1.51973982E+01  7.59869910E+00
  7.59869910E+00 -1.51973982E+01  7.59869910E+00  7.59869910E+00 -1.51973982E+01
  7.59869910E+00  7.59869910E+00 -1.51973982E+01  7.59869910E+00  7.59869910E+00
 -1.51973982E+01  7.59869910E+00  7.59869910E+00 -1.51973982E+01  7.59869910E+00
  7.59869910E+00 -1.51973982E+01  7.59869910E+00  7.59869910E+00 -1.51973982E+01
  7.59869910E+00  7.59869910E+00 -1.51973982E+01  7.59869910E+00  7.59869910E+00
 -1.51973982E+01  7.59869910E+00  7.59869910E+00 -1.51973982E+01  7.59869910E+00
  7.59869910E+00 -1.51973982E+01  7.59869910E+00  7.59869910E+00 -1.51973982E+01
  7.59869910E+00  7.59869910E+00 -1.51973982E+01  7.59869910E+00  7.59869910E+00
 -1.51973982E+01  7.59869910E+00  7.59869910E+00 -1.51973982E+01  7.59869910E+00
  7.59869910E+00 -1.51973982E+01  7.59869910E+00  7.59869910E+00 -1.51973982E+01
  7.59869910E+00  7.59869910E+00 -1.51973982E+01  7.59869910E+00  7.59869910E+00
 -1.51973982E+01  7.59869910E+00  7.59869910E+00 -1.51973982E+01  7.59869910E+00
  7.59869910E+00 -1.51973982E+01  7.59869910E+00  7.59869910E+00 -1.51973982E+01
  7.59869910E+00  7.59869910E+00 -1.51973982E+01  7.59869910E+00  7.59869910E+00
 -1.51973982E+01  7.59869910E+00  7.59869910E+00 -1.51973982E+01  7.59869910E+00
  7.59869910E+00 -1.51973982E+01  7.59869910E+00  7.59869910E+00 -1.51973982E+01
  7.59869910E+00  7.59869910E+00 -1.51973982E+01  7.59869910E+00  7.59869910E+00
 -1.51973982E+01  7.59869910E+00  7.59869910E+00 -1.51973982E+01  7.59869910E+00
  7.59869910E+00 -1.51973982E+01  7.59869910E+00  7.59869910E+00 -1.51973982E+01
  7.59869910E+00  7.59869910E+00 -1.51973982E+01  7.59869910E+00  7.59869910E+00
 -1.51973982E+01  7.59869910E+00  7.59869910E+00 -1.51973982E+01  7.59869910E+00
  7.59869910E+00 -1.51973982E+01  7.59869910E+00  7.59869910E+00 -1.51973982E+01
  7.59869910E+00  7.59869910E+00 -1.51973982E+01  7.59869910E+00  7.59869910E+00
 -1.51973982E+01  7.59869910E+00  7.59869910E+00 -1.51973982E+01  7.59869910E+00
  7.59869910E+00 -1.51973982E+01  7.59869910E+00  7.59869910E+00 -1.51973982E+01
  7.59869910E+00  7.59869910E+00 -1.51973982E+01  7.59869910E+00  7.59869910E+00
 -1.51973982E+01  7.59869910E+00  7.59869910E+00 -1.51973982E+01  7.59869910E+00
  7.59869910E+00 -1.51973982E+01  7.59869910E+00  7.59869910E+00 -1.51973982E+01
  7.59869910E+00  7.59869910E+00 -1.51973982E+01  7.59869910E+00  7.59869910E+00
 -1.51973982E+01  7.59869910E+00  7.59869910E+00 -1.51973982E+01  7.59869910E+00
  7.59869910E+00 -1.51973982E+01  7.59869910E+00  7.59869910E+00 -1.51973982E+01
  7.59869910E+00  7.59869910E+00 -1.51973982E+01  7.59869910E+00  7.59869910E+00
 -1.51973982E+01  7.59869910E+00  7.59869910E+00 -1.51973982E+01  7.59869910E+00
  7.59869910E+00 -1.51973982E+01  7.59869910E+00  7.59869910E+00 -1.51973982E+01
  7.59869910E+00  7.59869910E+00 -1.51973982E+01  7.59869910E+00  7.59869910E+00
 -1.51973982E+01  7.59869910E+00  7.59869910E+00 -1.51973982E+01  7.59869910E+00
  7.59869910E+00 -1.51973982E+01  7.59869910E+00  7.59869910E+00 -1.51973982E+01
  7.59869910E+00  7.59869910E+00 -1.51973982E+01  7.59869910E+00  7.59869910E+00
 -1.51973982E+01  7.59869910E+00  7.59869910E+00 -1.51973982E+01  7.59869910E+00
  7.59869910E+00 -1.51973982E+01  7.59869910E+00  7.59869910E+00 -1.51973982E+01
  7.59869910E+00  7.59869910E+00 -1.51973982E+01  7.59869910E+00  7.59869910E+00
 -1.51973982E+01  7.59869910E+00  7.59869910E+00 -1.51973982E+01  7.59869910E+00
  7.59869910E+00 -1.51973982E+01  7.59869910E+00  7.59869910E+00 -1.51973982E+01
  7.59869910E+00  7.59869910E+00 -1.51973982E+01  7.59869910E+00  7.59869910E+00
 -1.51973982E+01  7.59869910E+00  7.59869910E+00 -1.51973982E+01  7.59869910E+00
  7.59869910E+00 -1.51973982E+01  7.59869910E+00  7.59869910E+00 -1.51973982E+01
  7.59869910E+00  7.59869910E+00 -1.51973982E+01  7.59869910E+00  7.59869910E+00
 -1.51973982E+01  7.59869910E+00  7.59869910E+00 -1.51973982E+01  7.59869910E+00
  7.59869910E+00 -1.51973982E+01  7.59869910E+00  7.59869910E+00 -1.51973982E+01
  7.59869910E+00  7.59869910E+00 -1.51973982E+01  7.59869910E+00  7.59869910E+00
 -1.51973982E+01  7.59869910E+00  7.59869910E+00 -1.51973982E+01  7.59869910E+00
  7.59869910E+00 -1.51973982E+01  7.59869910E+00  7.59869910E+00 -1.51973982E+01
  7.59869910E+00  7.59869910E+00 -1.51973982E+01  7.59869910E+00  7.59869910E+00
 -1.51973982E+01  7.59869910E+00  7.59869910E+00 -1.51973982E+01  7.59869910E+00
  7.59869910E+00 -1.51973982E+01  7.59869910E+00  7.59869910E+00 -1.51973982E+01
  7.59869910E+00  7.59869910E+00 -1.51973982E+01  7.59869910E+00  7.59869910E+00
 -1.51973982E+01  7.59869910E+00  7.59869910E+00 -1.51973982E+01  7.59869910E+00
  7.59869910E+00 -1.51973982E+01  7.59869910E+00  7.59869910E+00 -1.51973982E+01
  7.59869910E+00  7.59869910E+00 -1.51973982E+01  7.59869910E+00  7.59869910E+00
 -1.51973982E+01  7.59869910E+00  7.59869910E+00 -1.51973982E+01  7.59869910E+00
  7.59869910E+00 -1.51973982E+01  7.59869910E+00  7.59869910E+00 -1.51973982E+01
  7.59869910E+00  7.59869910E+00 -1.51973982E+01  7.59869910E+00  7.59869910E+00
 -1.51973982E+01  7.59869910E+00  7.59869910E+00 -1.51973982E+01  7.59869910E+00
  7.59869910E+00 -1.51973982E+01  7.59869910E+00  7.59869910E+00 -1.51973982E+01
  7.59869910E+00  7.59869910E+00 -1.51973982E+01  7.59869910E+00  7.59869910E+00
 -1.51973982E+01  7.59869910E+00  7.59869910E+00 -1.51973982E+01  7.59869910E+00
  7.59869910E+00 -1.51973982E+01  7.59869910E+00  7.59869910E+00 -1.51973982E+01
  7.59869910E+00  7.59869910E+00 -1.51973982E+01  7.59869910E+00  7.59869910E+00
 -1.51973982E+01  7.59869910E+00  7.59869910E+00 -1.51973982E+01  7.59869910E+00
  7.59869910E+00 -1.51973982E+01  7.59869910E+00  7.59869910E+00 -1.51973982E+01
  7.59869910E+00  7.59869910E+00 -1.51973982E+01  7.59869910E+00  7.59869910E+00
 -1.51973982E+01  7.59869910E+00  7.59869910E+00 -1.51973982E+01  7.59869910E+00
  7.59869910E+00 -1.51973982E+01  7.59869910E+00  7.59869910E+00 -1.51973982E+01
  7.59869910E+00  7.59869910E+00 -1.51973982E+01  7.59869910E+00  7.59869910E+00
 -1.51973982E+01  7.59869910E+00  7.59869910E+00 -1.51973982E+01  7.59869910E+00
  7.59869910E+00 -1.51973982E+01  7.59869910E+00  7.59869910E+00 -1.51973982E+01
  7.59869910E+00  7.59869910E+00 -1.51973982E+01  7.59869910E+00  7.59869910E+00
 -1.51973982E+01  7.59869910E+00  7.59869910E+00 -1.51973982E+01  7.59869910E+00
  7.59869910E+00 -1.51973982E+01  7.59869910E+00  7.59869910E+00 -1.51973982E+01
  7.59869910E+00  7.59869910E+00 -1.51973982E+01  7.59869910E+00  7.59869910E+00
 -1.51973982E+01  7.59869910E+00  7.59869910E+00 -1.51973982E+01  7.59869910E+00
  7.59869910E+00 -1.51973982E+01  7.59869910E+00  7.59869910E+00 -1.51973982E+01
  7.59869910E+00  7.59869910E+00 -1.51973982E+01  7.59869910E+00  7.59869910E+00
 -1.51973982E+01  7.59869910E+00  7.59869910E+00 -1.51973982E+01  7.59869910E+00
  7.59869910E+00 -1.51973982E+01  7.59869910E+00  7.59869910E+00 -1.51973982E+01
  7.59869910E+00  7.59869910E+00 -1.51973982E+01  7.59869910E+00  7.59869910E+00
 -1.51973982E+01  7.59869910E+00  7.59869910E+00 -1.51973982E+01  7.59869910E+00
  7.59869910E+00 -1.51973982E+01  7.59869910E+00  7.59869910E+00 -1.51973982E+01
  7.59869910E+00  7.59869910E+00 -1.51973982E+01  7.59869910E+00  7.59869910E+00
 -1.51973982E+01  7.59869910E+00  7.59869910E+00 -1.51973982E+01  7.59869910E+00
  7.59869910E+00 -1.51973982E+01  7.59869910E+00  7.59869910E+00 -1.51973982E+01
  7.59869910E+00  7.59869910E+00 -1.51973982E+01  7.59869910E+00  7.59869910E+00
 -1.51973982E+01  7.59869910E+00  7.59869910E+00 -1.51973982E+01  7.59869910E+00
  7.59869910E+00 -1.51973982E+01  7.59869910E+00  7.59869910E+00 -1.51973982E+01
  7.59869910E+00  7.59869910E+00 -1.51973982E+01  7.59869910E+00  7.59869910E+00
 -1.51973982E+01  7.59869910E+00  7.59869910E+00 -1.51973982E+01  7.59869910E+00
  7.59869910E+00 -1.51973982E+01  7.59869910E+00  7.59869910E+00 -1.51973982E+01
  7.59869910E+00  7.59869910E+00 -1.51973982E+01  7.59869910E+00  7.59869910E+00
 -1.51973982E+01  7.59869910E+00  7.59869910E+00 -1.51973982E+01  7.59869910E+00
  7.59869910E+00 -1.51973982E+01  7.59869910E+00  7.59869910E+00 -1.51973982E+01
  7.59869910E+00  7.59869910E+00 -1.51973982E+01  7.59869910E+00  7.59869910E+00
 -1.51973982E+01  7.59869910E+00  7.59869910E+00 -1.51973982E+01  7.59869910E+00
  7.59869910E+00 -1.51973982E+01  7.59869910E+00  7.59869910E+00 -1.51973982E+01
  7.59869910E+00  7.59869910E+00 -1.51973982E+01  7.59869910E+00  7.59869910E+00
 -1.51973982E+01  7.59869910E+00  7.59869910E+00 -1.51973982E+01  7.59869910E+00
  7.59869910E+00 -1.51973982E+01  7.59869910E+00  7.59869910E+00 -1.51973982E+01
  7.59869910E+00  7.59869910E+00 -1.51973982E+01  7.59869910E+00  7.59869910E+00
 -1.51973982E+01  7.59869910E+00  7.59869910E+00 -1.51973982E+01  7.59869910E+00
  7.59869910E+00 -1.51973982E+01  7.59869910E+00  7.59869910E+00 -1.51973982E+01
  7.59869910E+00  7.59869910E+00 -1.51973982E+01  7.59869910E+00  7.59869910E+00
 -1.51973982E+01  7.59869910E+00  7.59869910E+00 -1.51973982E+01  7.59869910E+00
  7.59869910E+00 -1.51973982E+01  7.59869910E+00  7.59869910E+00 -1.51973982E+01
  7.59869910E+00  7.59869910E+00 -1.51973982E+01  7.59869910E+00  7.59869910E+00
 -1.51973982E+01  7.59869910E+00  7.59869910E+00 -1.51973982E+01  7.59869910E+00
  7.59869910E+00 -1.51973982E+01  7.59869910E+00  7.59869910E+00 -1.51973982E+01
  7.59869910E+00  7.59869910E+00 -1.51973982E+01  7.59869910E+00  7.59869910E+00
 -1.51973982E+01  7.59869910E+00  7.59869910E+00 -1.51973982E+01  7.59869910E+00
  7.59869910E+00 -1.51973982E+01  7.59869910E+00  7.59869910E+00 -1.51973982E+01
  7.59869910E+00  7.59869910E+00 -1.51973982E+01  7.59869910E+00  7.59869910E+00
 -1.51973982E+01  7.59869910E+00  7.59869910E+00 -1.51973982E+01  7.59869910E+00
  7.59869910E+00 -1.51973982E+01  7.59869910E+00  7.59869910E+00 -1.51973982E+01
  7.59869910E+00  7.59869910E+00 -1.51973982E+01  7.59869910E+00  7.59869910E+00
 -1.51973982E+01  7.59869910E+00  7.59869910E+00 -1.51973982E+01  7.59869910E+00
  7.59869910E+00 -1.51973982E+01  7.59869910E+00  7.59869910E+00 -1.51973982E+01
  7.59869910E+00  7.59869910E+00 -1.51973982E+01  7.59869910E+00  7.59869910E+00
 -1.51973982E+01  7.59869910E+00  7.59869910E+00 -1.51973982E+01  7.59869910E+00
  7.59869910E+00 -1.51973982E+01  7.59869910E+00  7.59869910E+00 -1.51973982E+01
  7.59869910E+00  7.59869910E+00 -1.51973982E+01  7.59869910E+00  7.59869910E+00
 -1.51973982E+01  7.59869910E+00  7.59869910E+00 -1.51973982E+01  7.59869910E+00
  7.59869910E+00 -1.51973982E+01  7.59869910E+00  7.59869910E+00 -1.51973982E+01
  7.59869910E+00  7.59869910E+00 -1.51973982E+01  7.59869910E+00  7.59869910E+00
 -1.51973982E+01  7.59869910E+00  7.59869910E+00 -1.51973982E+01  7.59869910E+00
  7.59869910E+00 -1.51973982E+01  7.59869910E+00  7.59869910E+00 -1.51973982E+01
  7.59869910E+00  7.59869910E+00 -1.51973982E+01  7.59869910E+00  7.59869910E+00
 -1.51973982E+01  7.59869910E+00  7.59869910E+00 -1.51973982E+01  7.59869910E+00
  7.59869910E+00 -1.51973982E+01  7.59869910E+00  7.59869910E+00 -1.51973982E+01
  7.59869910E+00  7.59869910E+00 -1.51973982E+01  7.59869910E+00  7.59869910E+00
 -1.51973982E+01  7.59869910E+00  7.59869910E+00 -1.51973982E+01  7.59869910E+00
  7.59869910E+00 -1.51973982E+01  7.59869910E+00  7.59869910E+00 -1.51973982E+01
  7.59869910E+00  7.59869910E+00 -1.51973982E+01  7.59869910E+00  7.59869910E+00
 -1.51973982E+01  7.59869910E+00  7.59869910E+00 -1.51973982E+01  7.59869910E+00
  7.59869910E+00 -1.51973982E+01  7.59869910E+00  7.59869910E+00 -1.51973982E+01
  7.59869910E+00  7.59869910E+00 -1.51973982E+01  7.59869910E+00  7.59869910E+00
 -1.51973982E+01  7.59869910E+00  7.59869910E+00 -1.51973982E+01  7.59869910E+00
  7.59869910E+00 -1.51973982E+01  7.59869910E+00  7.59869910E+00 -1.51973982E+01
  7.59869910E+00  7.59869910E+00 -1.51973982E+01  7.59869910E+00  7.59869910E+00
 -1.51973982E+01  7.59869910E+00  7.59869910E+00 -1.51973982E+01  7.59869910E+00
  7.59869910E+00 -1.51973982E+01  7.59869910E+00  7.59869910E+00 -1.51973982E+01
  7.59869910E+00  7.59869910E+00 -1.51973982E+01  7.59869910E+00  7.59869910E+00
 -1.51973982E+01  7.59869910E+00  7.59869910E+00 -1.51973982E+01  7.59869910E+00
  7.59869910E+00 -1.51973982E+01  7.59869910E+00  7.59869910E+00 -1.51973982E+01
  7.59869910E+00  7.59869910E+00 -1.51973982E+01  7.59869910E+00  7.59869910E+00
 -1.51973982E+01  7.59869910E+00  7.59869910E+00 -1.51973982E+01  7.59869910E+00
  7.59869910E+00 -1.51973982E+01  7.59869910E+00  7.59869910E+00 -1.51973982E+01
  7.59869910E+00  7.59869910E+00 -1.51973982E+01  7.59869910E+00  7.59869910E+00
 -1.51973982E+01  7.59869910E+00  7.59869910E+00 -1.51973982E+01  7.59869910E+00
  7.59869910E+00 -1.51973982E+01  7.59869910E+00  7.59869910E+00 -1.51973982E+01
  7.59869910E+00  7.59869910E+00 -1.51973982E+01  7.59869910E+00  7.59869910E+00
 -1.51973982E+01  7.59869910E+00  7.59869910E+00 -1.51973982E+01  7.59869910E+00
  7.59869910E+00 -1.51973982E+01  7.59869910E+00  7.59869910E+00 -1.51973982E+01
  7.59869910E+00  7.59869910E+00 -1.51973982E+01  7.59869910E+00  7.59869910E+00
 -1.51973982E+01  7.59869910E+00  7.59869910E+00 -1.51973982E+01  7.59869910E+00
  7.59869910E+00 -1.51973982E+01  7.59869910E+00  7.59869910E+00 -1.51973982E+01
  7.59869910E+00  7.59869910E+00 -1.51973982E+01  7.59869910E+00  7.59869910E+00
 -1.51973982E+01  7.59869910E+00  7.59869910E+00 -1.51973982E+01  7.59869910E+00
  7.59869910E+00 -1.51973982E+01  7.59869910E+00  7.59869910E+00 -1.51973982E+01
  7.59869910E+00  7.59869910E+00 -1.51973982E+01  7.59869910E+00  7.59869910E+00
 -1.51973982E+01  7.59869910E+00  7.59869910E+00 -1.51973982E+01  7.59869910E+00
  7.59869910E+00 -1.51973982E+01  7.59869910E+00  7.59869910E+00 -1.51973982E+01
  7.59869910E+00  7.59869910E+00 -1.51973982E+01  7.59869910E+00  7.59869910E+00
 -1.51973982E+01  7.59869910E+00  7.59869910E+00 -1.51973982E+01  7.59869910E+00
  7.59869910E+00 -1.51973982E+01  7.59869910E+00  7.59869910E+00 -1.51973982E+01
  7.59869910E+00  7.59869910E+00 -1.51973982E+01  7.59869910E+00  7.59869910E+00
 -1.51973982E+01  7.59869910E+00  7.59869910E+00 -1.51973982E+01  7.59869910E+00
  7.59869910E+00 -1.51973982E+01  7.59869910E+00  7.59869910E+00 -1.51973982E+01
  7.59869910E+00  7.59869910E+00 -1.51973982E+01  7.59869910E+00  7.59869910E+00
 -1.51973982E+01  7.59869910E+00  7.59869910E+00 -1.51973982E+01  7.59869910E+00
  7.59869910E+00 -1.51973982E+01  7.59869910E+00  7.59869910E+00 -1.51973982E+01
  7.59869910E+00  7.59869910E+00 -1.51973982E+01  7.59869910E+00  7.59869910E+00
 -1.51973982E+01  7.59869910E+00  7.59869910E+00 -1.51973982E+01  7.59869910E+00
  7.59869910E+00 -1.51973982E+01  7.59869910E+00  7.59869910E+00 -1.51973982E+01
  7.59869910E+00  7.59869910E+00 -1.51973982E+01  7.59869910E+00  7.59869910E+00
 -1.51973982E+01  7.59869910E+00  7.59869910E+00 -1.51973982E+01  7.59869910E+00
  7.59869910E+00 -1.51973982E+01  7.59869910E+00  7.59869910E+00 -1.51973982E+01
  7.59869910E+00  7.59869910E+00 -1.51973982E+01  7.59869910E+00  7.59869910E+00
 -1.51973982E+01  7.59869910E+00  7.59869910E+00 -1.51973982E+01  7.59869910E+00
  7.59869910E+00 -1.51973982E+01  7.59869910E+00  7.59869910E+00 -1.51973982E+01
  7.59869910E+00  7.59869910E+00 -1.51973982E+01  7.59869910E+00  7.59869910E+00
 -1.51973982E+01  7.59869910E+00  7.59869910E+00 -1.51973982E+01  7.59869910E+00
  7.59869910E+00 -1.51973982E+01  7.59869910E+00  7.59869910E+00 -1.51973982E+01
  7.59869910E+00  7.59869910E+00 -1.51973982E+01  7.59869910E+00  7.59869910E+00
 -1.51973982E+01  7.59869910E+00  7.59869910E+00 -1.51973982E+01  7.59869910E+00
  7.59869910E+00 -1.51973982E+01  7.59869910E+00  7.59869910E+00 -1.51973982E+01
  7.59869910E+00  7.59869910E+00 -1.51973982E+01  7.59869910E+00  7.59869910E+00
 -1.51973982E+01  7.59869910E+00  7.59869910E+00 -1.51973982E+01  7.59869910E+00
  7.59869910E+00 -1.51973982E+01  7.59869910E+00  7.59869910E+00 -1.51973982E+01
  7.59869910E+00  7.59869910E+00 -1.51973982E+01  7.59869910E+00  7.59869910E+00
 -1.51973982E+01  7.59869910E+00  7.59869910E+00 -1.51973982E+01  7.59869910E+00
  7.59869910E+00 -1.51973982E+01  7.59869910E+00  7.59869910E+00 -1.51973982E+01
  7.59869910E+00  7.59869910E+00 -1.51973982E+01  7.59869910E+00  7.59869910E+00
 -1.51973982E+01  7.59869910E+00  7.59869910E+00 -1.51973982E+01  7.59869910E+00
  7.59869910E+00 -1.51973982E+01  7.59869910E+00  7.59869910E+00 -1.51973982E+01
  7.59869910E+00  7.59869910E+00 -1.51973982E+01  7.59869910E+00  7.59869910E+00
 -1.51973982E+01  7.59869910E+00  7.59869910E+00 -1.51973982E+01  7.59869910E+00
  7.59869910E+00 -1.51973982E+01  7.59869910E+00  7.59869910E+00 -1.51973982E+01
  7.59869910E+00  7.59869910E+00 -1.51973982E+01  7.59869910E+00  7.59869910E+00
 -1.51973982E+01  7.59869910E+00  7.59869910E+00 -1.51973982E+01  7.59869910E+00
  7.59869910E+00 -1.51973982E+01  7.59869910E+00  7.59869910E+00 -1.51973982E+01
  7.59869910E+00  7.59869910E+00 -1.51973982E+01  7.59869910E+00  7.59869910E+00
 -1.51973982E+01  7.59869910E+00  7.59869910E+00 -1.51973982E+01  7.59869910E+00
  7.59869910E+00 -1.51973982E+01  7.59869910E+00  7.59869910E+00 -1.51973982E+01
  7.59869910E+00  7.59869910E+00 -1.51973982E+01  7.59869910E+00  7.59869910E+00
 -1.51973982E+01  7.59869910E+00  7.59869910E+00 -1.51973982E+01  7.59869910E+00
  7.59869910E+00 -1.51973982E+01  7.59869910E+00  7.59869910E+00 -1.51973982E+01
  7.59869910E+00  7.59869910E+00 -1.51973982E+01  7.59869910E+00  7.59869910E+00
 -1.51973982E+01  7.59869910E+00  7.59869910E+00 -1.51973982E+01  7.59869910E+00
  7.59869910E+00 -1.51973982E+01  7.59869910E+00  7.59869910E+00 -1.51973982E+01
  7.59869910E+00  7.59869910E+00 -1.51973982E+01  7.59869910E+00  7.59869910E+00
 -1.51973982E+01  7.59869910E+00  7.59869910E+00 -1.51973982E+01  7.59869910E+00
  7.59869910E+00 -1.51973982E+01  7.59869910E+00  7.59869910E+00 -1.51973982E+01
  7.59869910E+00  7.59869910E+00 -1.51973982E+01  7.59869910E+00  7.59869910E+00
 -1.51973982E+01  7.59869910E+00  7.59869910E+00 -1.51973982E+01  7.59869910E+00
  7.59869910E+00 -1.51973982E+01  7.59869910E+00  7.59869910E+00 -1.51973982E+01
  7.59869910E+00  7.59869910E+00 -1.51973982E+01  7.59869910E+00  7.59869910E+00
 -1.51973982E+01  7.59869910E+00  7.59869910E+00 -1.51973982E+01  7.59869910E+00
  7.59869910E+00 -1.51973982E+01  7.59869910E+00  7.59869910E+00 -1.51973982E+01
  7.59869910E+00  7.59869910E+00 -1.51973982E+01  7.59869910E+00  7.59869910E+00
 -1.51973982E+01  7.59869910E+00  7.59869910E+00 -1.51973982E+01  7.59869910E+00
  7.59869910E+00 -1.51973982E+01  7.59869910E+00  7.59869910E+00 -1.51973982E+01
  7.59869910E+00  7.59869910E+00 -1.51973982E+01  7.59869910E+00  7.59869910E+00
 -1.51973982E+01  7.59869910E+00  7.59869910E+00 -1.51973982E+01  7.59869910E+00
  7.59869910E+00 -1.51973982E+01  7.59869910E+00  7.59869910E+00 -1.51973982E+01
  7.59869910E+00  7.59869910E+00 -1.51973982E+01  7.59869910E+00  7.59869910E+00
 -1.51973982E+01  7.59869910E+00  7.59869910E+00 -1.51973982E+01  7.59869910E+00
  7.59869910E+00 -1.51973982E+01  7.59869910E+00  7.59869910E+00 -1.51973982E+01
  7.59869910E+00  7.59869910E+00 -1.51973982E+01  7.59869910E+00  7.59869910E+00
 -1.51973982E+01  7.59869910E+00  7.59869910E+00 -1.51973982E+01  7.59869910E+00
  7.59869910E+00 -1.51973982E+01  7.59869910E+00  7.59869910E+00 -1.51973982E+01
  7.59869910E+00  7.59869910E+00 -1.51973982E+01  7.59869910E+00  7.59869910E+00
 -1.51973982E+01  7.59869910E+00  7.59869910E+00 -1.51973982E+01  7.59869910E+00
  7.59869910E+00 -1.51973982E+01  7.59869910E+00  7.59869910E+00 -1.51973982E+01
  7.59869910E+00  7.59869910E+00 -1.51973982E+01  7.59869910E+00  7.59869910E+00
 -1.51973982E+01  7.59869910E+00  7.59869910E+00 -1.51973982E+01  7.59869910E+00
  7.59869910E+00 -1.51973982E+01  7.59869910E+00  7.59869910E+00 -1.51973982E+01
  7.59869910E+00  7.59869910E+00 -1.51973982E+01  7.59869910E+00  7.59869910E+00
 -1.51973982E+01  7.59869910E+00  7.59869910E+00 -1.51973982E+01  7.59869910E+00
  7.59869910E+00 -1.51973982E+01  7.59869910E+00  7.59869910E+00 -1.51973982E+01
  7.59869910E+00  7.59869910E+00 -1.51973982E+01  7.59869910E+00  7.59869910E+00
 -1.51973982E+01  7.59869910E+00  7.59869910E+00 -1.51973982E+01  7.59869910E+00
  7.59869910E+00 -1.51973982E+01  7.59869910E+00  7.59869910E+00 -1.51973982E+01
  7.59869910E+00  7.59869910E+00 -1.51973982E+01  7.59869910E+00  7.59869910E+00
 -1.51973982E+01  7.59869910E+00  7.59869910E+00 -1.51973982E+01  7.59869910E+00
  7.59869910E+00 -1.51973982E+01  7.59869910E+00  7.59869910E+00 -1.51973982E+01
  7.59869910E+00  7.59869910E+00 -1.51973982E+01  7.59869910E+00  7.59869910E+00
 -1.51973982E+01  7.59869910E+00  7.59869910E+00 -1.51973982E+01  7.59869910E+00
  7.59869910E+00 -1.51973982E+01  7.59869910E+00  7.59869910E+00 -1.51973982E+01
  7.59869910E+00  7.59869910E+00 -1.51973982E+01  7.59869910E+00  7.59869910E+00
 -1.51973982E+01  7.59869910E+00  7.59869910E+00 -1.51973982E+01  7.59869910E+00
  7.59869910E+00 -1.51973982E+01  7.59869910E+00  7.59869910E+00 -1.51973982E+01
  7.59869910E+00  7.59869910E+00 -1.51973982E+01  7.59869910E+00  7.59869910E+00
 -1.51973982E+01  7.59869910E+00  7.59869910E+00 -1.51973982E+01  7.59869910E+00
  7.59869910E+00 -1.51973982E+01  7.59869910E+00  7.59869910E+00 -1.51973982E+01
  7.59869910E+00  7.59869910E+00 -1.51973982E+01  7.59869910E+00  7.59869910E+00
 -1.51973982E+01  7.59869910E+00  7.59869910E+00 -1.51973982E+01  7.59869910E+00
  7.59869910E+00 -1.51973982E+01  7.59869910E+00  7.59869910E+00 -1.51973982E+01
  7.59869910E+00  7.59869910E+00 -1.51973982E+01  7.59869910E+00  7.59869910E+00
 -1.51973982E+01  7.59869910E+00  7.59869910E+00 -1.51973982E+01  7.59869910E+00
  7.59869910E+00 -1.51973982E+01  7.59869910E+00  7.59869910E+00 -1.51973982E+01
  7.59869910E+00  7.59869910E+00 -1.51973982E+01  7.59869910E+00  7.59869910E+00
 -1.51973982E+01  7.59869910E+00  7.59869910E+00 -1.51973982E+01  7.59869910E+00
  7.59869910E+00 -1.51973982E+01  7.59869910E+00  7.59869910E+00 -1.51973982E+01
  7.59869910E+00  7.59869910E+00 -1.51973982E+01  7.59869910E+00  7.59869910E+00
 -1.51973982E+01  7.59869910E+00  7.59869910E+00 -1.51973982E+01  7.59869910E+00
  7.59869910E+00 -1.51973982E+01  7.59869910E+00  7.59869910E+00 -1.51973982E+01
  7.59869910E+00  7.59869910E+00 -1.51973982E+01  7.59869910E+00  7.59869910E+00
 -1.51973982E+01  7.59869910E+00  7.59869910E+00 -1.51973982E+01  7.59869910E+00
  7.59869910E+00 -1.51973982E+01  7.59869910E+00  7.59869910E+00 -1.51973982E+01
  7.59869910E+00  7.59869910E+00 -1.51973982E+01  7.59869910E+00  7.59869910E+00
 -1.51973982E+01  7.59869910E+00  7.59869910E+00 -1.51973982E+01  7.59869910E+00
  7.59869910E+00 -1.51973982E+01  7.59869910E+00  7.59869910E+00 -1.51973982E+01
  7.59869910E+00  7.59869910E+00 -1.51973982E+01  7.59869910E+00  7.59869910E+00
 -1.51973982E+01  7.59869910E+00  7.59869910E+00 -1.51973982E+01  7.59869910E+00
  7.59869910E+00 -1.51973982E+01  7.59869910E+00  7.59869910E+00 -1.51973982E+01
  7.59869910E+00  7.59869910E+00 -1.51973982E+01  7.59869910E+00  7.59869910E+00
 -1.51973982E+01  7.59869910E+00  7.59869910E+00 -1.51973982E+01  7.59869910E+00
  7.59869910E+00 -1.51973982E+01  7.59869910E+00  7.59869910E+00 -1.51973982E+01
  7.59869910E+00  7.59869910E+00 -1.51973982E+01  7.59869910E+00  7.59869910E+00
 -1.51973982E+01  7.59869910E+00  7.59869910E+00 -1.51973982E+01  7.59869910E+00
  7.59869910E+00 -1.51973982E+01  7.59869910E+00  7.59869910E+00 -1.51973982E+01
  7.59869910E+00  7.59869910E+00 -1.51973982E+01  7.59869910E+00  7.59869910E+00
 -1.51973982E+01  7.59869910E+00  7.59869910E+00 -1.51973982E+01  7.59869910E+00
  7.59869910E+00 -1.51973982E+01  7.59869910E+00  7.59869910E+00 -1.51973982E+01
  7.59869910E+00  7.59869910E+00 -1.51973982E+01  7.59869910E+00  7.59869910E+00
 -1.51973982E+01  7.59869910E+00  7.59869910E+00 -1.51973982E+01  7.59869910E+00
  7.59869910E+00 -1.51973982E+01  7.59869910E+00  7.59869910E+00 -1.51973982E+01
  7.59869910E+00  7.59869910E+00 -1.51973982E+01  7.59869910E+00  7.59869910E+00
 -1.51973982E+01  7.59869910E+00  7.59869910E+00 -1.51973982E+01  7.59869910E+00
  7.59869910E+00 -1.51973982E+01  7.59869910E+00  7.59869910E+00 -1.51973982E+01
  7.59869910E+00  7.59869910E+00 -1.51973982E+01  7.59869910E+00  7.59869910E+00
 -1.51973982E+01  7.59869910E+00  7.59869910E+00 -1.51973982E+01  7.59869910E+00
  7.59869910E+00 -1.51973982E+01  7.59869910E+00  7.59869910E+00 -1.51973982E+01
  7.59869910E+00  7.59869910E+00 -1.51973982E+01  7.59869910E+00  7.59869910E+00
 -1.51973982E+01  7.59869910E+00  7.59869910E+00 -1.51973982E+01  7.59869910E+00
  7.59869910E+00 -1.51973982E+01  7.59869910E+00  7.59869910E+00 -1.51973982E+01
  7.59869910E+00  7.59869910E+00 -1.51973982E+01  7.59869910E+00  7.59869910E+00
 -1.51973982E+01  7.59869910E+00  7.59869910E+00 -1.51973982E+01  7.59869910E+00
  7.59869910E+00 -1.51973982E+01  7.59869910E+00  7.59869910E+00 -1.51973982E+01
  7.59869910E+00  7.59869910E+00 -1.51973982E+01  7.59869910E+00  7.59869910E+00
 -1.51973982E+01  7.59869910E+00  7.59869910E+00 -1.51973982E+01  7.59869910E+00
  7.59869910E+00 -1.51973982E+01  7.59869910E+00  7.59869910E+00 -1.51973982E+01
  7.59869910E+00  7.59869910E+00 -1.51973982E+01  7.59869910E+00  7.59869910E+00
 -1.51973982E+01  7.59869910E+00  7.59869910E+00 -1.51973982E+01  7.59869910E+00
  7.59869910E+00 -1.51973982E+01  7.59869910E+00  7.59869910E+00 -1.51973982E+01
  7.59869910E+00  7.59869910E+00 -1.51973982E+01  7.59869910E+00  7.59869910E+00
 -1.51973982E+01  7.59869910E+00  7.59869910E+00 -1.51973982E+01  7.59869910E+00
  7.59869910E+00 -1.51973982E+01  7.59869910E+00  7.59869910E+00 -1.51973982E+01
  7.59869910E+00  7.59869910E+00 -1.51973982E+01  7.59869910E+00  7.59869910E+00
 -1.51973982E+01  7.59869910E+00  7.59869910E+00 -1.51973982E+01  7.59869910E+00
  7.59869910E+00 -1.51973982E+01  7.59869910E+00  7.59869910E+00 -1.51973982E+01
  7.59869910E+00  7.59869910E+00 -1.51973982E+01  7.59869910E+00  7.59869910E+00
 -1.51973982E+01  7.59869910E+00  7.59869910E+00 -1.51973982E+01  7.59869910E+00
  7.59869910E+00 -1.51973982E+01  7.59869910E+00  7.59869910E+00 -1.51973982E+01
  7.59869910E+00  7.59869910E+00 -1.51973982E+01  7.59869910E+00  7.59869910E+00
 -1.51973982E+01  7.59869910E+00  7.59869910E+00 -1.51973982E+01  7.59869910E+00
  7.59869910E+00 -1.51973982E+01  7.59869910E+00  7.59869910E+00 -1.51973982E+01
  7.59869910E+00  7.59869910E+00 -1.51973982E+01  7.59869910E+00  7.59869910E+00
 -1.51973982E+01  7.59869910E+00  7.59869910E+00 -1.51973982E+01  7.59869910E+00
  7.59869910E+00 -1.51973982E+01  7.59869910E+00  7.59869910E+00 -1.51973982E+01
  7.59869910E+00  7.59869910E+00 -1.51973982E+01  7.59869910E+00  7.59869910E+00
 -1.51973982E+01  7.59869910E+00  7.59869910E+00 -1.51973982E+01  7.59869910E+00
  7.59869910E+00 -1.51973982E+01  7.59869910E+00  7.59869910E+00 -1.51973982E+01
  7.59869910E+00  7.59869910E+00 -1.51973982E+01  7.59869910E+00  7.59869910E+00
 -1.51973982E+01  7.59869910E+00  7.59869910E+00 -1.51973982E+01  7.59869910E+00
  7.59869910E+00 -1.51973982E+01  7.59869910E+00  7.59869910E+00 -1.51973982E+01
  7.59869910E+00  7.59869910E+00 -1.51973982E+01  7.59869910E+00  7.59869910E+00
 -1.51973982E+01  7.59869910E+00  7.59869910E+00 -1.51973982E+01  7.59869910E+00
  7.59869910E+00 -1.51973982E+01  7.59869910E+00  7.59869910E+00 -1.51973982E+01
  7.59869910E+00  7.59869910E+00 -1.51973982E+01  7.59869910E+00  7.59869910E+00
 -1.51973982E+01  7.59869910E+00  7.59869910E+00 -1.51973982E+01  7.59869910E+00
  7.59869910E+00 -1.51973982E+01  7.59869910E+00  7.59869910E+00 -1.51973982E+01
  7.59869910E+00  7.59869910E+00 -1.51973982E+01  7.59869910E+00  7.59869910E+00
 -1.51973982E+01  7.59869910E+00  7.59869910E+00 -1.51973982E+01  7.59869910E+00
  7.59869910E+00 -1.51973982E+01  7.59869910E+00  7.59869910E+00 -1.51973982E+01
  7.59869910E+00  7.59869910E+00 -1.51973982E+01  7.59869910E+00  7.59869910E+00
 -1.51973982E+01  7.59869910E+00  7.59869910E+00 -1.51973982E+01  7.59869910E+00
  7.59869910E+00 -1.51973982E+01  7.59869910E+00  7.59869910E+00 -1.51973982E+01
  7.59869910E+00  7.59869910E+00 -1.51973982E+01  7.59869910E+00  7.59869910E+00
 -1.51973982E+01  7.59869910E+00  7.59869910E+00 -1.51973982E+01  7.59869910E+00
  7.59869910E+00 -1.51973982E+01  7.59869910E+00  7.59869910E+00 -1.51973982E+01
  7.59869910E+00  7.59869910E+00 -1.51973982E+01  7.59869910E+00  7.59869910E+00
 -1.51973982E+01  7.59869910E+00  7.59869910E+00 -1.51973982E+01  7.59869910E+00
  7.59869910E+00 -1.51973982E+01  7.59869910E+00  7.59869910E+00 -1.51973982E+01
  7.59869910E+00  7.59869910E+00 -1.51973982E+01  7.59869910E+00  7.59869910E+00
 -1.51973982E+01  7.59869910E+00  7.59869910E+00 -1.51973982E+01  7.59869910E+00
  7.59869910E+00 -1.51973982E+01  7.59869910E+00  7.59869910E+00 -1.51973982E+01
  7.59869910E+00  7.59869910E+00 -1.51973982E+01  7.59869910E+00  7.59869910E+00
 -1.51973982E+01  7.59869910E+00  7.59869910E+00 -1.51973982E+01  7.59869910E+00
  7.59869910E+00 -1.51973982E+01  7.59869910E+00  7.59869910E+00 -1.51973982E+01
  7.59869910E+00  7.59869910E+00 -1.51973982E+01  7.59869910E+00  7.59869910E+00
 -1.51973982E+01  7.59869910E+00  7.59869910E+00 -1.51973982E+01  7.59869910E+00
  7.59869910E+00 -1.51973982E+01  7.59869910E+00  7.59869910E+00 -1.51973982E+01
  7.59869910E+00  7.59869910E+00 -1.51973982E+01  7.59869910E+00  7.59869910E+00
 -1.51973982E+01  7.59869910E+00  7.59869910E+00 -1.51973982E+01  7.59869910E+00
  7.59869910E+00 -1.51973982E+01  7.59869910E+00  7.59869910E+00 -1.51973982E+01
  7.59869910E+00  7.59869910E+00 -1.51973982E+01  7.59869910E+00  7.59869910E+00
 -1.51973982E+01  7.59869910E+00  7.59869910E+00 -1.51973982E+01  7.59869910E+00
  7.59869910E+00 -1.51973982E+01  7.59869910E+00  7.59869910E+00 -1.51973982E+01
  7.59869910E+00  7.59869910E+00 -1.51973982E+01  7.59869910E+00  7.59869910E+00
 -1.51973982E+01  7.59869910E+00  7.59869910E+00 -1.51973982E+01  7.59869910E+00
  7.59869910E+00 -1.51973982E+01  7.59869910E+00  7.59869910E+00 -1.51973982E+01
  7.59869910E+00  7.59869910E+00 -1.51973982E+01  7.59869910E+00  7.59869910E+00
 -1.51973982E+01  7.59869910E+00  7.59869910E+00 -1.51973982E+01  7.59869910E+00
  7.59869910E+00 -1.51973982E+01  7.59869910E+00  7.59869910E+00 -1.51973982E+01
  7.59869910E+00  7.59869910E+00 -1.51973982E+01  7.59869910E+00  7.59869910E+00
 -1.51973982E+01  7.59869910E+00  7.59869910E+00 -1.51973982E+01  7.59869910E+00
  7.59869910E+00 -1.51973982E+01  7.59869910E+00  7.59869910E+00 -1.51973982E+01
  7.59869910E+00  7.59869910E+00 -1.51973982E+01  7.59869910E+00  7.59869910E+00
 -1.51973982E+01  7.59869910E+00  7.59869910E+00 -1.51973982E+01  7.59869910E+00
  7.59869910E+00 -1.51973982E+01  7.59869910E+00  7.59869910E+00 -1.51973982E+01
  7.59869910E+00  7.59869910E+00 -1.51973982E+01  7.59869910E+00  7.59869910E+00
 -1.51973982E+01  7.59869910E+00  7.59869910E+00 -1.51973982E+01  7.59869910E+00
  7.59869910E+00 -1.51973982E+01  7.59869910E+00  7.59869910E+00 -1.51973982E+01
  7.59869910E+00  7.59869910E+00 -1.51973982E+01  7.59869910E+00  7.59869910E+00
 -1.51973982E+01  7.59869910E+00  7.59869910E+00 -1.51973982E+01  7.59869910E+00
  7.59869910E+00 -1.51973982E+01  7.59869910E+00  7.59869910E+00 -1.51973982E+01
  7.59869910E+00  7.59869910E+00 -1.51973982E+01  7.59869910E+00  7.59869910E+00
 -1.51973982E+01  7.59869910E+00  7.59869910E+00 -1.51973982E+01  7.59869910E+00
  7.59869910E+00 -1.51973982E+01  7.59869910E+00  7.59869910E+00 -1.51973982E+01
  7.59869910E+00  7.59869910E+00 -1.51973982E+01  7.59869910E+00  7.59869910E+00
 -1.51973982E+01  7.59869910E+00  7.59869910E+00 -1.51973982E+01  7.59869910E+00
  7.59869910E+00 -1.51973982E+01  7.59869910E+00  7.59869910E+00 -1.51973982E+01
  7.59869910E+00  7.59869910E+00 -1.51973982E+01  7.59869910E+00  7.59869910E+00
 -1.51973982E+01  7.59869910E+00  7.59869910E+00 -1.51973982E+01  7.59869910E+00
  7.59869910E+00 -1.51973982E+01  7.59869910E+00  7.59869910E+00 -1.51973982E+01
  7.59869910E+00  7.59869910E+00 -1.51973982E+01  7.59869910E+00  7.59869910E+00
 -1.51973982E+01  7.59869910E+00  7.59869910E+00 -1.51973982E+01  7.59869910E+00
  7.59869910E+00 -1.51973982E+01  7.59869910E+00  7.59869910E+00 -1.51973982E+01
  7.59869910E+00  7.59869910E+00 -1.51973982E+01  7.59869910E+00  7.59869910E+00
 -1.51973982E+01  7.59869910E+00  7.59869910E+00 -1.51973982E+01  7.59869910E+00
  7.59869910E+00 -1.51973982E+01  7.59869910E+00  7.59869910E+00 -1.51973982E+01
  7.59869910E+00  7.59869910E+00 -1.51973982E+01  7.59869910E+00  7.59869910E+00
 -1.51973982E+01  7.59869910E+00  7.59869910E+00 -1.51973982E+01  7.59869910E+00
  7.59869910E+00 -1.51973982E+01  7.59869910E+00  7.59869910E+00 -1.51973982E+01
  7.59869910E+00  7.59869910E+00 -1.51973982E+01  7.59869910E+00  7.59869910E+00
 -1.51973982E+01  7.59869910E+00  7.59869910E+00 -1.51973982E+01  7.59869910E+00
  7.59869910E+00 -1.51973982E+01  7.59869910E+00  7.59869910E+00 -1.51973982E+01
  7.59869910E+00  7.59869910E+00 -1.51973982E+01  7.59869910E+00  7.59869910E+00
 -1.51973982E+01  7.59869910E+00  7.59869910E+00 -1.51973982E+01  7.59869910E+00
  7.59869910E+00 -1.51973982E+01  7.59869910E+00  7.59869910E+00 -1.51973982E+01
  7.59869910E+00  7.59869910E+00 -1.51973982E+01  7.59869910E+00  7.59869910E+00
 -1.51973982E+01  7.59869910E+00  7.59869910E+00 -1.51973982E+01  7.59869910E+00
  7.59869910E+00 -1.51973982E+01  7.59869910E+00  7.59869910E+00 -1.51973982E+01
  7.59869910E+00  7.59869910E+00 -1.51973982E+01  7.59869910E+00  7.59869910E+00
 -1.51973982E+01  7.59869910E+00  7.59869910E+00 -1.51973982E+01  7.59869910E+00
  7.59869910E+00 -1.51973982E+01  7.59869910E+00  7.59869910E+00 -1.51973982E+01
  7.59869910E+00  7.59869910E+00 -1.51973982E+01  7.59869910E+00  7.59869910E+00
 -1.51973982E+01  7.59869910E+00  7.59869910E+00 -1.51973982E+01  7.59869910E+00
  7.59869910E+00 -1.51973982E+01  7.59869910E+00  7.59869910E+00 -1.51973982E+01
  7.59869910E+00  7.59869910E+00 -1.51973982E+01  7.59869910E+00  7.59869910E+00
 -1.51973982E+01  7.59869910E+00  7.59869910E+00 -1.51973982E+01  7.59869910E+00
  7.59869910E+00 -1.51973982E+01  7.59869910E+00  7.59869910E+00 -1.51973982E+01
  7.59869910E+00  7.59869910E+00 -1.51973982E+01  7.59869910E+00  7.59869910E+00
 -1.51973982E+01  7.59869910E+00  7.59869910E+00 -1.51973982E+01  7.59869910E+00
  7.59869910E+00 -1.51973982E+01  7.59869910E+00  7.59869910E+00 -1.51973982E+01
  7.59869910E+00  7.59869910E+00 -1.51973982E+01  7.59869910E+00  7.59869910E+00
 -1.51973982E+01  7.59869910E+00  7.59869910E+00 -1.51973982E+01  7.59869910E+00
  7.59869910E+00 -1.51973982E+01  7.59869910E+00  7.59869910E+00 -1.51973982E+01
  7.59869910E+00  7.59869910E+00 -1.51973982E+01  7.59869910E+00  7.59869910E+00
 -1.51973982E+01  7.59869910E+00  7.59869910E+00 -1.51973982E+01  7.59869910E+00
  7.59869910E+00 -1.51973982E+01  7.59869910E+00  7.59869910E+00 -1.51973982E+01
  7.59869910E+00  7.59869910E+00 -1.51973982E+01  7.59869910E+00  7.59869910E+00
 -1.51973982E+01  7.59869910E+00  7.59869910E+00 -1.51973982E+01  7.59869910E+00
  7.59869910E+00 -1.51973982E+01  7.59869910E+00  7.59869910E+00 -1.51973982E+01
  7.59869910E+00  7.59869910E+00 -1.51973982E+01  7.59869910E+00  7.59869910E+00
 -1.51973982E+01  7.59869910E+00  7.59869910E+00 -1.51973982E+01  7.59869910E+00
  7.59869910E+00 -1.51973982E+01  7.59869910E+00  7.59869910E+00 -1.51973982E+01
  7.59869910E+00  7.59869910E+00 -1.51973982E+01  7.59869910E+00  7.59869910E+00
 -1.51973982E+01  7.59869910E+00  7.59869910E+00 -1.51973982E+01  7.59869910E+00
  7.59869910E+00 -1.51973982E+01  7.59869910E+00  7.59869910E+00 -1.51973982E+01
  7.59869910E+00  7.59869910E+00 -1.51973982E+01  7.59869910E+00  7.59869910E+00
 -1.51973982E+01  7.59869910E+00  7.59869910E+00 -1.51973982E+01  7.59869910E+00
  7.59869910E+00 -1.51973982E+01  7.59869910E+00  7.59869910E+00 -1.51973982E+01
  7.59869910E+00  7.59869910E+00 -1.51973982E+01  7.59869910E+00  7.59869910E+00
 -1.51973982E+01  7.59869910E+00  7.59869910E+00 -1.51973982E+01  7.59869910E+00
  7.59869910E+00 -1.51973982E+01  7.59869910E+00  7.59869910E+00 -1.51973982E+01
  7.59869910E+00  7.59869910E+00 -1.51973982E+01  7.59869910E+00  7.59869910E+00
 -1.51973982E+01  7.59869910E+00  7.59869910E+00 -1.51973982E+01  7.59869910E+00
  7.59869910E+00 -1.51973982E+01  7.59869910E+00  7.59869910E+00 -1.51973982E+01
  7.59869910E+00  7.59869910E+00 -1.51973982E+01  7.59869910E+00  7.59869910E+00
 -1.51973982E+01  7.59869910E+00  7.59869910E+00 -1.51973982E+01  7.59869910E+00
  7.59869910E+00 -1.51973982E+01  7.59869910E+00  7.59869910E+00 -1.51973982E+01
  7.59869910E+00  7.59869910E+00 -1.51973982E+01  7.59869910E+00  7.59869910E+00
 -1.51973982E+01  7.59869910E+00  7.59869910E+00 -1.51973982E+01  7.59869910E+00
  7.59869910E+00 -1.51973982E+01  7.59869910E+00  7.59869910E+00 -1.51973982E+01
  7.59869910E+00  7.59869910E+00 -1.51973982E+01  7.59869910E+00  7.59869910E+00
 -1.51973982E+01  7.59869910E+00  7.59869910E+00 -1.51973982E+01  7.59869910E+00
  7.59869910E+00 -1.51973982E+01  7.59869910E+00  7.59869910E+00 -1.51973982E+01
  7.59869910E+00  7.59869910E+00 -1.51973982E+01  7.59869910E+00  7.59869910E+00
 -1.51973982E+01  7.59869910E+00  7.59869910E+00 -1.51973982E+01  7.59869910E+00
  7.59869910E+00 -1.51973982E+01  7.59869910E+00  7.59869910E+00 -1.51973982E+01
  7.59869910E+00  7.59869910E+00 -1.51973982E+01  7.59869910E+00  7.59869910E+00
 -1.51973982E+01  7.59869910E+00  7.59869910E+00 -1.51973982E+01  7.59869910E+00
  7.59869910E+00 -1.51973982E+01  7.59869910E+00  7.59869910E+00 -1.51973982E+01
  7.59869910E+00  7.59869910E+00 -1.51973982E+01  7.59869910E+00  7.59869910E+00
 -1.51973982E+01  7.59869910E+00  7.59869910E+00 -1.51973982E+01  7.59869910E+00
  7.59869910E+00 -1.51973982E+01  7.59869910E+00  7.59869910E+00 -1.51973982E+01
  7.59869910E+00  7.59869910E+00 -1.51973982E+01  7.59869910E+00  7.59869910E+00
 -1.51973982E+01  7.59869910E+00  7.59869910E+00 -1.51973982E+01  7.59869910E+00
  7.59869910E+00 -1.51973982E+01  7.59869910E+00  7.59869910E+00 -1.51973982E+01
  7.59869910E+00  7.59869910E+00 -1.51973982E+01  7.59869910E+00  7.59869910E+00
 -1.51973982E+01  7.59869910E+00  7.59869910E+00 -1.51973982E+01  7.59869910E+00
  7.59869910E+00 -1.51973982E+01  7.59869910E+00  7.59869910E+00 -1.51973982E+01
  7.59869910E+00  7.59869910E+00 -1.51973982E+01  7.59869910E+00  7.59869910E+00
 -1.51973982E+01  7.59869910E+00  7.59869910E+00 -1.51973982E+01  7.59869910E+00
  7.59869910E+00 -1.51973982E+01  7.59869910E+00  7.59869910E+00 -1.51973982E+01
  7.59869910E+00  7.59869910E+00 -1.51973982E+01  7.59869910E+00  7.59869910E+00
 -1.51973982E+01  7.59869910E+00  7.59869910E+00 -1.51973982E+01  7.59869910E+00
  7.59869910E+00 -1.51973982E+01  7.59869910E+00  7.59869910E+00 -1.51973982E+01
  7.59869910E+00  7.59869910E+00 -1.51973982E+01  7.59869910E+00  7.59869910E+00
 -1.51973982E+01  7.59869910E+00  7.59869910E+00 -1.51973982E+01  7.59869910E+00
  7.59869910E+00 -1.51973982E+01  7.59869910E+00  7.59869910E+00 -1.51973982E+01
  7.59869910E+00  7.59869910E+00 -1.51973982E+01  7.59869910E+00  7.59869910E+00
 -1.51973982E+01  7.59869910E+00  7.59869910E+00 -1.51973982E+01  7.59869910E+00
  7.59869910E+00 -1.51973982E+01  7.59869910E+00  7.59869910E+00 -1.51973982E+01
  7.59869910E+00  7.59869910E+00 -1.51973982E+01  7.59869910E+00  7.59869910E+00
 -1.51973982E+01  7.59869910E+00  7.59869910E+00 -1.51973982E+01  7.59869910E+00
  7.59869910E+00 -1.51973982E+01  7.59869910E+00  7.59869910E+00 -1.51973982E+01
  7.59869910E+00  7.59869910E+00 -1.51973982E+01  7.59869910E+00  7.59869910E+00
 -1.51973982E+01  7.59869910E+00  7.59869910E+00 -1.51973982E+01  7.59869910E+00
  7.59869910E+00 -1.51973982E+01  7.59869910E+00  7.59869910E+00 -1.51973982E+01
  7.59869910E+00  7.59869910E+00 -1.51973982E+01  7.59869910E+00  7.59869910E+00
 -1.51973982E+01  7.59869910E+00  7.59869910E+00 -1.51973982E+01  7.59869910E+00
  7.59869910E+00 -1.51973982E+01  7.59869910E+00  7.59869910E+00 -1.51973982E+01
  7.59869910E+00  7.59869910E+00 -1.51973982E+01  7.59869910E+00  7.59869910E+00
 -1.51973982E+01  7.59869910E+00  7.59869910E+00 -1.51973982E+01  7.59869910E+00
  7.59869910E+00 -1.51973982E+01  7.59869910E+00  7.59869910E+00 -1.51973982E+01
  7.59869910E+00  7.59869910E+00 -1.51973982E+01  7.59869910E+00  7.59869910E+00
 -1.51973982E+01  7.59869910E+00  7.59869910E+00 -1.51973982E+01  7.59869910E+00
  7.59869910E+00 -1.51973982E+01  7.59869910E+00  7.59869910E+00 -1.51973982E+01
  7.59869910E+00  7.59869910E+00 -1.51973982E+01  7.59869910E+00  7.59869910E+00
 -1.51973982E+01  7.59869910E+00  7.59869910E+00 -1.51973982E+01  7.59869910E+00
  7.59869910E+00 -1.51973982E+01  7.59869910E+00  7.59869910E+00 -1.51973982E+01
  7.59869910E+00  7.59869910E+00 -1.51973982E+01  7.59869910E+00  7.59869910E+00
 -1.51973982E+01  7.59869910E+00  7.59869910E+00 -1.51973982E+01  7.59869910E+00
  7.59869910E+00 -1.51973982E+01  7.59869910E+00  7.59869910E+00 -1.51973982E+01
  7.59869910E+00  7.59869910E+00 -1.51973982E+01  7.59869910E+00  7.59869910E+00
 -1.51973982E+01  7.59869910E+00  7.59869910E+00 -1.51973982E+01  7.59869910E+00
  7.59869910E+00 -1.51973982E+01  7.59869910E+00  7.59869910E+00 -1.51973982E+01
  7.59869910E+00  7.59869910E+00 -1.51973982E+01  7.59869910E+00  7.59869910E+00
 -1.51973982E+01  7.59869910E+00  7.59869910E+00 -1.51973982E+01  7.59869910E+00
  7.59869910E+00 -1.51973982E+01  7.59869910E+00  7.59869910E+00 -1.51973982E+01
  7.59869910E+00  7.59869910E+00 -1.51973982E+01  7.59869910E+00  7.59869910E+00
 -1.51973982E+01  7.59869910E+00  7.59869910E+00 -1.51973982E+01  7.59869910E+00
  7.59869910E+00 -1.51973982E+01  7.59869910E+00  7.59869910E+00 -1.51973982E+01
  7.59869910E+00  7.59869910E+00 -1.51973982E+01  7.59869910E+00  7.59869910E+00
 -1.51973982E+01  7.59869910E+00  7.59869910E+00 -1.51973982E+01  7.59869910E+00
  7.59869910E+00 -1.51973982E+01  7.59869910E+00  7.59869910E+00 -1.51973982E+01
  7.59869910E+00  7.59869910E+00 -1.51973982E+01  7.59869910E+00  7.59869910E+00
 -1.51973982E+01  7.59869910E+00  7.59869910E+00 -1.51973982E+01  7.59869910E+00
  7.59869910E+00 -1.51973982E+01  7.59869910E+00  7.59869910E+00 -1.51973982E+01
  7.59869910E+00  7.59869910E+00 -1.51973982E+01  7.59869910E+00  7.59869910E+00
 -1.51973982E+01  7.59869910E+00  7.59869910E+00 -1.51973982E+01  7.59869910E+00
  7.59869910E+00 -1.51973982E+01  7.59869910E+00  7.59869910E+00 -1.51973982E+01
  7.59869910E+00  7.59869910E+00 -1.51973982E+01  7.59869910E+00  7.59869910E+00
 -1.51973982E+01  7.59869910E+00  7.59869910E+00 -1.51973982E+01  7.59869910E+00
  7.59869910E+00 -1.51973982E+01  7.59869910E+00  7.59869910E+00 -1.51973982E+01
  7.59869910E+00  7.59869910E+00 -1.51973982E+01  7.59869910E+00  7.59869910E+00
 -1.51973982E+01  7.59869910E+00  7.59869910E+00 -1.51973982E+01  7.59869910E+00
  7.59869910E+00 -1.51973982E+01  7.59869910E+00  7.59869910E+00 -1.51973982E+01
  7.59869910E+00  7.59869910E+00 -1.51973982E+01  7.59869910E+00  7.59869910E+00
 -1.51973982E+01  7.59869910E+00  7.59869910E+00 -1.51973982E+01  7.59869910E+00
  7.59869910E+00 -1.51973982E+01  7.59869910E+00  7.59869910E+00 -1.51973982E+01
  7.59869910E+00  7.59869910E+00 -1.51973982E+01  7.59869910E+00  7.59869910E+00
 -1.51973982E+01  7.59869910E+00  7.59869910E+00 -1.51973982E+01  7.59869910E+00
  7.59869910E+00 -1.51973982E+01  7.59869910E+00  7.59869910E+00 -1.51973982E+01
  7.59869910E+00  7.59869910E+00 -1.51973982E+01  7.59869910E+00  7.59869910E+00
 -1.51973982E+01  7.59869910E+00  7.59869910E+00 -1.51973982E+01  7.59869910E+00
  7.59869910E+00 -1.51973982E+01  7.59869910E+00  7.59869910E+00 -1.51973982E+01
  7.59869910E+00  7.59869910E+00 -1.51973982E+01  7.59869910E+00  7.59869910E+00
 -1.51973982E+01  7.59869910E+00  7.59869910E+00 -1.51973982E+01  7.59869910E+00
  7.59869910E+00 -1.51973982E+01  7.59869910E+00  7.59869910E+00 -1.51973982E+01
  7.59869910E+00  7.59869910E+00 -1.51973982E+01  7.59869910E+00  7.59869910E+00
 -1.51973982E+01  7.59869910E+00  7.59869910E+00 -1.51973982E+01  7.59869910E+00
  7.59869910E+00 -1.51973982E+01  7.59869910E+00  7.59869910E+00 -1.51973982E+01
  7.59869910E+00  7.59869910E+00 -1.51973982E+01  7.59869910E+00  7.59869910E+00
 -1.51973982E+01  7.59869910E+00  7.59869910E+00 -1.51973982E+01  7.59869910E+00
  7.59869910E+00 -1.51973982E+01  7.59869910E+00  7.59869910E+00 -1.51973982E+01
  7.59869910E+00  7.59869910E+00 -1.51973982E+01  7.59869910E+00  7.59869910E+00
 -1.51973982E+01  7.59869910E+00  7.59869910E+00 -1.51973982E+01  7.59869910E+00
  7.59869910E+00 -1.51973982E+01  7.59869910E+00  7.59869910E+00 -1.51973982E+01
  7.59869910E+00  7.59869910E+00 -1.51973982E+01  7.59869910E+00  7.59869910E+00
 -1.51973982E+01  7.59869910E+00  7.59869910E+00 -1.51973982E+01  7.59869910E+00
  7.59869910E+00 -1.51973982E+01  7.59869910E+00  7.59869910E+00 -1.51973982E+01
  7.59869910E+00  7.59869910E+00 -1.51973982E+01  7.59869910E+00  7.59869910E+00
 -1.51973982E+01  7.59869910E+00  7.59869910E+00 -1.51973982E+01  7.59869910E+00
  7.59869910E+00 -1.51973982E+01  7.59869910E+00  7.59869910E+00 -1.51973982E+01
  7.59869910E+00  7.59869910E+00 -1.51973982E+01  7.59869910E+00  7.59869910E+00
 -1.51973982E+01  7.59869910E+00  7.59869910E+00 -1.51973982E+01  7.59869910E+00
  7.59869910E+00 -1.51973982E+01  7.59869910E+00  7.59869910E+00 -1.51973982E+01
  7.59869910E+00  7.59869910E+00 -1.51973982E+01  7.59869910E+00  7.59869910E+00
 -1.51973982E+01  7.59869910E+00  7.59869910E+00 -1.51973982E+01  7.59869910E+00
  7.59869910E+00 -1.51973982E+01  7.59869910E+00  7.59869910E+00 -1.51973982E+01
  7.59869910E+00  7.59869910E+00 -1.51973982E+01  7.59869910E+00  7.59869910E+00
 -1.51973982E+01  7.59869910E+00  7.59869910E+00 -1.51973982E+01  7.59869910E+00
  7.59869910E+00 -1.51973982E+01  7.59869910E+00  7.59869910E+00 -1.51973982E+01
  7.59869910E+00  7.59869910E+00 -1.51973982E+01  7.59869910E+00  7.59869910E+00
 -1.51973982E+01  7.59869910E+00  7.59869910E+00 -1.51973982E+01  7.59869910E+00
  7.59869910E+00 -1.51973982E+01  7.59869910E+00  7.59869910E+00 -1.51973982E+01
  7.59869910E+00  7.59869910E+00 -1.51973982E+01  7.59869910E+00  7.59869910E+00
 -1.51973982E+01  7.59869910E+00  7.59869910E+00 -1.51973982E+01  7.59869910E+00
  7.59869910E+00 -1.51973982E+01  7.59869910E+00  7.59869910E+00 -1.51973982E+01
  7.59869910E+00  7.59869910E+00 -1.51973982E+01  7.59869910E+00  7.59869910E+00
 -1.51973982E+01  7.59869910E+00  7.59869910E+00 -1.51973982E+01  7.59869910E+00
  7.59869910E+00 -1.51973982E+01  7.59869910E+00  7.59869910E+00 -1.51973982E+01
  7.59869910E+00  7.59869910E+00 -1.51973982E+01  7.59869910E+00  7.59869910E+00
 -1.51973982E+01  7.59869910E+00  7.59869910E+00 -1.51973982E+01  7.59869910E+00
  7.59869910E+00 -1.51973982E+01  7.59869910E+00  7.59869910E+00 -1.51973982E+01
  7.59869910E+00  7.59869910E+00 -1.51973982E+01  7.59869910E+00  7.59869910E+00
 -1.51973982E+01  7.59869910E+00  7.59869910E+00 -1.51973982E+01  7.59869910E+00
  7.59869910E+00 -1.51973982E+01  7.59869910E+00  7.59869910E+00 -1.51973982E+01
  7.59869910E+00  7.59869910E+00 -1.51973982E+01  7.59869910E+00  7.59869910E+00
 -1.51973982E+01  7.59869910E+00  7.59869910E+00 -1.51973982E+01  7.59869910E+00
  7.59869910E+00 -1.51973982E+01  7.59869910E+00  7.59869910E+00 -1.51973982E+01
  7.59869910E+00  7.59869910E+00 -1.51973982E+01  7.59869910E+00  7.59869910E+00
 -1.51973982E+01  7.59869910E+00  7.59869910E+00 -1.51973982E+01  7.59869910E+00
  7.59869910E+00 -1.51973982E+01  7.59869910E+00  7.59869910E+00 -1.51973982E+01
  7.59869910E+00  7.59869910E+00 -1.51973982E+01  7.59869910E+00  7.59869910E+00
 -1.51973982E+01  7.59869910E+00  7.59869910E+00 -1.51973982E+01  7.59869910E+00
  7.59869910E+00 -1.51973982E+01  7.59869910E+00  7.59869910E+00 -1.51973982E+01
  7.59869910E+00  7.59869910E+00 -1.51973982E+01  7.59869910E+00  7.59869910E+00
 -1.51973982E+01  7.59869910E+00  7.59869910E+00 -1.51973982E+01  7.59869910E+00
  7.59869910E+00 -1.51973982E+01  7.59869910E+00  7.59869910E+00 -1.51973982E+01
  7.59869910E+00  7.59869910E+00 -1.51973982E+01  7.59869910E+00  7.59869910E+00
 -1.51973982E+01  7.59869910E+00  7.59869910E+00 -1.51973982E+01  7.59869910E+00
  7.59869910E+00 -1.51973982E+01  7.59869910E+00  7.59869910E+00 -1.51973982E+01
  7.59869910E+00  7.59869910E+00 -1.51973982E+01  7.59869910E+00  7.59869910E+00
 -1.51973982E+01  7.59869910E+00  7.59869910E+00 -1.51973982E+01  7.59869910E+00
  7.59869910E+00 -1.51973982E+01  7.59869910E+00  7.59869910E+00 -1.51973982E+01
  7.59869910E+00  7.59869910E+00 -1.51973982E+01  7.59869910E+00  7.59869910E+00
 -1.51973982E+01  7.59869910E+00  7.59869910E+00 -1.51973982E+01  7.59869910E+00
  7.59869910E+00 -1.51973982E+01  7.59869910E+00  7.59869910E+00 -1.51973982E+01
  7.59869910E+00  7.59869910E+00 -1.51973982E+01  7.59869910E+00  7.59869910E+00
 -1.51973982E+01  7.59869910E+00  7.59869910E+00 -1.51973982E+01  7.59869910E+00
  7.59869910E+00 -1.51973982E+01  7.59869910E+00  7.59869910E+00 -1.51973982E+01
  7.59869910E+00  7.59869910E+00 -1.51973982E+01  7.59869910E+00  7.59869910E+00
 -1.51973982E+01  7.59869910E+00  7.59869910E+00 -1.51973982E+01  7.59869910E+00
  7.59869910E+00 -1.51973982E+01  7.59869910E+00  7.59869910E+00 -1.51973982E+01
  7.59869910E+00  7.59869910E+00 -1.51973982E+01  7.59869910E+00  7.59869910E+00
 -1.51973982E+01  7.59869910E+00  7.59869910E+00 -1.51973982E+01  7.59869910E+00
  7.59869910E+00 -1.51973982E+01  7.59869910E+00  7.59869910E+00 -1.51973982E+01
  7.59869910E+00  7.59869910E+00 -1.51973982E+01  7.59869910E+00  7.59869910E+00
 -1.51973982E+01  7.59869910E+00  7.59869910E+00 -1.51973982E+01  7.59869910E+00
  7.59869910E+00 -1.51973982E+01  7.59869910E+00  7.59869910E+00 -1.51973982E+01
  7.59869910E+00  7.59869910E+00 -1.51973982E+01  7.59869910E+00  7.59869910E+00
 -1.51973982E+01  7.59869910E+00  7.59869910E+00 -1.51973982E+01  7.59869910E+00
  7.59869910E+00 -1.51973982E+01  7.59869910E+00  7.59869910E+00 -1.51973982E+01
  7.59869910E+00  7.59869910E+00 -1.51973982E+01  7.59869910E+00  7.59869910E+00
 -1.51973982E+01  7.59869910E+00  7.59869910E+00 -1.51973982E+01  7.59869910E+00
  7.59869910E+00 -1.51973982E+01  7.59869910E+00  7.59869910E+00 -1.51973982E+01
  7.59869910E+00  7.59869910E+00 -1.51973982E+01  7.59869910E+00  7.59869910E+00
 -1.51973982E+01  7.59869910E+00  7.59869910E+00 -1.51973982E+01  7.59869910E+00
  7.59869910E+00 -1.51973982E+01  7.59869910E+00  7.59869910E+00 -1.51973982E+01
  7.59869910E+00  7.59869910E+00 -1.51973982E+01  7.59869910E+00  7.59869910E+00
 -1.51973982E+01  7.59869910E+00  7.59869910E+00 -1.51973982E+01  7.59869910E+00
  7.59869910E+00 -1.51973982E+01  7.59869910E+00  7.59869910E+00 -1.51973982E+01
  7.59869910E+00  7.59869910E+00 -1.51973982E+01  7.59869910E+00  7.59869910E+00
 -1.51973982E+01  7.59869910E+00  7.59869910E+00 -1.51973982E+01  7.59869910E+00
  7.59869910E+00 -1.51973982E+01  7.59869910E+00  7.59869910E+00 -1.51973982E+01
  7.59869910E+00  7.59869910E+00 -1.51973982E+01  7.59869910E+00  7.59869910E+00
 -1.51973982E+01  7.59869910E+00  7.59869910E+00 -1.51973982E+01  7.59869910E+00
  7.59869910E+00 -1.51973982E+01  7.59869910E+00  7.59869910E+00 -1.51973982E+01
  7.59869910E+00  7.59869910E+00 -1.51973982E+01  7.59869910E+00  7.59869910E+00
 -1.51973982E+01  7.59869910E+00  7.59869910E+00 -1.51973982E+01  7.59869910E+00
  7.59869910E+00 -1.51973982E+01  7.59869910E+00  7.59869910E+00 -1.51973982E+01
  7.59869910E+00  7.59869910E+00 -1.51973982E+01  7.59869910E+00  7.59869910E+00
 -1.51973982E+01  7.59869910E+00  7.59869910E+00 -1.51973982E+01  7.59869910E+00
  7.59869910E+00 -1.51973982E+01  7.59869910E+00  7.59869910E+00 -1.51973982E+01
  7.59869910E+00  7.59869910E+00 -1.51973982E+01  7.59869910E+00  7.59869910E+00
 -1.51973982E+01  7.59869910E+00  7.59869910E+00 -1.51973982E+01  7.59869910E+00
  7.59869910E+00 -1.51973982E+01  7.59869910E+00  7.59869910E+00 -1.51973982E+01
  7.59869910E+00  7.59869910E+00 -1.51973982E+01  7.59869910E+00  7.59869910E+00
 -1.51973982E+01  7.59869910E+00  7.59869910E+00 -1.51973982E+01  7.59869910E+00
  7.59869910E+00 -1.51973982E+01  7.59869910E+00  7.59869910E+00 -1.51973982E+01
  7.59869910E+00  7.59869910E+00 -1.51973982E+01  7.59869910E+00  7.59869910E+00
 -1.51973982E+01  7.59869910E+00  7.59869910E+00 -1.51973982E+01  7.59869910E+00
  7.59869910E+00 -1.51973982E+01  7.59869910E+00  7.59869910E+00 -1.51973982E+01
  7.59869910E+00  7.59869910E+00 -1.51973982E+01  7.59869910E+00  7.59869910E+00
 -1.51973982E+01  7.59869910E+00  7.59869910E+00 -1.51973982E+01  7.59869910E+00
  7.59869910E+00 -1.51973982E+01  7.59869910E+00  7.59869910E+00 -1.51973982E+01
  7.59869910E+00  7.59869910E+00 -1.51973982E+01  7.59869910E+00  7.59869910E+00
 -1.51973982E+01  7.59869910E+00  7.59869910E+00 -1.51973982E+01  7.59869910E+00
  7.59869910E+00 -1.51973982E+01  7.59869910E+00  7.59869910E+00 -1.51973982E+01
  7.59869910E+00  7.59869910E+00 -1.51973982E+01  7.59869910E+00  7.59869910E+00
 -1.51973982E+01  7.59869910E+00  7.59869910E+00 -1.51973982E+01  7.59869910E+00
  7.59869910E+00 -1.51973982E+01  7.59869910E+00  7.59869910E+00 -1.51973982E+01
  7.59869910E+00  7.59869910E+00 -1.51973982E+01  7.59869910E+00  7.59869910E+00
 -1.51973982E+01  7.59869910E+00  7.59869910E+00 -1.51973982E+01  7.59869910E+00
  7.59869910E+00 -1.51973982E+01  7.59869910E+00  7.59869910E+00 -1.51973982E+01
  7.59869910E+00  7.59869910E+00 -1.51973982E+01  7.59869910E+00  7.59869910E+00
 -1.51973982E+01  7.59869910E+00  7.59869910E+00 -1.51973982E+01  7.59869910E+00
  7.59869910E+00 -1.51973982E+01  7.59869910E+00  7.59869910E+00 -1.51973982E+01
  7.59869910E+00  7.59869910E+00 -1.51973982E+01  7.59869910E+00  7.59869910E+00
 -1.51973982E+01  7.59869910E+00  7.59869910E+00 -1.51973982E+01  7.59869910E+00
  7.59869910E+00 -1.51973982E+01  7.59869910E+00  7.59869910E+00 -1.51973982E+01
  7.59869910E+00  7.59869910E+00 -1.51973982E+01  7.59869910E+00  7.59869910E+00
 -1.51973982E+01  7.59869910E+00  7.59869910E+00 -1.51973982E+01  7.59869910E+00
  7.59869910E+00 -1.51973982E+01  7.59869910E+00  7.59869910E+00 -1.51973982E+01
  7.59869910E+00  7.59869910E+00 -1.51973982E+01  7.59869910E+00  7.59869910E+00
 -1.51973982E+01  7.59869910E+00  7.59869910E+00 -1.51973982E+01  7.59869910E+00
  7.59869910E+00 -1.51973982E+01  7.59869910E+00  7.59869910E+00 -1.51973982E+01
  7.59869910E+00  7.59869910E+00 -1.51973982E+01  7.59869910E+00  7.59869910E+00
 -1.51973982E+01  7.59869910E+00  7.59869910E+00 -1.51973982E+01  7.59869910E+00
  7.59869910E+00 -1.51973982E+01  7.59869910E+00  7.59869910E+00 -1.51973982E+01
  7.59869910E+00  7.59869910E+00 -1.51973982E+01  7.59869910E+00  7.59869910E+00
 -1.51973982E+01  7.59869910E+00  7.59869910E+00 -1.51973982E+01  7.59869910E+00
  7.59869910E+00 -1.51973982E+01  7.59869910E+00  7.59869910E+00 -1.51973982E+01
  7.59869910E+00  7.59869910E+00 -1.51973982E+01  7.59869910E+00  7.59869910E+00
 -1.51973982E+01  7.59869910E+00  7.59869910E+00 -1.51973982E+01  7.59869910E+00
  7.59869910E+00 -1.51973982E+01  7.59869910E+00  7.59869910E+00 -1.51973982E+01
  7.59869910E+00  7.59869910E+00 -1.51973982E+01  7.59869910E+00  7.59869910E+00
 -1.51973982E+01  7.59869910E+00  7.59869910E+00 -1.51973982E+01  7.59869910E+00
  7.59869910E+00 -1.51973982E+01  7.59869910E+00  7.59869910E+00 -1.51973982E+01
  7.59869910E+00  7.59869910E+00 -1.51973982E+01  7.59869910E+00  7.59869910E+00
 -1.51973982E+01  7.59869910E+00  7.59869910E+00 -1.51973982E+01  7.59869910E+00
  7.59869910E+00 -1.51973982E+01  7.59869910E+00  7.59869910E+00 -1.51973982E+01
  7.59869910E+00  7.59869910E+00 -1.51973982E+01  7.59869910E+00  7.59869910E+00
 -1.51973982E+01  7.59869910E+00  7.59869910E+00 -1.51973982E+01  7.59869910E+00
  7.59869910E+00 -1.51973982E+01  7.59869910E+00  7.59869910E+00 -1.51973982E+01
  7.59869910E+00  7.59869910E+00 -1.51973982E+01  7.59869910E+00  7.59869910E+00
 -1.51973982E+01  7.59869910E+00  7.59869910E+00 -1.51973982E+01  7.59869910E+00
  7.59869910E+00 -1.51973982E+01  7.59869910E+00  7.59869910E+00 -1.51973982E+01
  7.59869910E+00  7.59869910E+00 -1.51973982E+01  7.59869910E+00  7.59869910E+00
 -1.51973982E+01  7.59869910E+00  7.59869910E+00 -1.51973982E+01  7.59869910E+00
  7.59869910E+00 -1.51973982E+01  7.59869910E+00  7.59869910E+00 -1.51973982E+01
  7.59869910E+00  7.59869910E+00 -1.51973982E+01  7.59869910E+00  7.59869910E+00
 -1.51973982E+01  7.59869910E+00  7.59869910E+00 -1.51973982E+01  7.59869910E+00
  7.59869910E+00 -1.51973982E+01  7.59869910E+00  7.59869910E+00 -1.51973982E+01
  7.59869910E+00  7.59869910E+00 -1.51973982E+01  7.59869910E+00  7.59869910E+00
 -1.51973982E+01  7.59869910E+00  7.59869910E+00 -1.51973982E+01  7.59869910E+00
  7.59869910E+00 -1.51973982E+01  7.59869910E+00  7.59869910E+00 -1.51973982E+01
  7.59869910E+00  7.59869910E+00 -1.51973982E+01  7.59869910E+00  7.59869910E+00
 -1.51973982E+01  7.59869910E+00  7.59869910E+00 -1.51973982E+01  7.59869910E+00
  7.59869910E+00 -1.51973982E+01  7.59869910E+00  7.59869910E+00 -1.51973982E+01
  7.59869910E+00  7.59869910E+00 -1.51973982E+01  7.59869910E+00  7.59869910E+00
 -1.51973982E+01  7.59869910E+00  7.59869910E+00 -1.51973982E+01  7.59869910E+00
  7.59869910E+00 -1.51973982E+01  7.59869910E+00  7.59869910E+00 -1.51973982E+01
  7.59869910E+00  7.59869910E+00 -1.51973982E+01  7.59869910E+00  7.59869910E+00
 -1.51973982E+01  7.59869910E+00  7.59869910E+00 -1.51973982E+01  7.59869910E+00
  7.59869910E+00 -1.51973982E+01  7.59869910E+00  7.59869910E+00 -1.51973982E+01
  7.59869910E+00  7.59869910E+00 -1.51973982E+01  7.59869910E+00  7.59869910E+00
 -1.51973982E+01  7.59869910E+00  7.59869910E+00 -1.51973982E+01  7.59869910E+00
  7.59869910E+00 -1.51973982E+01  7.59869910E+00  7.59869910E+00 -1.51973982E+01
  7.59869910E+00  7.59869910E+00 -1.51973982E+01  7.59869910E+00  7.59869910E+00
 -1.51973982E+01  7.59869910E+00  7.59869910E+00 -1.51973982E+01  7.59869910E+00
  7.59869910E+00 -1.51973982E+01  7.59869910E+00  7.59869910E+00 -1.51973982E+01
  7.59869910E+00  7.59869910E+00 -1.51973982E+01  7.59869910E+00  7.59869910E+00
 -1.51973982E+01  7.59869910E+00  7.59869910E+00 -1.51973982E+01  7.59869910E+00
  7.59869910E+00 -1.51973982E+01  7.59869910E+00  7.59869910E+00 -1.51973982E+01
  7.59869910E+00  7.59869910E+00 -1.51973982E+01  7.59869910E+00  7.59869910E+00
 -1.51973982E+01  7.59869910E+00  7.59869910E+00 -1.51973982E+01  7.59869910E+00
  7.59869910E+00 -1.51973982E+01  7.59869910E+00  7.59869910E+00 -1.51973982E+01
  7.59869910E+00  7.59869910E+00 -1.51973982E+01  7.59869910E+00  7.59869910E+00
 -1.51973982E+01  7.59869910E+00  7.59869910E+00 -1.51973982E+01  7.59869910E+00
  7.59869910E+00 -1.51973982E+01  7.59869910E+00  7.59869910E+00 -1.51973982E+01
  7.59869910E+00  7.59869910E+00 -1.51973982E+01  7.59869910E+00  7.59869910E+00
 -1.51973982E+01  7.59869910E+00  7.59869910E+00 -1.51973982E+01  7.59869910E+00
  7.59869910E+00 -1.51973982E+01  7.59869910E+00  7.59869910E+00 -1.51973982E+01
  7.59869910E+00  7.59869910E+00 -1.51973982E+01  7.59869910E+00  7.59869910E+00
 -1.51973982E+01  7.59869910E+00  7.59869910E+00 -1.51973982E+01  7.59869910E+00
  7.59869910E+00 -1.51973982E+01  7.59869910E+00  7.59869910E+00 -1.51973982E+01
  7.59869910E+00  7.59869910E+00 -1.51973982E+01  7.59869910E+00  7.59869910E+00
 -1.51973982E+01  7.59869910E+00  7.59869910E+00 -1.51973982E+01  7.59869910E+00
  7.59869910E+00 -1.51973982E+01  7.59869910E+00  7.59869910E+00 -1.51973982E+01
  7.59869910E+00  7.59869910E+00 -1.51973982E+01  7.59869910E+00  7.59869910E+00
 -1.51973982E+01  7.59869910E+00  7.59869910E+00 -1.51973982E+01  7.59869910E+00
  7.59869910E+00 -1.51973982E+01  7.59869910E+00  7.59869910E+00 -1.51973982E+01
  7.59869910E+00  7.59869910E+00 -1.51973982E+01  7.59869910E+00  7.59869910E+00
 -1.51973982E+01  7.59869910E+00  7.59869910E+00 -1.51973982E+01  7.59869910E+00
  7.59869910E+00 -1.51973982E+01  7.59869910E+00  7.59869910E+00 -1.51973982E+01
  7.59869910E+00  7.59869910E+00 -1.51973982E+01  7.59869910E+00  7.59869910E+00
 -1.51973982E+01  7.59869910E+00  7.59869910E+00 -1.51973982E+01  7.59869910E+00
  7.59869910E+00 -1.51973982E+01  7.59869910E+00  7.59869910E+00 -1.51973982E+01
  7.59869910E+00  7.59869910E+00 -1.51973982E+01  7.59869910E+00  7.59869910E+00
 -1.51973982E+01  7.59869910E+00  7.59869910E+00 -1.51973982E+01  7.59869910E+00
  7.59869910E+00 -1.51973982E+01  7.59869910E+00  7.59869910E+00 -1.51973982E+01
  7.59869910E+00  7.59869910E+00 -1.51973982E+01  7.59869910E+00  7.59869910E+00
 -1.51973982E+01  7.59869910E+00  7.59869910E+00 -1.51973982E+01  7.59869910E+00
  7.59869910E+00 -1.51973982E+01  7.59869910E+00  7.59869910E+00 -1.51973982E+01
  7.59869910E+00  7.59869910E+00 -1.51973982E+01  7.59869910E+00  7.59869910E+00
 -1.51973982E+01  7.59869910E+00  7.59869910E+00 -1.51973982E+01  7.59869910E+00
  7.59869910E+00 -1.51973982E+01  7.59869910E+00  7.59869910E+00 -1.51973982E+01
  7.59869910E+00  7.59869910E+00 -1.51973982E+01  7.59869910E+00  7.59869910E+00
 -1.51973982E+01  7.59869910E+00  7.59869910E+00 -1.51973982E+01  7.59869910E+00
  7.59869910E+00 -1.51973982E+01  7.59869910E+00  7.59869910E+00 -1.51973982E+01
  7.59869910E+00  7.59869910E+00 -1.51973982E+01  7.59869910E+00  7.59869910E+00
 -1.51973982E+01  7.59869910E+00  7.59869910E+00 -1.51973982E+01  7.59869910E+00
  7.59869910E+00 -1.51973982E+01  7.59869910E+00  7.59869910E+00 -1.51973982E+01
  7.59869910E+00  7.59869910E+00 -1.51973982E+01  7.59869910E+00  7.59869910E+00
 -1.51973982E+01  7.59869910E+00  7.59869910E+00 -1.51973982E+01  7.59869910E+00
  7.59869910E+00 -1.51973982E+01  7.59869910E+00  7.59869910E+00 -1.51973982E+01
  7.59869910E+00  7.59869910E+00 -1.51973982E+01  7.59869910E+00  7.59869910E+00
 -1.51973982E+01  7.59869910E+00  7.59869910E+00 -1.51973982E+01  7.59869910E+00
  7.59869910E+00 -1.51973982E+01  7.59869910E+00  7.59869910E+00 -1.51973982E+01
  7.59869910E+00  7.59869910E+00 -1.51973982E+01  7.59869910E+00  7.59869910E+00
 -1.51973982E+01  7.59869910E+00  7.59869910E+00 -1.51973982E+01  7.59869910E+00
  7.59869910E+00 -1.51973982E+01  7.59869910E+00  7.59869910E+00 -1.51973982E+01
  7.59869910E+00  7.59869910E+00 -1.51973982E+01  7.59869910E+00  7.59869910E+00
 -1.51973982E+01  7.59869910E+00  7.59869910E+00 -1.51973982E+01  7.59869910E+00
  7.59869910E+00 -1.51973982E+01  7.59869910E+00  7.59869910E+00 -1.51973982E+01
  7.59869910E+00  7.59869910E+00 -1.51973982E+01  7.59869910E+00  7.59869910E+00
 -1.51973982E+01  7.59869910E+00  7.59869910E+00 -1.51973982E+01  7.59869910E+00
  7.59869910E+00 -1.51973982E+01  7.59869910E+00  7.59869910E+00 -1.51973982E+01
  7.59869910E+00  7.59869910E+00 -1.51973982E+01  7.59869910E+00  7.59869910E+00
 -1.51973982E+01  7.59869910E+00  7.59869910E+00 -1.51973982E+01  7.59869910E+00
  7.59869910E+00 -1.51973982E+01  7.59869910E+00  7.59869910E+00 -1.51973982E+01
  7.59869910E+00  7.59869910E+00 -1.51973982E+01  7.59869910E+00  7.59869910E+00
 -1.51973982E+01  7.59869910E+00  7.59869910E+00 -1.51973982E+01  7.59869910E+00
  7.59869910E+00 -1.51973982E+01  7.59869910E+00  7.59869910E+00 -1.51973982E+01
  7.59869910E+00  7.59869910E+00 -1.51973982E+01  7.59869910E+00  7.59869910E+00
 -1.51973982E+01  7.59869910E+00  7.59869910E+00 -1.51973982E+01  7.59869910E+00
  7.59869910E+00 -1.51973982E+01  7.59869910E+00  7.59869910E+00 -1.51973982E+01
  7.59869910E+00  7.59869910E+00 -1.51973982E+01  7.59869910E+00  7.59869910E+00
 -1.51973982E+01  7.59869910E+00  7.59869910E+00 -1.51973982E+01  7.59869910E+00
  7.59869910E+00 -1.51973982E+01  7.59869910E+00  7.59869910E+00 -1.51973982E+01
  7.59869910E+00  7.59869910E+00 -1.51973982E+01  7.59869910E+00  7.59869910E+00
 -1.51973982E+01  7.59869910E+00  7.59869910E+00 -1.51973982E+01  7.59869910E+00
  7.59869910E+00 -1.51973982E+01  7.59869910E+00  7.59869910E+00 -1.51973982E+01
  7.59869910E+00  7.59869910E+00 -1.51973982E+01  7.59869910E+00  7.59869910E+00
 -1.51973982E+01  7.59869910E+00  7.59869910E+00 -1.51973982E+01  7.59869910E+00
  7.59869910E+00 -1.51973982E+01  7.59869910E+00  7.59869910E+00 -1.51973982E+01
  7.59869910E+00  7.59869910E+00 -1.51973982E+01  7.59869910E+00  7.59869910E+00
 -1.51973982E+01  7.59869910E+00  7.59869910E+00 -1.51973982E+01  7.59869910E+00
  7.59869910E+00 -1.51973982E+01  7.59869910E+00  7.59869910E+00 -1.51973982E+01
  7.59869910E+00  7.59869910E+00 -1.51973982E+01  7.59869910E+00  7.59869910E+00
 -1.51973982E+01  7.59869910E+00  7.59869910E+00 -1.51973982E+01  7.59869910E+00
  7.59869910E+00 -1.51973982E+01  7.59869910E+00  7.59869910E+00 -1.51973982E+01
  7.59869910E+00  7.59869910E+00 -1.51973982E+01  7.59869910E+00  7.59869910E+00
 -1.51973982E+01  7.59869910E+00  7.59869910E+00 -1.51973982E+01  7.59869910E+00
  7.59869910E+00 -1.51973982E+01  7.59869910E+00  7.59869910E+00 -1.51973982E+01
  7.59869910E+00  7.59869910E+00 -1.51973982E+01  7.59869910E+00  7.59869910E+00
 -1.51973982E+01  7.59869910E+00  7.59869910E+00 -1.51973982E+01  7.59869910E+00
  7.59869910E+00 -1.51973982E+01  7.59869910E+00  7.59869910E+00 -1.51973982E+01
  7.59869910E+00  7.59869910E+00 -1.51973982E+01  7.59869910E+00  7.59869910E+00
 -1.51973982E+01  7.59869910E+00  7.59869910E+00 -1.51973982E+01  7.59869910E+00
  7.59869910E+00 -1.51973982E+01  7.59869910E+00  7.59869910E+00 -1.51973982E+01
  7.59869910E+00  7.59869910E+00 -1.51973982E+01  7.59869910E+00  7.59869910E+00
 -1.51973982E+01  7.59869910E+00  7.59869910E+00 -1.51973982E+01  7.59869910E+00
  7.59869910E+00 -1.51973982E+01  7.59869910E+00  7.59869910E+00 -1.51973982E+01
  7.59869910E+00  7.59869910E+00 -1.51973982E+01  7.59869910E+00  7.59869910E+00
 -1.51973982E+01  7.59869910E+00  7.59869910E+00 -1.51973982E+01  7.59869910E+00
  7.59869910E+00 -1.51973982E+01  7.59869910E+00  7.59869910E+00 -1.51973982E+01
  7.59869910E+00  7.59869910E+00 -1.51973982E+01  7.59869910E+00  7.59869910E+00
 -1.51973982E+01  7.59869910E+00  7.59869910E+00 -1.51973982E+01  7.59869910E+00
  7.59869910E+00 -1.51973982E+01  7.59869910E+00  7.59869910E+00 -1.51973982E+01
  7.59869910E+00  7.59869910E+00 -1.51973982E+01  7.59869910E+00  7.59869910E+00
 -1.51973982E+01  7.59869910E+00  7.59869910E+00 -1.51973982E+01  7.59869910E+00
  7.59869910E+00 -1.51973982E+01  7.59869910E+00  7.59869910E+00 -1.51973982E+01
  7.59869910E+00  7.59869910E+00 -1.51973982E+01  7.59869910E+00  7.59869910E+00
 -1.51973982E+01  7.59869910E+00  7.59869910E+00 -1.51973982E+01  7.59869910E+00
  7.59869910E+00 -1.51973982E+01  7.59869910E+00  7.59869910E+00 -1.51973982E+01
  7.59869910E+00  7.59869910E+00 -1.51973982E+01  7.59869910E+00  7.59869910E+00
 -1.51973982E+01  7.59869910E+00  7.59869910E+00 -1.51973982E+01  7.59869910E+00
  7.59869910E+00 -1.51973982E+01  7.59869910E+00  7.59869910E+00 -1.51973982E+01
  7.59869910E+00  7.59869910E+00 -1.51973982E+01  7.59869910E+00  7.59869910E+00
 -1.51973982E+01  7.59869910E+00  7.59869910E+00 -1.51973982E+01  7.59869910E+00
  7.59869910E+00 -1.51973982E+01  7.59869910E+00  7.59869910E+00 -1.51973982E+01
  7.59869910E+00  7.59869910E+00 -1.51973982E+01  7.59869910E+00  7.59869910E+00
 -1.51973982E+01  7.59869910E+00  7.59869910E+00 -1.51973982E+01  7.59869910E+00
  7.59869910E+00 -1.51973982E+01  7.59869910E+00  7.59869910E+00 -1.51973982E+01
  7.59869910E+00  7.59869910E+00 -1.51973982E+01  7.59869910E+00  7.59869910E+00
 -1.51973982E+01  7.59869910E+00  7.59869910E+00 -1.51973982E+01  7.59869910E+00
  7.59869910E+00 -1.51973982E+01  7.59869910E+00  7.59869910E+00 -1.51973982E+01
  7.59869910E+00  7.59869910E+00 -1.51973982E+01  7.59869910E+00  7.59869910E+00
 -1.51973982E+01  7.59869910E+00  7.59869910E+00 -1.51973982E+01  7.59869910E+00
  7.59869910E+00 -1.51973982E+01  7.59869910E+00  7.59869910E+00 -1.51973982E+01
  7.59869910E+00  7.59869910E+00 -1.51973982E+01  7.59869910E+00  7.59869910E+00
 -1.51973982E+01  7.59869910E+00  7.59869910E+00 -1.51973982E+01  7.59869910E+00
  7.59869910E+00 -1.51973982E+01  7.59869910E+00  7.59869910E+00 -1.51973982E+01
  7.59869910E+00  7.59869910E+00 -1.51973982E+01  7.59869910E+00  7.59869910E+00
 -1.51973982E+01  7.59869910E+00  7.59869910E+00 -1.51973982E+01  7.59869910E+00
  7.59869910E+00 -1.51973982E+01  7.59869910E+00  7.59869910E+00 -1.51973982E+01
  7.59869910E+00  7.59869910E+00 -1.51973982E+01  7.59869910E+00  7.59869910E+00
 -1.51973982E+01  7.59869910E+00  7.59869910E+00 -1.51973982E+01  7.59869910E+00
  7.59869910E+00 -1.51973982E+01  7.59869910E+00  7.59869910E+00 -1.51973982E+01
  7.59869910E+00  7.59869910E+00 -1.51973982E+01  7.59869910E+00  7.59869910E+00
 -1.51973982E+01  7.59869910E+00  7.59869910E+00 -1.51973982E+01  7.59869910E+00
  7.59869910E+00 -1.51973982E+01  7.59869910E+00  7.59869910E+00 -1.51973982E+01
  7.59869910E+00  7.59869910E+00 -1.51973982E+01  7.59869910E+00  7.59869910E+00
 -1.51973982E+01  7.59869910E+00  7.59869910E+00 -1.51973982E+01  7.59869910E+00
  7.59869910E+00 -1.51973982E+01  7.59869910E+00  7.59869910E+00 -1.51973982E+01
  7.59869910E+00  7.59869910E+00 -1.51973982E+01  7.59869910E+00  7.59869910E+00
 -1.51973982E+01  7.59869910E+00  7.59869910E+00 -1.51973982E+01  7.59869910E+00
  7.59869910E+00 -1.51973982E+01  7.59869910E+00  7.59869910E+00 -1.51973982E+01
  7.59869910E+00  7.59869910E+00 -1.51973982E+01  7.59869910E+00  7.59869910E+00
 -1.51973982E+01  7.59869910E+00  7.59869910E+00 -1.51973982E+01  7.59869910E+00
  7.59869910E+00 -1.51973982E+01  7.59869910E+00  7.59869910E+00 -1.51973982E+01
  7.59869910E+00  7.59869910E+00 -1.51973982E+01  7.59869910E+00  7.59869910E+00
 -1.51973982E+01  7.59869910E+00  7.59869910E+00 -1.51973982E+01  7.59869910E+00
  7.59869910E+00 -1.51973982E+01  7.59869910E+00  7.59869910E+00 -1.51973982E+01
  7.59869910E+00  7.59869910E+00 -1.51973982E+01  7.59869910E+00  7.59869910E+00
 -1.51973982E+01  7.59869910E+00  7.59869910E+00 -1.51973982E+01  7.59869910E+00
  7.59869910E+00 -1.51973982E+01  7.59869910E+00  7.59869910E+00 -1.51973982E+01
  7.59869910E+00  7.59869910E+00 -1.51973982E+01  7.59869910E+00  7.59869910E+00
 -1.51973982E+01  7.59869910E+00  7.59869910E+00 -1.51973982E+01  7.59869910E+00
  7.59869910E+00 -1.51973982E+01  7.59869910E+00  7.59869910E+00 -1.51973982E+01
  7.59869910E+00  7.59869910E+00 -1.51973982E+01  7.59869910E+00  7.59869910E+00
 -1.51973982E+01  7.59869910E+00  7.59869910E+00 -1.51973982E+01  7.59869910E+00
  7.59869910E+00 -1.51973982E+01  7.59869910E+00  7.59869910E+00 -1.51973982E+01
  7.59869910E+00  7.59869910E+00 -1.51973982E+01  7.59869910E+00  7.59869910E+00
 -1.51973982E+01  7.59869910E+00  7.59869910E+00 -1.51973982E+01  7.59869910E+00
  7.59869910E+00 -1.51973982E+01  7.59869910E+00  7.59869910E+00 -1.51973982E+01
  7.59869910E+00  7.59869910E+00 -1.51973982E+01  7.59869910E+00  7.59869910E+00
 -1.51973982E+01  7.59869910E+00  7.59869910E+00 -1.51973982E+01  7.59869910E+00
  7.59869910E+00 -1.51973982E+01  7.59869910E+00  7.59869910E+00 -1.51973982E+01
  7.59869910E+00  7.59869910E+00 -1.51973982E+01  7.59869910E+00  7.59869910E+00
 -1.51973982E+01  7.59869910E+00  7.59869910E+00 -1.51973982E+01  7.59869910E+00
  7.59869910E+00 -1.51973982E+01  7.59869910E+00  7.59869910E+00 -1.51973982E+01
  7.59869910E+00  7.59869910E+00 -1.51973982E+01  7.59869910E+00  7.59869910E+00
 -1.51973982E+01  7.59869910E+00  7.59869910E+00 -1.51973982E+01  7.59869910E+00
  7.59869910E+00 -1.51973982E+01  7.59869910E+00  7.59869910E+00 -1.51973982E+01
  7.59869910E+00  7.59869910E+00 -1.51973982E+01  7.59869910E+00  7.59869910E+00
 -1.51973982E+01  7.59869910E+00  7.59869910E+00 -1.51973982E+01  7.59869910E+00
  7.59869910E+00 -1.51973982E+01  7.59869910E+00  7.59869910E+00 -1.51973982E+01
  7.59869910E+00  7.59869910E+00 -1.51973982E+01  7.59869910E+00  7.59869910E+00
 -1.51973982E+01  7.59869910E+00  7.59869910E+00 -1.51973982E+01  7.59869910E+00
  7.59869910E+00 -1.51973982E+01  7.59869910E+00  7.59869910E+00 -1.51973982E+01
  7.59869910E+00  7.59869910E+00 -1.51973982E+01  7.59869910E+00  7.59869910E+00
 -1.51973982E+01  7.59869910E+00  7.59869910E+00 -1.51973982E+01  7.59869910E+00
  7.59869910E+00 -1.51973982E+01  7.59869910E+00  7.59869910E+00 -1.51973982E+01
  7.59869910E+00  7.59869910E+00 -1.51973982E+01  7.59869910E+00  7.59869910E+00
 -1.51973982E+01  7.59869910E+00  7.59869910E+00 -1.51973982E+01  7.59869910E+00
  7.59869910E+00 -1.51973982E+01  7.59869910E+00  7.59869910E+00 -1.51973982E+01
  7.59869910E+00  7.59869910E+00 -1.51973982E+01  7.59869910E+00  7.59869910E+00
 -1.51973982E+01  7.59869910E+00  7.59869910E+00 -1.51973982E+01  7.59869910E+00
  7.59869910E+00 -1.51973982E+01  7.59869910E+00  7.59869910E+00 -1.51973982E+01
  7.59869910E+00  7.59869910E+00 -1.51973982E+01  7.59869910E+00  7.59869910E+00
 -1.51973982E+01  7.59869910E+00  7.59869910E+00 -1.51973982E+01  7.59869910E+00
  7.59869910E+00 -1.51973982E+01  7.59869910E+00  7.59869910E+00 -1.51973982E+01
  7.59869910E+00  7.59869910E+00 -1.51973982E+01  7.59869910E+00  7.59869910E+00
 -1.51973982E+01  7.59869910E+00  7.59869910E+00 -1.51973982E+01  7.59869910E+00
  7.59869910E+00 -1.51973982E+01  7.59869910E+00  7.59869910E+00 -1.51973982E+01
  7.59869910E+00  7.59869910E+00 -1.51973982E+01  7.59869910E+00  7.59869910E+00
 -1.51973982E+01  7.59869910E+00  7.59869910E+00 -1.51973982E+01  7.59869910E+00
  7.59869910E+00 -1.51973982E+01  7.59869910E+00  7.59869910E+00 -1.51973982E+01
  7.59869910E+00  7.59869910E+00 -1.51973982E+01  7.59869910E+00  7.59869910E+00
 -1.51973982E+01  7.59869910E+00  7.59869910E+00 -1.51973982E+01  7.59869910E+00
  7.59869910E+00 -1.51973982E+01  7.59869910E+00  7.59869910E+00 -1.51973982E+01
  7.59869910E+00  7.59869910E+00 -1.51973982E+01  7.59869910E+00  7.59869910E+00
 -1.51973982E+01  7.59869910E+00  7.59869910E+00 -1.51973982E+01  7.59869910E+00
  7.59869910E+00 -1.51973982E+01  7.59869910E+00  7.59869910E+00 -1.51973982E+01
  7.59869910E+00  7.59869910E+00 -1.51973982E+01  7.59869910E+00  7.59869910E+00
 -1.51973982E+01  7.59869910E+00  7.59869910E+00 -1.51973982E+01  7.59869910E+00
  7.59869910E+00 -1.51973982E+01  7.59869910E+00  7.59869910E+00 -1.51973982E+01
  7.59869910E+00  7.59869910E+00 -1.51973982E+01  7.59869910E+00  7.59869910E+00
 -1.51973982E+01  7.59869910E+00  7.59869910E+00 -1.51973982E+01  7.59869910E+00
  7.59869910E+00 -1.51973982E+01  7.59869910E+00  7.59869910E+00 -1.51973982E+01
  7.59869910E+00  7.59869910E+00 -1.51973982E+01  7.59869910E+00  7.59869910E+00
 -1.51973982E+01  7.59869910E+00  7.59869910E+00 -1.51973982E+01  7.59869910E+00
  7.59869910E+00 -1.51973982E+01  7.59869910E+00  7.59869910E+00 -1.51973982E+01
  7.59869910E+00  7.59869910E+00 -1.51973982E+01  7.59869910E+00  7.59869910E+00
 -1.51973982E+01  7.59869910E+00  7.59869910E+00 -1.51973982E+01  7.59869910E+00
  7.59869910E+00 -1.51973982E+01  7.59869910E+00  7.59869910E+00 -1.51973982E+01
  7.59869910E+00  7.59869910E+00 -1.51973982E+01  7.59869910E+00  7.59869910E+00
 -1.51973982E+01  7.59869910E+00  7.59869910E+00 -1.51973982E+01  7.59869910E+00
  7.59869910E+00 -1.51973982E+01  7.59869910E+00  7.59869910E+00 -1.51973982E+01
  7.59869910E+00  7.59869910E+00 -1.51973982E+01  7.59869910E+00  7.59869910E+00
 -1.51973982E+01  7.59869910E+00  7.59869910E+00 -1.51973982E+01  7.59869910E+00
  7.59869910E+00 -1.51973982E+01  7.59869910E+00  7.59869910E+00 -1.51973982E+01
  7.59869910E+00  7.59869910E+00 -1.51973982E+01  7.59869910E+00  7.59869910E+00
 -1.51973982E+01  7.59869910E+00  7.59869910E+00 -1.51973982E+01  7.59869910E+00
  7.59869910E+00 -1.51973982E+01  7.59869910E+00  7.59869910E+00 -1.51973982E+01
  7.59869910E+00  7.59869910E+00 -1.51973982E+01  7.59869910E+00  7.59869910E+00
 -1.51973982E+01  7.59869910E+00  7.59869910E+00 -1.51973982E+01  7.59869910E+00
  7.59869910E+00 -1.51973982E+01  7.59869910E+00  7.59869910E+00 -1.51973982E+01
  7.59869910E+00  7.59869910E+00 -1.51973982E+01  7.59869910E+00  7.59869910E+00
 -1.51973982E+01  7.59869910E+00  7.59869910E+00 -1.51973982E+01  7.59869910E+00
  7.59869910E+00 -1.51973982E+01  7.59869910E+00  7.59869910E+00 -1.51973982E+01
  7.59869910E+00  7.59869910E+00 -1.51973982E+01  7.59869910E+00  7.59869910E+00
 -1.51973982E+01  7.59869910E+00  7.59869910E+00 -1.51973982E+01  7.59869910E+00
  7.59869910E+00 -1.51973982E+01  7.59869910E+00  7.59869910E+00 -1.51973982E+01
  7.59869910E+00  7.59869910E+00 -1.51973982E+01  7.59869910E+00  7.59869910E+00
 -1.51973982E+01  7.59869910E+00  7.59869910E+00 -1.51973982E+01  7.59869910E+00
  7.59869910E+00 -1.51973982E+01  7.59869910E+00  7.59869910E+00 -1.51973982E+01
  7.59869910E+00  7.59869910E+00 -1.51973982E+01  7.59869910E+00  7.59869910E+00
 -1.51973982E+01  7.59869910E+00  7.59869910E+00 -1.51973982E+01  7.59869910E+00
  7.59869910E+00 -1.51973982E+01  7.59869910E+00  7.59869910E+00 -1.51973982E+01
  7.59869910E+00  7.59869910E+00 -1.51973982E+01  7.59869910E+00  7.59869910E+00
 -1.51973982E+01  7.59869910E+00  7.59869910E+00 -1.51973982E+01  7.59869910E+00
  7.59869910E+00 -1.51973982E+01  7.59869910E+00  7.59869910E+00 -1.51973982E+01
  7.59869910E+00  7.59869910E+00 -1.51973982E+01  7.59869910E+00  7.59869910E+00
 -1.51973982E+01  7.59869910E+00  7.59869910E+00 -1.51973982E+01  7.59869910E+00
  7.59869910E+00 -1.51973982E+01  7.59869910E+00  7.59869910E+00 -1.51973982E+01
  7.59869910E+00  7.59869910E+00 -1.51973982E+01  7.59869910E+00  7.59869910E+00
 -1.51973982E+01  7.59869910E+00  7.59869910E+00 -1.51973982E+01  7.59869910E+00
  7.59869910E+00 -1.51973982E+01  7.59869910E+00  7.59869910E+00 -1.51973982E+01
  7.59869910E+00  7.59869910E+00 -1.51973982E+01  7.59869910E+00  7.59869910E+00
 -1.51973982E+01  7.59869910E+00  7.59869910E+00 -1.51973982E+01  7.59869910E+00
  7.59869910E+00 -1.51973982E+01  7.59869910E+00  7.59869910E+00 -1.51973982E+01
  7.59869910E+00  7.59869910E+00 -1.51973982E+01  7.59869910E+00  7.59869910E+00
 -1.51973982E+01  7.59869910E+00  7.59869910E+00 -1.51973982E+01  7.59869910E+00
  7.59869910E+00 -1.51973982E+01  7.59869910E+00  7.59869910E+00 -1.51973982E+01
  7.59869910E+00  7.59869910E+00 -1.51973982E+01  7.59869910E+00  7.59869910E+00
 -1.51973982E+01  7.59869910E+00  7.59869910E+00 -1.51973982E+01  7.59869910E+00
  7.59869910E+00 -1.51973982E+01  7.59869910E+00  7.59869910E+00 -1.51973982E+01
  7.59869910E+00  7.59869910E+00 -1.51973982E+01  7.59869910E+00  7.59869910E+00
 -1.51973982E+01  7.59869910E+00  7.59869910E+00 -1.51973982E+01  7.59869910E+00
  7.59869910E+00 -1.51973982E+01  7.59869910E+00  7.59869910E+00 -1.51973982E+01
  7.59869910E+00  7.59869910E+00 -1.51973982E+01  7.59869910E+00  7.59869910E+00
 -1.51973982E+01  7.59869910E+00  7.59869910E+00 -1.51973982E+01  7.59869910E+00
  7.59869910E+00 -1.51973982E+01  7.59869910E+00  7.59869910E+00 -1.51973982E+01
  7.59869910E+00  7.59869910E+00 -1.51973982E+01  7.59869910E+00  7.59869910E+00
 -1.51973982E+01  7.59869910E+00  7.59869910E+00 -1.51973982E+01  7.59869910E+00
  7.59869910E+00 -1.51973982E+01  7.59869910E+00  7.59869910E+00 -1.51973982E+01
  7.59869910E+00  7.59869910E+00 -1.51973982E+01  7.59869910E+00  7.59869910E+00
 -1.51973982E+01  7.59869910E+00  7.59869910E+00 -1.51973982E+01  7.59869910E+00
  7.59869910E+00 -1.51973982E+01  7.59869910E+00  7.59869910E+00 -1.51973982E+01
  7.59869910E+00  7.59869910E+00 -1.51973982E+01  7.59869910E+00  7.59869910E+00
 -1.51973982E+01  7.59869910E+00  7.59869910E+00 -1.51973982E+01  7.59869910E+00
  7.59869910E+00 -1.51973982E+01  7.59869910E+00  7.59869910E+00 -1.51973982E+01
  7.59869910E+00  7.59869910E+00 -1.51973982E+01  7.59869910E+00  7.59869910E+00
 -1.51973982E+01  7.59869910E+00  7.59869910E+00 -1.51973982E+01  7.59869910E+00
  7.59869910E+00 -1.51973982E+01  7.59869910E+00  7.59869910E+00 -1.51973982E+01
  7.59869910E+00  7.59869910E+00 -1.51973982E+01  7.59869910E+00  7.59869910E+00
 -1.51973982E+01  7.59869910E+00  7.59869910E+00 -1.51973982E+01  7.59869910E+00
  7.59869910E+00 -1.51973982E+01  7.59869910E+00  7.59869910E+00 -1.51973982E+01
  7.59869910E+00  7.59869910E+00 -1.51973982E+01  7.59869910E+00  7.59869910E+00
 -1.51973982E+01  7.59869910E+00  7.59869910E+00 -1.51973982E+01  7.59869910E+00
  7.59869910E+00 -1.51973982E+01  7.59869910E+00  7.59869910E+00 -1.51973982E+01
  7.59869910E+00  7.59869910E+00 -1.51973982E+01  7.59869910E+00  7.59869910E+00
 -1.51973982E+01  7.59869910E+00  7.59869910E+00 -1.51973982E+01  7.59869910E+00
  7.59869910E+00 -1.51973982E+01  7.59869910E+00  7.59869910E+00 -1.51973982E+01
  7.59869910E+00  7.59869910E+00 -1.51973982E+01  7.59869910E+00  7.59869910E+00
 -1.51973982E+01  7.59869910E+00  7.59869910E+00 -1.51973982E+01  7.59869910E+00
  7.59869910E+00 -1.51973982E+01  7.59869910E+00  7.59869910E+00 -1.51973982E+01
  7.59869910E+00  7.59869910E+00 -1.51973982E+01  7.59869910E+00  7.59869910E+00
 -1.51973982E+01  7.59869910E+00  7.59869910E+00 -1.51973982E+01  7.59869910E+00
  7.59869910E+00 -1.51973982E+01  7.59869910E+00  7.59869910E+00 -1.51973982E+01
  7.59869910E+00  7.59869910E+00 -1.51973982E+01  7.59869910E+00  7.59869910E+00
 -1.51973982E+01  7.59869910E+00  7.59869910E+00 -1.51973982E+01  7.59869910E+00
  7.59869910E+00 -1.51973982E+01  7.59869910E+00  7.59869910E+00 -1.51973982E+01
  7.59869910E+00  7.59869910E+00 -1.51973982E+01  7.59869910E+00  7.59869910E+00
 -1.51973982E+01  7.59869910E+00  7.59869910E+00 -1.51973982E+01  7.59869910E+00
  7.59869910E+00 -1.51973982E+01  7.59869910E+00  7.59869910E+00 -1.51973982E+01
  7.59869910E+00  7.59869910E+00 -1.51973982E+01  7.59869910E+00  7.59869910E+00
 -1.51973982E+01  7.59869910E+00  7.59869910E+00 -1.51973982E+01  7.59869910E+00
  7.59869910E+00 -1.51973982E+01  7.59869910E+00  7.59869910E+00 -1.51973982E+01
  7.59869910E+00  7.59869910E+00 -1.51973982E+01  7.59869910E+00  7.59869910E+00
 -1.51973982E+01  7.59869910E+00  7.59869910E+00 -1.51973982E+01  7.59869910E+00
  7.59869910E+00 -1.51973982E+01  7.59869910E+00  7.59869910E+00 -1.51973982E+01
  7.59869910E+00  7.59869910E+00 -1.51973982E+01  7.59869910E+00  7.59869910E+00
 -1.51973982E+01  7.59869910E+00  7.59869910E+00 -1.51973982E+01  7.59869910E+00
  7.59869910E+00 -1.51973982E+01  7.59869910E+00  7.59869910E+00 -1.51973982E+01
  7.59869910E+00  7.59869910E+00 -1.51973982E+01  7.59869910E+00  7.59869910E+00
 -1.51973982E+01  7.59869910E+00  7.59869910E+00 -1.51973982E+01  7.59869910E+00
  7.59869910E+00 -1.51973982E+01  7.59869910E+00  7.59869910E+00 -1.51973982E+01
  7.59869910E+00  7.59869910E+00 -1.51973982E+01  7.59869910E+00  7.59869910E+00
 -1.51973982E+01  7.59869910E+00  7.59869910E+00 -1.51973982E+01  7.59869910E+00
  7.59869910E+00 -1.51973982E+01  7.59869910E+00  7.59869910E+00 -1.51973982E+01
  7.59869910E+00  7.59869910E+00 -1.51973982E+01  7.59869910E+00  7.59869910E+00
 -1.51973982E+01  7.59869910E+00  7.59869910E+00 -1.51973982E+01  7.59869910E+00
  7.59869910E+00 -1.51973982E+01  7.59869910E+00  7.59869910E+00 -1.51973982E+01
  7.59869910E+00  7.59869910E+00 -1.51973982E+01  7.59869910E+00  7.59869910E+00
 -1.51973982E+01  7.59869910E+00  7.59869910E+00 -1.51973982E+01  7.59869910E+00
  7.59869910E+00 -1.51973982E+01  7.59869910E+00  7.59869910E+00 -1.51973982E+01
  7.59869910E+00  7.59869910E+00 -1.51973982E+01  7.59869910E+00  7.59869910E+00
 -1.51973982E+01  7.59869910E+00  7.59869910E+00 -1.51973982E+01  7.59869910E+00
  7.59869910E+00 -1.51973982E+01  7.59869910E+00  7.59869910E+00 -1.51973982E+01
  7.59869910E+00  7.59869910E+00 -1.51973982E+01  7.59869910E+00  7.59869910E+00
 -1.51973982E+01  7.59869910E+00  7.59869910E+00 -1.51973982E+01  7.59869910E+00
  7.59869910E+00 -1.51973982E+01  7.59869910E+00  7.59869910E+00 -1.51973982E+01
  7.59869910E+00  7.59869910E+00 -1.51973982E+01  7.59869910E+00  7.59869910E+00
 -1.51973982E+01  7.59869910E+00  7.59869910E+00 -1.51973982E+01  7.59869910E+00
  7.59869910E+00 -1.51973982E+01  7.59869910E+00  7.59869910E+00 -1.51973982E+01
  7.59869910E+00  7.59869910E+00 -1.51973982E+01  7.59869910E+00  7.59869910E+00
 -1.51973982E+01  7.59869910E+00  7.59869910E+00 -1.51973982E+01  7.59869910E+00
  7.59869910E+00 -1.51973982E+01  7.59869910E+00  7.59869910E+00 -1.51973982E+01
  7.59869910E+00  7.59869910E+00 -1.51973982E+01  7.59869910E+00  7.59869910E+00
 -1.51973982E+01  7.59869910E+00  7.59869910E+00 -1.51973982E+01  7.59869910E+00
  7.59869910E+00 -1.51973982E+01  7.59869910E+00  7.59869910E+00 -1.51973982E+01
  7.59869910E+00  7.59869910E+00 -1.51973982E+01  7.59869910E+00  7.59869910E+00
 -1.51973982E+01  7.59869910E+00  7.59869910E+00 -1.51973982E+01  7.59869910E+00
  7.59869910E+00 -1.51973982E+01  7.59869910E+00  7.59869910E+00 -1.51973982E+01
  7.59869910E+00  7.59869910E+00 -1.51973982E+01  7.59869910E+00  7.59869910E+00
 -1.51973982E+01  7.59869910E+00  7.59869910E+00 -1.51973982E+01  7.59869910E+00
  7.59869910E+00 -1.51973982E+01  7.59869910E+00  7.59869910E+00 -1.51973982E+01
  7.59869910E+00  7.59869910E+00 -1.51973982E+01  7.59869910E+00  7.59869910E+00
 -1.51973982E+01  7.59869910E+00  7.59869910E+00 -1.51973982E+01  7.59869910E+00
  7.59869910E+00 -1.51973982E+01  7.59869910E+00  7.59869910E+00 -1.51973982E+01
  7.59869910E+00  7.59869910E+00 -1.51973982E+01  7.59869910E+00  7.59869910E+00
 -1.51973982E+01  7.59869910E+00  7.59869910E+00 -1.51973982E+01  7.59869910E+00
  7.59869910E+00 -1.51973982E+01  7.59869910E+00  7.59869910E+00 -1.51973982E+01
  7.59869910E+00  7.59869910E+00 -1.51973982E+01  7.59869910E+00  7.59869910E+00
 -1.51973982E+01  7.59869910E+00  7.59869910E+00 -1.51973982E+01  7.59869910E+00
  7.59869910E+00 -1.51973982E+01  7.59869910E+00  7.59869910E+00 -1.51973982E+01
  7.59869910E+00  7.59869910E+00 -1.51973982E+01  7.59869910E+00  7.59869910E+00
 -1.51973982E+01  7.59869910E+00  7.59869910E+00 -1.51973982E+01  7.59869910E+00
  7.59869910E+00 -1.51973982E+01  7.59869910E+00  7.59869910E+00 -1.51973982E+01
  7.59869910E+00  7.59869910E+00 -1.51973982E+01  7.59869910E+00  7.59869910E+00
 -1.51973982E+01  7.59869910E+00  7.59869910E+00 -1.51973982E+01  7.59869910E+00
  7.59869910E+00 -1.51973982E+01  7.59869910E+00  7.59869910E+00 -1.51973982E+01
  7.59869910E+00  7.59869910E+00 -1.51973982E+01  7.59869910E+00  7.59869910E+00
 -1.51973982E+01  7.59869910E+00  7.59869910E+00 -1.51973982E+01  7.59869910E+00
  7.59869910E+00 -1.51973982E+01  7.59869910E+00  7.59869910E+00 -1.51973982E+01
  7.59869910E+00  7.59869910E+00 -1.51973982E+01  7.59869910E+00  7.59869910E+00
 -1.51973982E+01  7.59869910E+00  7.59869910E+00 -1.51973982E+01  7.59869910E+00
  7.59869910E+00 -1.51973982E+01  7.59869910E+00  7.59869910E+00 -1.51973982E+01
  7.59869910E+00  7.59869910E+00 -1.51973982E+01  7.59869910E+00  7.59869910E+00
 -1.51973982E+01  7.59869910E+00  7.59869910E+00 -1.51973982E+01  7.59869910E+00
  7.59869910E+00 -1.51973982E+01  7.59869910E+00  7.59869910E+00 -1.51973982E+01
  7.59869910E+00  7.59869910E+00 -1.51973982E+01  7.59869910E+00  7.59869910E+00
 -1.51973982E+01  7.59869910E+00  7.59869910E+00 -1.51973982E+01  7.59869910E+00
  7.59869910E+00 -1.51973982E+01  7.59869910E+00  7.59869910E+00 -1.51973982E+01
  7.59869910E+00  7.59869910E+00 -1.51973982E+01  7.59869910E+00  7.59869910E+00
 -1.51973982E+01  7.59869910E+00  7.59869910E+00 -1.51973982E+01  7.59869910E+00
  7.59869910E+00 -1.51973982E+01  7.59869910E+00  7.59869910E+00 -1.51973982E+01
  7.59869910E+00  7.59869910E+00 -1.51973982E+01  7.59869910E+00  7.59869910E+00
 -1.51973982E+01  7.59869910E+00  7.59869910E+00 -1.51973982E+01  7.59869910E+00
  7.59869910E+00 -1.51973982E+01  7.59869910E+00  7.59869910E+00 -1.51973982E+01
  7.59869910E+00  7.59869910E+00 -1.51973982E+01  7.59869910E+00  7.59869910E+00
 -1.51973982E+01  7.59869910E+00  7.59869910E+00 -1.51973982E+01  7.59869910E+00
  7.59869910E+00 -1.51973982E+01  7.59869910E+00  7.59869910E+00 -1.51973982E+01
  7.59869910E+00  7.59869910E+00 -1.51973982E+01  7.59869910E+00  7.59869910E+00
 -1.51973982E+01  7.59869910E+00  7.59869910E+00 -1.51973982E+01  7.59869910E+00
  7.59869910E+00 -1.51973982E+01  7.59869910E+00  7.59869910E+00 -1.51973982E+01
  7.59869910E+00  7.59869910E+00 -1.51973982E+01  7.59869910E+00  7.59869910E+00
 -1.51973982E+01  7.59869910E+00  7.59869910E+00 -1.51973982E+01  7.59869910E+00
  7.59869910E+00 -1.51973982E+01  7.59869910E+00  7.59869910E+00 -1.51973982E+01
  7.59869910E+00  7.59869910E+00 -1.51973982E+01  7.59869910E+00  7.59869910E+00
 -1.51973982E+01  7.59869910E+00  7.59869910E+00 -1.51973982E+01  7.59869910E+00
  7.59869910E+00 -1.51973982E+01  7.59869910E+00  7.59869910E+00 -1.51973982E+01
  7.59869910E+00  7.59869910E+00 -1.51973982E+01  7.59869910E+00  7.59869910E+00
 -1.51973982E+01  7.59869910E+00  7.59869910E+00 -1.51973982E+01  7.59869910E+00
  7.59869910E+00 -1.51973982E+01  7.59869910E+00  7.59869910E+00 -1.51973982E+01
  7.59869910E+00  7.59869910E+00 -1.51973982E+01  7.59869910E+00  7.59869910E+00
 -1.51973982E+01  7.59869910E+00  7.59869910E+00 -1.51973982E+01  7.59869910E+00
  7.59869910E+00 -1.51973982E+01  7.59869910E+00  7.59869910E+00 -1.51973982E+01
  7.59869910E+00  7.59869910E+00 -1.51973982E+01  7.59869910E+00  7.59869910E+00
 -1.51973982E+01  7.59869910E+00  7.59869910E+00 -1.51973982E+01  7.59869910E+00
  7.59869910E+00 -1.51973982E+01  7.59869910E+00  7.59869910E+00 -1.51973982E+01
  7.59869910E+00  7.59869910E+00 -1.51973982E+01  7.59869910E+00  7.59869910E+00
 -1.51973982E+01  7.59869910E+00  7.59869910E+00 -1.51973982E+01  7.59869910E+00
  7.59869910E+00 -1.51973982E+01  7.59869910E+00  7.59869910E+00 -1.51973982E+01
  7.59869910E+00  7.59869910E+00 -1.51973982E+01  7.59869910E+00  7.59869910E+00
 -1.51973982E+01  7.59869910E+00  7.59869910E+00 -1.51973982E+01  7.59869910E+00
  7.59869910E+00 -1.51973982E+01  7.59869910E+00  7.59869910E+00 -1.51973982E+01
  7.59869910E+00  7.59869910E+00 -1.51973982E+01  7.59869910E+00  7.59869910E+00
 -1.51973982E+01  7.59869910E+00  7.59869910E+00 -1.51973982E+01  7.59869910E+00
  7.59869910E+00 -1.51973982E+01  7.59869910E+00  7.59869910E+00 -1.51973982E+01
  7.59869910E+00  7.59869910E+00 -1.51973982E+01  7.59869910E+00  7.59869910E+00
 -1.51973982E+01  7.59869910E+00  7.59869910E+00 -1.51973982E+01  7.59869910E+00
  7.59869910E+00 -1.51973982E+01  7.59869910E+00  7.59869910E+00 -1.51973982E+01
  7.59869910E+00  7.59869910E+00 -1.51973982E+01  7.59869910E+00  7.59869910E+00
 -1.51973982E+01  7.59869910E+00  7.59869910E+00 -1.51973982E+01  7.59869910E+00
  7.59869910E+00 -1.51973982E+01  7.59869910E+00  7.59869910E+00 -1.51973982E+01
  7.59869910E+00  7.59869910E+00 -1.51973982E+01  7.59869910E+00  7.59869910E+00
 -1.51973982E+01  7.59869910E+00  7.59869910E+00 -1.51973982E+01  7.59869910E+00
  7.59869910E+00 -1.51973982E+01  7.59869910E+00  7.59869910E+00 -1.51973982E+01
  7.59869910E+00  7.59869910E+00 -1.51973982E+01  7.59869910E+00  7.59869910E+00
 -1.51973982E+01  7.59869910E+00  7.59869910E+00 -1.51973982E+01  7.59869910E+00
  7.59869910E+00 -1.51973982E+01  7.59869910E+00  7.59869910E+00 -1.51973982E+01
  7.59869910E+00  7.59869910E+00 -1.51973982E+01  7.59869910E+00  7.59869910E+00
 -1.51973982E+01  7.59869910E+00  7.59869910E+00 -1.51973982E+01  7.59869910E+00
  7.59869910E+00 -1.51973982E+01  7.59869910E+00  7.59869910E+00 -1.51973982E+01
  7.59869910E+00  7.59869910E+00 -1.51973982E+01  7.59869910E+00  7.59869910E+00
 -1.51973982E+01  7.59869910E+00  7.59869910E+00 -1.51973982E+01  7.59869910E+00
  7.59869910E+00 -1.51973982E+01  7.59869910E+00  7.59869910E+00 -1.51973982E+01
  7.59869910E+00  7.59869910E+00 -1.51973982E+01  7.59869910E+00  7.59869910E+00
 -1.51973982E+01  7.59869910E+00  7.59869910E+00 -1.51973982E+01  7.59869910E+00
  7.59869910E+00 -1.51973982E+01  7.59869910E+00  7.59869910E+00 -1.51973982E+01
  7.59869910E+00  7.59869910E+00 -1.51973982E+01  7.59869910E+00  7.59869910E+00
 -1.51973982E+01  7.59869910E+00  7.59869910E+00 -1.51973982E+01  7.59869910E+00
  7.59869910E+00 -1.51973982E+01  7.59869910E+00  7.59869910E+00 -1.51973982E+01
  7.59869910E+00  7.59869910E+00 -1.51973982E+01  7.59869910E+00  7.59869910E+00
 -1.51973982E+01  7.59869910E+00  7.59869910E+00 -1.51973982E+01  7.59869910E+00
  7.59869910E+00 -1.51973982E+01  7.59869910E+00  7.59869910E+00 -1.51973982E+01
  7.59869910E+00  7.59869910E+00 -1.51973982E+01  7.59869910E+00  7.59869910E+00
 -1.51973982E+01  7.59869910E+00  7.59869910E+00 -1.51973982E+01  7.59869910E+00
  7.59869910E+00 -1.51973982E+01  7.59869910E+00  7.59869910E+00 -1.51973982E+01
  7.59869910E+00  7.59869910E+00 -1.51973982E+01  7.59869910E+00  7.59869910E+00
 -1.51973982E+01  7.59869910E+00  7.59869910E+00 -1.51973982E+01  7.59869910E+00
  7.59869910E+00 -1.51973982E+01  7.59869910E+00  7.59869910E+00 -1.51973982E+01
  7.59869910E+00  7.59869910E+00 -1.51973982E+01  7.59869910E+00  7.59869910E+00
 -1.51973982E+01  7.59869910E+00  7.59869910E+00 -1.51973982E+01  7.59869910E+00
  7.59869910E+00 -1.51973982E+01  7.59869910E+00  7.59869910E+00 -1.51973982E+01
  7.59869910E+00  7.59869910E+00 -1.51973982E+01  7.59869910E+00  7.59869910E+00
 -1.51973982E+01  7.59869910E+00  7.59869910E+00 -1.51973982E+01  7.59869910E+00
  7.59869910E+00 -1.51973982E+01  7.59869910E+00  7.59869910E+00 -1.51973982E+01
  7.59869910E+00  7.59869910E+00 -1.51973982E+01  7.59869910E+00  7.59869910E+00
 -1.51973982E+01  7.59869910E+00  7.59869910E+00 -1.51973982E+01  7.59869910E+00
  7.59869910E+00 -1.51973982E+01  7.59869910E+00  7.59869910E+00 -1.51973982E+01
  7.59869910E+00  7.59869910E+00 -1.51973982E+01  7.59869910E+00  7.59869910E+00
 -1.51973982E+01  7.59869910E+00  7.59869910E+00 -1.51973982E+01  7.59869910E+00
  7.59869910E+00 -1.51973982E+01  7.59869910E+00  7.59869910E+00 -1.51973982E+01
  7.59869910E+00  7.59869910E+00 -1.51973982E+01  7.59869910E+00  7.59869910E+00
 -1.51973982E+01  7.59869910E+00  7.59869910E+00 -1.51973982E+01  7.59869910E+00
  7.59869910E+00 -1.51973982E+01  7.59869910E+00  7.59869910E+00 -1.51973982E+01
  7.59869910E+00  7.59869910E+00 -1.51973982E+01  7.59869910E+00  7.59869910E+00
 -1.51973982E+01  7.59869910E+00  7.59869910E+00 -1.51973982E+01  7.59869910E+00
  7.59869910E+00 -1.51973982E+01  7.59869910E+00  7.59869910E+00 -1.51973982E+01
  7.59869910E+00  7.59869910E+00 -1.51973982E+01  7.59869910E+00  7.59869910E+00
 -1.51973982E+01  7.59869910E+00  7.59869910E+00 -1.51973982E+01  7.59869910E+00
  7.59869910E+00 -1.51973982E+01  7.59869910E+00  7.59869910E+00 -1.51973982E+01
  7.59869910E+00  7.59869910E+00 -1.51973982E+01  7.59869910E+00  7.59869910E+00
 -1.51973982E+01  7.59869910E+00  7.59869910E+00 -1.51973982E+01  7.59869910E+00
  7.59869910E+00 -1.51973982E+01  7.59869910E+00  7.59869910E+00 -1.51973982E+01
  7.59869910E+00  7.59869910E+00 -1.51973982E+01  7.59869910E+00  7.59869910E+00
 -1.51973982E+01  7.59869910E+00  7.59869910E+00 -1.51973982E+01  7.59869910E+00
  7.59869910E+00 -1.51973982E+01  7.59869910E+00  7.59869910E+00 -1.51973982E+01
  7.59869910E+00  7.59869910E+00 -1.51973982E+01  7.59869910E+00  7.59869910E+00
 -1.51973982E+01  7.59869910E+00  7.59869910E+00 -1.51973982E+01  7.59869910E+00
  7.59869910E+00 -1.51973982E+01  7.59869910E+00  7.59869910E+00 -1.51973982E+01
  7.59869910E+00  7.59869910E+00 -1.51973982E+01  7.59869910E+00  7.59869910E+00
 -1.51973982E+01  7.59869910E+00  7.59869910E+00 -1.51973982E+01  7.59869910E+00
  7.59869910E+00 -1.51973982E+01  7.59869910E+00  7.59869910E+00 -1.51973982E+01
  7.59869910E+00  7.59869910E+00 -1.51973982E+01  7.59869910E+00  7.59869910E+00
 -1.51973982E+01  7.59869910E+00  7.59869910E+00 -1.51973982E+01  7.59869910E+00
  7.59869910E+00 -1.51973982E+01  7.59869910E+00  7.59869910E+00 -1.51973982E+01
  7.59869910E+00  7.59869910E+00 -1.51973982E+01  7.59869910E+00  7.59869910E+00
 -1.51973982E+01  7.59869910E+00  7.59869910E+00 -1.51973982E+01  7.59869910E+00
  7.59869910E+00 -1.51973982E+01  7.59869910E+00  7.59869910E+00 -1.51973982E+01
  7.59869910E+00  7.59869910E+00 -1.51973982E+01  7.59869910E+00  7.59869910E+00
 -1.51973982E+01  7.59869910E+00  7.59869910E+00 -1.51973982E+01  7.59869910E+00
  7.59869910E+00 -1.51973982E+01  7.59869910E+00  7.59869910E+00 -1.51973982E+01
  7.59869910E+00  7.59869910E+00 -1.51973982E+01  7.59869910E+00  7.59869910E+00
 -1.51973982E+01  7.59869910E+00  7.59869910E+00 -1.51973982E+01  7.59869910E+00
  7.59869910E+00 -1.51973982E+01  7.59869910E+00  7.59869910E+00 -1.51973982E+01
  7.59869910E+00  7.59869910E+00 -1.51973982E+01  7.59869910E+00  7.59869910E+00
 -1.51973982E+01  7.59869910E+00  7.59869910E+00 -1.51973982E+01  7.59869910E+00
  7.59869910E+00 -1.51973982E+01  7.59869910E+00  7.59869910E+00 -1.51973982E+01
  7.59869910E+00  7.59869910E+00 -1.51973982E+01  7.59869910E+00  7.59869910E+00
 -1.51973982E+01  7.59869910E+00  7.59869910E+00 -1.51973982E+01  7.59869910E+00
  7.59869910E+00 -1.51973982E+01  7.59869910E+00  7.59869910E+00 -1.51973982E+01
  7.59869910E+00  7.59869910E+00 -1.51973982E+01  7.59869910E+00  7.59869910E+00
 -1.51973982E+01  7.59869910E+00  7.59869910E+00 -1.51973982E+01  7.59869910E+00
  7.59869910E+00 -1.51973982E+01  7.59869910E+00  7.59869910E+00 -1.51973982E+01
  7.59869910E+00  7.59869910E+00 -1.51973982E+01  7.59869910E+00  7.59869910E+00
 -1.51973982E+01  7.59869910E+00  7.59869910E+00 -1.51973982E+01  7.59869910E+00
  7.59869910E+00 -1.51973982E+01  7.59869910E+00  7.59869910E+00 -1.51973982E+01
  7.59869910E+00  7.59869910E+00 -1.51973982E+01  7.59869910E+00  7.59869910E+00
 -1.51973982E+01  7.59869910E+00  7.59869910E+00 -1.51973982E+01  7.59869910E+00
  7.59869910E+00 -1.51973982E+01  7.59869910E+00  7.59869910E+00 -1.51973982E+01
  7.59869910E+00  7.59869910E+00 -1.51973982E+01  7.59869910E+00  7.59869910E+00
 -1.51973982E+01  7.59869910E+00  7.59869910E+00 -1.51973982E+01  7.59869910E+00
  7.59869910E+00 -1.51973982E+01  7.59869910E+00  7.59869910E+00 -1.51973982E+01
  7.59869910E+00  7.59869910E+00 -1.51973982E+01  7.59869910E+00  7.59869910E+00
 -1.51973982E+01  7.59869910E+00  7.59869910E+00 -1.51973982E+01  7.59869910E+00
  7.59869910E+00 -1.51973982E+01  7.59869910E+00  7.59869910E+00 -1.51973982E+01
  7.59869910E+00  7.59869910E+00 -1.51973982E+01  7.59869910E+00  7.59869910E+00
 -1.51973982E+01  7.59869910E+00  7.59869910E+00 -1.51973982E+01  7.59869910E+00
  7.59869910E+00 -1.51973982E+01  7.59869910E+00  7.59869910E+00 -1.51973982E+01
  7.59869910E+00  7.59869910E+00 -1.51973982E+01  7.59869910E+00  7.59869910E+00
 -1.51973982E+01  7.59869910E+00  7.59869910E+00 -1.51973982E+01  7.59869910E+00
  7.59869910E+00 -1.51973982E+01  7.59869910E+00  7.59869910E+00 -1.51973982E+01
  7.59869910E+00  7.59869910E+00 -1.51973982E+01  7.59869910E+00  7.59869910E+00
 -1.51973982E+01  7.59869910E+00  7.59869910E+00 -1.51973982E+01  7.59869910E+00
  7.59869910E+00 -1.51973982E+01  7.59869910E+00  7.59869910E+00 -1.51973982E+01
  7.59869910E+00  7.59869910E+00 -1.51973982E+01  7.59869910E+00  7.59869910E+00
 -1.51973982E+01  7.59869910E+00  7.59869910E+00 -1.51973982E+01  7.59869910E+00
  7.59869910E+00 -1.51973982E+01  7.59869910E+00  7.59869910E+00 -1.51973982E+01
  7.59869910E+00  7.59869910E+00 -1.51973982E+01  7.59869910E+00  7.59869910E+00
 -1.51973982E+01  7.59869910E+00  7.59869910E+00 -1.51973982E+01  7.59869910E+00
  7.59869910E+00 -1.51973982E+01  7.59869910E+00  7.59869910E+00 -1.51973982E+01
  7.59869910E+00  7.59869910E+00 -1.51973982E+01  7.59869910E+00  7.59869910E+00
 -1.51973982E+01  7.59869910E+00  7.59869910E+00 -1.51973982E+01  7.59869910E+00
  7.59869910E+00 -1.51973982E+01  7.59869910E+00  7.59869910E+00 -1.51973982E+01
  7.59869910E+00  7.59869910E+00 -1.51973982E+01  7.59869910E+00  7.59869910E+00
 -1.51973982E+01  7.59869910E+00  7.59869910E+00 -1.51973982E+01  7.59869910E+00
  7.59869910E+00 -1.51973982E+01  7.59869910E+00  7.59869910E+00 -1.51973982E+01
  7.59869910E+00  7.59869910E+00 -1.51973982E+01  7.59869910E+00  7.59869910E+00
 -1.51973982E+01  7.59869910E+00  7.59869910E+00 -1.51973982E+01  7.59869910E+00
  7.59869910E+00 -1.51973982E+01  7.59869910E+00  7.59869910E+00 -1.51973982E+01
  7.59869910E+00  7.59869910E+00 -1.51973982E+01  7.59869910E+00  7.59869910E+00
 -1.51973982E+01  7.59869910E+00  7.59869910E+00 -1.51973982E+01  7.59869910E+00
  7.59869910E+00 -1.51973982E+01  7.59869910E+00  7.59869910E+00 -1.51973982E+01
  7.59869910E+00  7.59869910E+00 -1.51973982E+01  7.59869910E+00  7.59869910E+00
 -1.51973982E+01  7.59869910E+00  7.59869910E+00 -1.51973982E+01  7.59869910E+00
  7.59869910E+00 -1.51973982E+01  7.59869910E+00  7.59869910E+00 -1.51973982E+01
  7.59869910E+00  7.59869910E+00 -1.51973982E+01  7.59869910E+00  7.59869910E+00
 -1.51973982E+01  7.59869910E+00  7.59869910E+00 -1.51973982E+01  7.59869910E+00
  7.59869910E+00 -1.51973982E+01  7.59869910E+00  7.59869910E+00 -1.51973982E+01
  7.59869910E+00  7.59869910E+00 -1.51973982E+01  7.59869910E+00  7.59869910E+00
 -1.51973982E+01  7.59869910E+00  7.59869910E+00 -1.51973982E+01  7.59869910E+00
  7.59869910E+00 -1.51973982E+01  7.59869910E+00  7.59869910E+00 -1.51973982E+01
  7.59869910E+00  7.59869910E+00 -1.51973982E+01  7.59869910E+00  7.59869910E+00
 -1.51973982E+01  7.59869910E+00  7.59869910E+00 -1.51973982E+01  7.59869910E+00
  7.59869910E+00 -1.51973982E+01  7.59869910E+00  7.59869910E+00 -1.51973982E+01
  7.59869910E+00  7.59869910E+00 -1.51973982E+01  7.59869910E+00  7.59869910E+00
 -1.51973982E+01  7.59869910E+00  7.59869910E+00 -1.51973982E+01  7.59869910E+00
  7.59869910E+00 -1.51973982E+01  7.59869910E+00  7.59869910E+00 -1.51973982E+01
  7.59869910E+00  7.59869910E+00 -1.51973982E+01  7.59869910E+00  7.59869910E+00
 -1.51973982E+01  7.59869910E+00  7.59869910E+00 -1.51973982E+01  7.59869910E+00
  7.59869910E+00 -1.51973982E+01  7.59869910E+00  7.59869910E+00 -1.51973982E+01
  7.59869910E+00  7.59869910E+00 -1.51973982E+01  7.59869910E+00  7.59869910E+00
 -1.51973982E+01  7.59869910E+00  7.59869910E+00 -1.51973982E+01  7.59869910E+00
  7.59869910E+00 -1.51973982E+01  7.59869910E+00  7.59869910E+00 -1.51973982E+01
  7.59869910E+00  7.59869910E+00 -1.51973982E+01  7.59869910E+00  7.59869910E+00
 -1.51973982E+01  7.59869910E+00  7.59869910E+00 -1.51973982E+01  7.59869910E+00
  7.59869910E+00 -1.51973982E+01  7.59869910E+00  7.59869910E+00 -1.51973982E+01
  7.59869910E+00  7.59869910E+00 -1.51973982E+01  7.59869910E+00  7.59869910E+00
 -1.51973982E+01  7.59869910E+00  7.59869910E+00 -1.51973982E+01  7.59869910E+00
  7.59869910E+00 -1.51973982E+01  7.59869910E+00  7.59869910E+00 -1.51973982E+01
  7.59869910E+00  7.59869910E+00 -1.51973982E+01  7.59869910E+00  7.59869910E+00
 -1.51973982E+01  7.59869910E+00  7.59869910E+00 -1.51973982E+01  7.59869910E+00
  7.59869910E+00 -1.51973982E+01  7.59869910E+00  7.59869910E+00 -1.51973982E+01
  7.59869910E+00  7.59869910E+00 -1.51973982E+01  7.59869910E+00  7.59869910E+00
 -1.51973982E+01  7.59869910E+00  7.59869910E+00 -1.51973982E+01  7.59869910E+00
  7.59869910E+00 -1.51973982E+01  7.59869910E+00  7.59869910E+00 -1.51973982E+01
  7.59869910E+00  7.59869910E+00 -1.51973982E+01  7.59869910E+00  7.59869910E+00
 -1.51973982E+01  7.59869910E+00  7.59869910E+00 -1.51973982E+01  7.59869910E+00
  7.59869910E+00 -1.51973982E+01  7.59869910E+00  7.59869910E+00 -1.51973982E+01
  7.59869910E+00  7.59869910E+00 -1.51973982E+01  7.59869910E+00  7.59869910E+00
 -1.51973982E+01  7.59869910E+00  7.59869910E+00 -1.51973982E+01  7.59869910E+00
  7.59869910E+00 -1.51973982E+01  7.59869910E+00  7.59869910E+00 -1.51973982E+01
  7.59869910E+00  7.59869910E+00 -1.51973982E+01  7.59869910E+00  7.59869910E+00
 -1.51973982E+01  7.59869910E+00  7.59869910E+00 -1.51973982E+01  7.59869910E+00
  7.59869910E+00 -1.51973982E+01  7.59869910E+00  7.59869910E+00 -1.51973982E+01
  7.59869910E+00  7.59869910E+00 -1.51973982E+01  7.59869910E+00  7.59869910E+00
 -1.51973982E+01  7.59869910E+00  7.59869910E+00 -1.51973982E+01  7.59869910E+00
  7.59869910E+00 -1.51973982E+01  7.59869910E+00  7.59869910E+00 -1.51973982E+01
  7.59869910E+00  7.59869910E+00 -1.51973982E+01  7.59869910E+00  7.59869910E+00
 -1.51973982E+01  7.59869910E+00  7.59869910E+00 -1.51973982E+01  7.59869910E+00
  7.59869910E+00 -1.51973982E+01  7.59869910E+00  7.59869910E+00 -1.51973982E+01
  7.59869910E+00  7.59869910E+00 -1.51973982E+01  7.59869910E+00  7.59869910E+00
 -1.51973982E+01  7.59869910E+00  7.59869910E+00 -1.51973982E+01  7.59869910E+00
  7.59869910E+00 -1.51973982E+01  7.59869910E+00  7.59869910E+00 -1.51973982E+01
  7.59869910E+00  7.59869910E+00 -1.51973982E+01  7.59869910E+00  7.59869910E+00
 -1.51973982E+01  7.59869910E+00  7.59869910E+00 -1.51973982E+01  7.59869910E+00
  7.59869910E+00 -1.51973982E+01  7.59869910E+00  7.59869910E+00 -1.51973982E+01
  7.59869910E+00  7.59869910E+00 -1.51973982E+01  7.59869910E+00  7.59869910E+00
 -1.51973982E+01  7.59869910E+00  7.59869910E+00 -1.51973982E+01  7.59869910E+00
  7.59869910E+00 -1.51973982E+01  7.59869910E+00  7.59869910E+00 -1.51973982E+01
  7.59869910E+00  7.59869910E+00 -1.51973982E+01  7.59869910E+00  7.59869910E+00
 -1.51973982E+01  7.59869910E+00  7.59869910E+00 -1.51973982E+01  7.59869910E+00
  7.59869910E+00 -1.51973982E+01  7.59869910E+00  7.59869910E+00 -1.51973982E+01
  7.59869910E+00  7.59869910E+00 -1.51973982E+01  7.59869910E+00  7.59869910E+00
 -1.51973982E+01  7.59869910E+00  7.59869910E+00 -1.51973982E+01  7.59869910E+00
  7.59869910E+00 -1.51973982E+01  7.59869910E+00  7.59869910E+00 -1.51973982E+01
  7.59869910E+00  7.59869910E+00 -1.51973982E+01  7.59869910E+00  7.59869910E+00
 -1.51973982E+01  7.59869910E+00  7.59869910E+00 -1.51973982E+01  7.59869910E+00
  7.59869910E+00 -1.51973982E+01  7.59869910E+00  7.59869910E+00 -1.51973982E+01
  7.59869910E+00  7.59869910E+00 -1.51973982E+01  7.59869910E+00  7.59869910E+00
 -1.51973982E+01  7.59869910E+00  7.59869910E+00 -1.51973982E+01  7.59869910E+00
  7.59869910E+00 -1.51973982E+01  7.59869910E+00  7.59869910E+00 -1.51973982E+01
  7.59869910E+00  7.59869910E+00 -1.51973982E+01  7.59869910E+00  7.59869910E+00
 -1.51973982E+01  7.59869910E+00  7.59869910E+00 -1.51973982E+01  7.59869910E+00
  7.59869910E+00 -1.51973982E+01  7.59869910E+00  7.59869910E+00 -1.51973982E+01
  7.59869910E+00  7.59869910E+00 -1.51973982E+01  7.59869910E+00  7.59869910E+00
 -1.51973982E+01  7.59869910E+00  7.59869910E+00 -1.51973982E+01  7.59869910E+00
  7.59869910E+00 -1.51973982E+01  7.59869910E+00  7.59869910E+00 -1.51973982E+01
  7.59869910E+00  7.59869910E+00 -1.51973982E+01  7.59869910E+00  7.59869910E+00
 -1.51973982E+01  7.59869910E+00  7.59869910E+00 -1.51973982E+01  7.59869910E+00
  7.59869910E+00 -1.51973982E+01  7.59869910E+00  7.59869910E+00 -1.51973982E+01
  7.59869910E+00  7.59869910E+00 -1.51973982E+01  7.59869910E+00  7.59869910E+00
 -1.51973982E+01  7.59869910E+00  7.59869910E+00 -1.51973982E+01  7.59869910E+00
  7.59869910E+00 -1.51973982E+01  7.59869910E+00  7.59869910E+00 -1.51973982E+01
  7.59869910E+00  7.59869910E+00 -1.51973982E+01  7.59869910E+00  7.59869910E+00
 -1.51973982E+01  7.59869910E+00  7.59869910E+00 -1.51973982E+01  7.59869910E+00
  7.59869910E+00 -1.51973982E+01  7.59869910E+00  7.59869910E+00 -1.51973982E+01
  7.59869910E+00  7.59869910E+00 -1.51973982E+01  7.59869910E+00  7.59869910E+00
 -1.51973982E+01  7.59869910E+00  7.59869910E+00 -1.51973982E+01  7.59869910E+00
  7.59869910E+00 -1.51973982E+01  7.59869910E+00  7.59869910E+00 -1.51973982E+01
  7.59869910E+00  7.59869910E+00 -1.51973982E+01  7.59869910E+00  7.59869910E+00
 -1.51973982E+01  7.59869910E+00  7.59869910E+00 -1.51973982E+01  7.59869910E+00
  7.59869910E+00 -1.51973982E+01  7.59869910E+00  7.59869910E+00 -1.51973982E+01
  7.59869910E+00  7.59869910E+00 -1.51973982E+01  7.59869910E+00  7.59869910E+00
 -1.51973982E+01  7.59869910E+00  7.59869910E+00 -1.51973982E+01  7.59869910E+00
  7.59869910E+00 -1.51973982E+01  7.59869910E+00  7.59869910E+00 -1.51973982E+01
  7.59869910E+00  7.59869910E+00 -1.51973982E+01  7.59869910E+00  7.59869910E+00
 -1.51973982E+01  7.59869910E+00  7.59869910E+00 -1.51973982E+01  7.59869910E+00
  7.59869910E+00 -1.51973982E+01  7.59869910E+00  7.59869910E+00 -1.51973982E+01
  7.59869910E+00  7.59869910E+00 -1.51973982E+01  7.59869910E+00  7.59869910E+00
 -1.51973982E+01  7.59869910E+00  7.59869910E+00 -1.51973982E+01  7.59869910E+00
  7.59869910E+00 -1.51973982E+01  7.59869910E+00  7.59869910E+00 -1.51973982E+01
  7.59869910E+00  7.59869910E+00 -1.51973982E+01  7.59869910E+00  7.59869910E+00
 -1.51973982E+01  7.59869910E+00  7.59869910E+00 -1.51973982E+01  7.59869910E+00
  7.59869910E+00 -1.51973982E+01  7.59869910E+00  7.59869910E+00 -1.51973982E+01
  7.59869910E+00  7.59869910E+00 -1.51973982E+01  7.59869910E+00  7.59869910E+00
 -1.51973982E+01  7.59869910E+00  7.59869910E+00 -1.51973982E+01  7.59869910E+00
  7.59869910E+00 -1.51973982E+01  7.59869910E+00  7.59869910E+00 -1.51973982E+01
  7.59869910E+00  7.59869910E+00 -1.51973982E+01  7.59869910E+00  7.59869910E+00
 -1.51973982E+01  7.59869910E+00  7.59869910E+00 -1.51973982E+01  7.59869910E+00
  7.59869910E+00 -1.51973982E+01  7.59869910E+00  7.59869910E+00 -1.51973982E+01
  7.59869910E+00  7.59869910E+00 -1.51973982E+01  7.59869910E+00  7.59869910E+00
 -1.51973982E+01  7.59869910E+00  7.59869910E+00 -1.51973982E+01  7.59869910E+00
  7.59869910E+00 -1.51973982E+01  7.59869910E+00  7.59869910E+00 -1.51973982E+01
  7.59869910E+00  7.59869910E+00 -1.51973982E+01  7.59869910E+00  7.59869910E+00
 -1.51973982E+01  7.59869910E+00  7.59869910E+00 -1.51973982E+01  7.59869910E+00
  7.59869910E+00 -1.51973982E+01  7.59869910E+00  7.59869910E+00 -1.51973982E+01
  7.59869910E+00  7.59869910E+00 -1.51973982E+01  7.59869910E+00  7.59869910E+00
 -1.51973982E+01  7.59869910E+00  7.59869910E+00 -1.51973982E+01  7.59869910E+00
  7.59869910E+00 -1.51973982E+01  7.59869910E+00  7.59869910E+00 -1.51973982E+01
  7.59869910E+00  7.59869910E+00 -1.51973982E+01  7.59869910E+00  7.59869910E+00
 -1.51973982E+01  7.59869910E+00  7.59869910E+00 -1.51973982E+01  7.59869910E+00
  7.59869910E+00 -1.51973982E+01  7.59869910E+00  7.59869910E+00 -1.51973982E+01
  7.59869910E+00  7.59869910E+00 -1.51973982E+01  7.59869910E+00  7.59869910E+00
 -1.51973982E+01  7.59869910E+00  7.59869910E+00 -1.51973982E+01  7.59869910E+00
  7.59869910E+00 -1.51973982E+01  7.59869910E+00  7.59869910E+00 -1.51973982E+01
  7.59869910E+00  7.59869910E+00 -1.51973982E+01  7.59869910E+00  7.59869910E+00
 -1.51973982E+01  7.59869910E+00  7.59869910E+00 -1.51973982E+01  7.59869910E+00
  7.59869910E+00 -1.51973982E+01  7.59869910E+00  7.59869910E+00 -1.51973982E+01
  7.59869910E+00  7.59869910E+00 -1.51973982E+01  7.59869910E+00  7.59869910E+00
 -1.51973982E+01  7.59869910E+00  7.59869910E+00 -1.51973982E+01  7.59869910E+00
  7.59869910E+00 -1.51973982E+01  7.59869910E+00  7.59869910E+00 -1.51973982E+01
  7.59869910E+00  7.59869910E+00 -1.51973982E+01  7.59869910E+00  7.59869910E+00
 -1.51973982E+01  7.59869910E+00  7.59869910E+00 -1.51973982E+01  7.59869910E+00
  7.59869910E+00 -1.51973982E+01  7.59869910E+00  7.59869910E+00 -1.51973982E+01
  7.59869910E+00  7.59869910E+00 -1.51973982E+01  7.59869910E+00  7.59869910E+00
 -1.51973982E+01  7.59869910E+00  7.59869910E+00 -1.51973982E+01  7.59869910E+00
  7.59869910E+00 -1.51973982E+01  7.59869910E+00  7.59869910E+00 -1.51973982E+01
  7.59869910E+00  7.59869910E+00 -1.51973982E+01  7.59869910E+00  7.59869910E+00
 -1.51973982E+01  7.59869910E+00  7.59869910E+00 -1.51973982E+01  7.59869910E+00
  7.59869910E+00 -1.51973982E+01  7.59869910E+00  7.59869910E+00 -1.51973982E+01
  7.59869910E+00  7.59869910E+00 -1.51973982E+01  7.59869910E+00  7.59869910E+00
 -1.51973982E+01  7.59869910E+00  7.59869910E+00 -1.51973982E+01  7.59869910E+00
  7.59869910E+00 -1.51973982E+01  7.59869910E+00  7.59869910E+00 -1.51973982E+01
  7.59869910E+00  7.59869910E+00 -1.51973982E+01  7.59869910E+00  7.59869910E+00
 -1.51973982E+01  7.59869910E+00  7.59869910E+00 -1.51973982E+01  7.59869910E+00
  7.59869910E+00 -1.51973982E+01  7.59869910E+00  7.59869910E+00 -1.51973982E+01
  7.59869910E+00  7.59869910E+00 -1.51973982E+01  7.59869910E+00  7.59869910E+00
 -1.51973982E+01  7.59869910E+00  7.59869910E+00 -1.51973982E+01  7.59869910E+00
  7.59869910E+00 -1.51973982E+01  7.59869910E+00  7.59869910E+00 -1.51973982E+01
  7.59869910E+00  7.59869910E+00 -1.51973982E+01  7.59869910E+00  7.59869910E+00
 -1.51973982E+01  7.59869910E+00  7.59869910E+00 -1.51973982E+01  7.59869910E+00
  7.59869910E+00 -1.51973982E+01  7.59869910E+00  7.59869910E+00 -1.51973982E+01
  7.59869910E+00  7.59869910E+00 -1.51973982E+01  7.59869910E+00  7.59869910E+00
 -1.51973982E+01  7.59869910E+00  7.59869910E+00 -1.51973982E+01  7.59869910E+00
  7.59869910E+00 -1.51973982E+01  7.59869910E+00  7.59869910E+00 -1.51973982E+01
  7.59869910E+00  7.59869910E+00 -1.51973982E+01  7.59869910E+00  7.59869910E+00
 -1.51973982E+01  7.59869910E+00  7.59869910E+00 -1.51973982E+01  7.59869910E+00
  7.59869910E+00 -1.51973982E+01  7.59869910E+00  7.59869910E+00 -1.51973982E+01
  7.59869910E+00  7.59869910E+00 -1.51973982E+01  7.59869910E+00  7.59869910E+00
 -1.51973982E+01  7.59869910E+00  7.59869910E+00 -1.51973982E+01  7.59869910E+00
  7.59869910E+00 -1.51973982E+01  7.59869910E+00  7.59869910E+00 -1.51973982E+01
  7.59869910E+00  7.59869910E+00 -1.51973982E+01  7.59869910E+00  7.59869910E+00
 -1.51973982E+01  7.59869910E+00  7.59869910E+00 -1.51973982E+01  7.59869910E+00
  7.59869910E+00 -1.51973982E+01  7.59869910E+00  7.59869910E+00 -1.51973982E+01
  7.59869910E+00  7.59869910E+00 -1.51973982E+01  7.59869910E+00  7.59869910E+00
 -1.51973982E+01  7.59869910E+00  7.59869910E+00 -1.51973982E+01  7.59869910E+00
  7.59869910E+00 -1.51973982E+01  7.59869910E+00  7.59869910E+00 -1.51973982E+01
  7.59869910E+00  7.59869910E+00 -1.51973982E+01  7.59869910E+00  7.59869910E+00
 -1.51973982E+01  7.59869910E+00  7.59869910E+00 -1.51973982E+01  7.59869910E+00
  7.59869910E+00 -1.51973982E+01  7.59869910E+00  7.59869910E+00 -1.51973982E+01
  7.59869910E+00  7.59869910E+00 -1.51973982E+01  7.59869910E+00  7.59869910E+00
 -1.51973982E+01  7.59869910E+00  7.59869910E+00 -1.51973982E+01  7.59869910E+00
  7.59869910E+00 -1.51973982E+01  7.59869910E+00  7.59869910E+00 -1.51973982E+01
  7.59869910E+00  7.59869910E+00 -1.51973982E+01  7.59869910E+00  7.59869910E+00
 -1.51973982E+01  7.59869910E+00  7.59869910E+00 -1.51973982E+01  7.59869910E+00
  7.59869910E+00 -1.51973982E+01  7.59869910E+00  7.59869910E+00 -1.51973982E+01
  7.59869910E+00  7.59869910E+00 -1.51973982E+01  7.59869910E+00  7.59869910E+00
 -1.51973982E+01  7.59869910E+00  7.59869910E+00 -1.51973982E+01  7.59869910E+00
  7.59869910E+00 -1.51973982E+01  7.59869910E+00  7.59869910E+00 -1.51973982E+01
  7.59869910E+00  7.59869910E+00 -1.51973982E+01  7.59869910E+00  7.59869910E+00
 -1.51973982E+01  7.59869910E+00  7.59869910E+00 -1.51973982E+01  7.59869910E+00
  7.59869910E+00 -1.51973982E+01  7.59869910E+00  7.59869910E+00 -1.51973982E+01
  7.59869910E+00  7.59869910E+00 -1.51973982E+01  7.59869910E+00  7.59869910E+00
 -1.51973982E+01  7.59869910E+00  7.59869910E+00 -1.51973982E+01  7.59869910E+00
  7.59869910E+00 -1.51973982E+01  7.59869910E+00  7.59869910E+00 -1.51973982E+01
  7.59869910E+00  7.59869910E+00 -1.51973982E+01  7.59869910E+00  7.59869910E+00
 -1.51973982E+01  7.59869910E+00  7.59869910E+00 -1.51973982E+01  7.59869910E+00
  7.59869910E+00 -1.51973982E+01  7.59869910E+00  7.59869910E+00 -1.51973982E+01
  7.59869910E+00  7.59869910E+00 -1.51973982E+01  7.59869910E+00  7.59869910E+00
 -1.51973982E+01  7.59869910E+00  7.59869910E+00 -1.51973982E+01  7.59869910E+00
  7.59869910E+00 -1.51973982E+01  7.59869910E+00  7.59869910E+00 -1.51973982E+01
  7.59869910E+00  7.59869910E+00 -1.51973982E+01  7.59869910E+00  7.59869910E+00
 -1.51973982E+01  7.59869910E+00  7.59869910E+00 -1.51973982E+01  7.59869910E+00
  7.59869910E+00 -1.51973982E+01  7.59869910E+00  7.59869910E+00 -1.51973982E+01
  7.59869910E+00  7.59869910E+00 -1.51973982E+01  7.59869910E+00  7.59869910E+00
 -1.51973982E+01  7.59869910E+00  7.59869910E+00 -1.51973982E+01  7.59869910E+00
  7.59869910E+00 -1.51973982E+01  7.59869910E+00  7.59869910E+00 -1.51973982E+01
  7.59869910E+00  7.59869910E+00 -1.51973982E+01  7.59869910E+00  7.59869910E+00
 -1.51973982E+01  7.59869910E+00  7.59869910E+00 -1.51973982E+01  7.59869910E+00
  7.59869910E+00 -1.51973982E+01  7.59869910E+00  7.59869910E+00 -1.51973982E+01
  7.59869910E+00  7.59869910E+00 -1.51973982E+01  7.59869910E+00  7.59869910E+00
 -1.51973982E+01  7.59869910E+00  7.59869910E+00 -1.51973982E+01  7.59869910E+00
  7.59869910E+00 -1.51973982E+01  7.59869910E+00  7.59869910E+00 -1.51973982E+01
  7.59869910E+00  7.59869910E+00 -1.51973982E+01  7.59869910E+00  7.59869910E+00
 -1.51973982E+01  7.59869910E+00  7.59869910E+00 -1.51973982E+01  7.59869910E+00
  7.59869910E+00 -1.51973982E+01  7.59869910E+00  7.59869910E+00 -1.51973982E+01
  7.59869910E+00  7.59869910E+00 -1.51973982E+01  7.59869910E+00  7.59869910E+00
 -1.51973982E+01  7.59869910E+00  7.59869910E+00 -1.51973982E+01  7.59869910E+00
  7.59869910E+00 -1.51973982E+01  7.59869910E+00  7.59869910E+00 -1.51973982E+01
  7.59869910E+00  7.59869910E+00 -1.51973982E+01  7.59869910E+00  7.59869910E+00
 -1.51973982E+01  7.59869910E+00  7.59869910E+00 -1.51973982E+01  7.59869910E+00
  7.59869910E+00 -1.51973982E+01  7.59869910E+00  7.59869910E+00 -1.51973982E+01
  7.59869910E+00  7.59869910E+00 -1.51973982E+01  7.59869910E+00  7.59869910E+00
 -1.51973982E+01  7.59869910E+00  7.59869910E+00 -1.51973982E+01  7.59869910E+00
  7.59869910E+00 -1.51973982E+01  7.59869910E+00  7.59869910E+00 -1.51973982E+01
  7.59869910E+00  7.59869910E+00 -1.51973982E+01  7.59869910E+00  7.59869910E+00
 -1.51973982E+01  7.59869910E+00  7.59869910E+00 -1.51973982E+01  7.59869910E+00
  7.59869910E+00 -1.51973982E+01  7.59869910E+00  7.59869910E+00 -1.51973982E+01
  7.59869910E+00  7.59869910E+00 -1.51973982E+01  7.59869910E+00  7.59869910E+00
 -1.51973982E+01  7.59869910E+00  7.59869910E+00 -1.51973982E+01  7.59869910E+00
  7.59869910E+00 -1.51973982E+01  7.59869910E+00  7.59869910E+00 -1.51973982E+01
  7.59869910E+00  7.59869910E+00 -1.51973982E+01  7.59869910E+00  7.59869910E+00
 -1.51973982E+01  7.59869910E+00  7.59869910E+00 -1.51973982E+01  7.59869910E+00
  7.59869910E+00 -1.51973982E+01  7.59869910E+00  7.59869910E+00 -1.51973982E+01
  7.59869910E+00  7.59869910E+00 -1.51973982E+01  7.59869910E+00  7.59869910E+00
 -1.51973982E+01  7.59869910E+00  7.59869910E+00 -1.51973982E+01  7.59869910E+00
  7.59869910E+00 -1.51973982E+01  7.59869910E+00  7.59869910E+00 -1.51973982E+01
  7.59869910E+00  7.59869910E+00 -1.51973982E+01  7.59869910E+00  7.59869910E+00
 -1.51973982E+01  7.59869910E+00  7.59869910E+00 -1.51973982E+01  7.59869910E+00
  7.59869910E+00 -1.51973982E+01  7.59869910E+00  7.59869910E+00 -1.51973982E+01
  7.59869910E+00  7.59869910E+00 -1.51973982E+01  7.59869910E+00  7.59869910E+00
 -1.51973982E+01  7.59869910E+00  7.59869910E+00 -1.51973982E+01  7.59869910E+00
  7.59869910E+00 -1.51973982E+01  7.59869910E+00  7.59869910E+00 -1.51973982E+01
  7.59869910E+00  7.59869910E+00 -1.51973982E+01  7.59869910E+00  7.59869910E+00
 -1.51973982E+01  7.59869910E+00  7.59869910E+00 -1.51973982E+01  7.59869910E+00
  7.59869910E+00 -1.51973982E+01  7.59869910E+00  7.59869910E+00 -1.51973982E+01
  7.59869910E+00  7.59869910E+00 -1.51973982E+01  7.59869910E+00  7.59869910E+00
 -1.51973982E+01  7.59869910E+00  7.59869910E+00 -1.51973982E+01  7.59869910E+00
  7.59869910E+00 -1.51973982E+01  7.59869910E+00  7.59869910E+00 -1.51973982E+01
  7.59869910E+00  7.59869910E+00 -1.51973982E+01  7.59869910E+00  7.59869910E+00
 -1.51973982E+01  7.59869910E+00  7.59869910E+00 -1.51973982E+01  7.59869910E+00
  7.59869910E+00 -1.51973982E+01  7.59869910E+00  7.59869910E+00 -1.51973982E+01
  7.59869910E+00  7.59869910E+00 -1.51973982E+01  7.59869910E+00  7.59869910E+00
 -1.51973982E+01  7.59869910E+00  7.59869910E+00 -1.51973982E+01  7.59869910E+00
  7.59869910E+00 -1.51973982E+01  7.59869910E+00  7.59869910E+00 -1.51973982E+01
  7.59869910E+00  7.59869910E+00 -1.51973982E+01  7.59869910E+00  7.59869910E+00
 -1.51973982E+01  7.59869910E+00  7.59869910E+00 -1.51973982E+01  7.59869910E+00
  7.59869910E+00 -1.51973982E+01  7.59869910E+00  7.59869910E+00 -1.51973982E+01
  7.59869910E+00  7.59869910E+00 -1.51973982E+01  7.59869910E+00  7.59869910E+00
 -1.51973982E+01  7.59869910E+00  7.59869910E+00 -1.51973982E+01  7.59869910E+00
  7.59869910E+00 -1.51973982E+01  7.59869910E+00  7.59869910E+00 -1.51973982E+01
  7.59869910E+00  7.59869910E+00 -1.51973982E+01  7.59869910E+00  7.59869910E+00
 -1.51973982E+01  7.59869910E+00  7.59869910E+00 -1.51973982E+01  7.59869910E+00
  7.59869910E+00 -1.51973982E+01  7.59869910E+00  7.59869910E+00 -1.51973982E+01
  7.59869910E+00  7.59869910E+00 -1.51973982E+01  7.59869910E+00  7.59869910E+00
 -1.51973982E+01  7.59869910E+00  7.59869910E+00 -1.51973982E+01  7.59869910E+00
  7.59869910E+00 -1.51973982E+01  7.59869910E+00  7.59869910E+00 -1.51973982E+01
  7.59869910E+00  7.59869910E+00 -1.51973982E+01  7.59869910E+00  7.59869910E+00
 -1.51973982E+01  7.59869910E+00  7.59869910E+00 -1.51973982E+01  7.59869910E+00
  7.59869910E+00 -1.51973982E+01  7.59869910E+00  7.59869910E+00 -1.51973982E+01
  7.59869910E+00  7.59869910E+00 -1.51973982E+01  7.59869910E+00  7.59869910E+00
 -1.51973982E+01  7.59869910E+00  7.59869910E+00 -1.51973982E+01  7.59869910E+00
  7.59869910E+00 -1.51973982E+01  7.59869910E+00  7.59869910E+00 -1.51973982E+01
  7.59869910E+00  7.59869910E+00 -1.51973982E+01  7.59869910E+00  7.59869910E+00
 -1.51973982E+01  7.59869910E+00  7.59869910E+00 -1.51973982E+01  7.59869910E+00
  7.59869910E+00 -1.51973982E+01  7.59869910E+00  7.59869910E+00 -1.51973982E+01
  7.59869910E+00  7.59869910E+00 -1.51973982E+01  7.59869910E+00  7.59869910E+00
 -1.51973982E+01  7.59869910E+00  7.59869910E+00 -1.51973982E+01  7.59869910E+00
  7.59869910E+00 -1.51973982E+01  7.59869910E+00  7.59869910E+00 -1.51973982E+01
  7.59869910E+00  7.59869910E+00 -1.51973982E+01  7.59869910E+00  7.59869910E+00
 -1.51973982E+01  7.59869910E+00  7.59869910E+00 -1.51973982E+01  7.59869910E+00
  7.59869910E+00 -1.51973982E+01  7.59869910E+00  7.59869910E+00 -1.51973982E+01
  7.59869910E+00  7.59869910E+00 -1.51973982E+01  7.59869910E+00  7.59869910E+00
 -1.51973982E+01  7.59869910E+00  7.59869910E+00 -1.51973982E+01  7.59869910E+00
  7.59869910E+00 -1.51973982E+01  7.59869910E+00  7.59869910E+00 -1.51973982E+01
  7.59869910E+00  7.59869910E+00 -1.51973982E+01  7.59869910E+00  7.59869910E+00
 -1.51973982E+01  7.59869910E+00  7.59869910E+00 -1.51973982E+01  7.59869910E+00
  7.59869910E+00 -1.51973982E+01  7.59869910E+00  7.59869910E+00 -1.51973982E+01
  7.59869910E+00  7.59869910E+00 -1.51973982E+01  7.59869910E+00  7.59869910E+00
 -1.51973982E+01  7.59869910E+00  7.59869910E+00 -1.51973982E+01  7.59869910E+00
  7.59869910E+00 -1.51973982E+01  7.59869910E+00  7.59869910E+00 -1.51973982E+01
  7.59869910E+00  7.59869910E+00 -1.51973982E+01  7.59869910E+00  7.59869910E+00
 -1.51973982E+01  7.59869910E+00  7.59869910E+00 -1.51973982E+01  7.59869910E+00
  7.59869910E+00 -1.51973982E+01  7.59869910E+00  7.59869910E+00 -1.51973982E+01
  7.59869910E+00  7.59869910E+00 -1.51973982E+01  7.59869910E+00  7.59869910E+00
 -1.51973982E+01  7.59869910E+00  7.59869910E+00 -1.51973982E+01  7.59869910E+00
  7.59869910E+00 -1.51973982E+01  7.59869910E+00  7.59869910E+00 -1.51973982E+01
  7.59869910E+00  7.59869910E+00 -1.51973982E+01  7.59869910E+00  7.59869910E+00
 -1.51973982E+01  7.59869910E+00  7.59869910E+00 -1.51973982E+01  7.59869910E+00
  7.59869910E+00 -1.51973982E+01  7.59869910E+00  7.59869910E+00 -1.51973982E+01
  7.59869910E+00  7.59869910E+00 -1.51973982E+01  7.59869910E+00  7.59869910E+00
 -1.51973982E+01  7.59869910E+00  7.59869910E+00 -1.51973982E+01  7.59869910E+00
  7.59869910E+00 -1.51973982E+01  7.59869910E+00  7.59869910E+00 -1.51973982E+01
  7.59869910E+00  7.59869910E+00 -1.51973982E+01  7.59869910E+00  7.59869910E+00
 -1.51973982E+01  7.59869910E+00  7.59869910E+00 -1.51973982E+01  7.59869910E+00
  7.59869910E+00 -1.51973982E+01  7.59869910E+00  7.59869910E+00 -1.51973982E+01
  7.59869910E+00  7.59869910E+00 -1.51973982E+01  7.59869910E+00  7.59869910E+00
 -1.51973982E+01  7.59869910E+00  7.59869910E+00 -1.51973982E+01  7.59869910E+00
  7.59869910E+00 -1.51973982E+01  7.59869910E+00  7.59869910E+00 -1.51973982E+01
  7.59869910E+00  7.59869910E+00 -1.51973982E+01  7.59869910E+00  7.59869910E+00
 -1.51973982E+01  7.59869910E+00  7.59869910E+00 -1.51973982E+01  7.59869910E+00
  7.59869910E+00 -1.51973982E+01  7.59869910E+00  7.59869910E+00 -1.51973982E+01
  7.59869910E+00  7.59869910E+00 -1.51973982E+01  7.59869910E+00  7.59869910E+00
 -1.51973982E+01  7.59869910E+00  7.59869910E+00 -1.51973982E+01  7.59869910E+00
  7.59869910E+00 -1.51973982E+01  7.59869910E+00  7.59869910E+00 -1.51973982E+01
  7.59869910E+00  7.59869910E+00 -1.51973982E+01  7.59869910E+00  7.59869910E+00
 -1.51973982E+01  7.59869910E+00  7.59869910E+00 -1.51973982E+01  7.59869910E+00
  7.59869910E+00 -1.51973982E+01  7.59869910E+00  7.59869910E+00 -1.51973982E+01
  7.59869910E+00  7.59869910E+00 -1.51973982E+01  7.59869910E+00  7.59869910E+00
 -1.51973982E+01  7.59869910E+00  7.59869910E+00 -1.51973982E+01  7.59869910E+00
  7.59869910E+00 -1.51973982E+01  7.59869910E+00  7.59869910E+00 -1.51973982E+01
  7.59869910E+00  7.59869910E+00 -1.51973982E+01  7.59869910E+00  7.59869910E+00
 -1.51973982E+01  7.59869910E+00  7.59869910E+00 -1.51973982E+01  7.59869910E+00
  7.59869910E+00 -1.51973982E+01  7.59869910E+00  7.59869910E+00 -1.51973982E+01
  7.59869910E+00  7.59869910E+00 -1.51973982E+01  7.59869910E+00  7.59869910E+00
 -1.51973982E+01  7.59869910E+00  7.59869910E+00 -1.51973982E+01  7.59869910E+00
  7.59869910E+00 -1.51973982E+01  7.59869910E+00  7.59869910E+00 -1.51973982E+01
  7.59869910E+00  7.59869910E+00 -1.51973982E+01  7.59869910E+00  7.59869910E+00
 -1.51973982E+01  7.59869910E+00  7.59869910E+00 -1.51973982E+01  7.59869910E+00
  7.59869910E+00 -1.51973982E+01  7.59869910E+00  7.59869910E+00 -1.51973982E+01
  7.59869910E+00  7.59869910E+00 -1.51973982E+01  7.59869910E+00  7.59869910E+00
 -1.51973982E+01  7.59869910E+00  7.59869910E+00 -1.51973982E+01  7.59869910E+00
  7.59869910E+00 -1.51973982E+01  7.59869910E+00  7.59869910E+00 -1.51973982E+01
  7.59869910E+00  7.59869910E+00 -1.51973982E+01  7.59869910E+00  7.59869910E+00
 -1.51973982E+01  7.59869910E+00  7.59869910E+00 -1.51973982E+01  7.59869910E+00
  7.59869910E+00 -1.51973982E+01  7.59869910E+00  7.59869910E+00 -1.51973982E+01
  7.59869910E+00  7.59869910E+00 -1.51973982E+01  7.59869910E+00  7.59869910E+00
 -1.51973982E+01  7.59869910E+00  7.59869910E+00 -1.51973982E+01  7.59869910E+00
  7.59869910E+00 -1.51973982E+01  7.59869910E+00  7.59869910E+00 -1.51973982E+01
  7.59869910E+00  7.59869910E+00 -1.51973982E+01  7.59869910E+00  7.59869910E+00
 -1.51973982E+01  7.59869910E+00  7.59869910E+00 -1.51973982E+01  7.59869910E+00
  7.59869910E+00 -1.51973982E+01  7.59869910E+00  7.59869910E+00 -1.51973982E+01
  7.59869910E+00  7.59869910E+00 -1.51973982E+01  7.59869910E+00  7.59869910E+00
 -1.51973982E+01  7.59869910E+00  7.59869910E+00 -1.51973982E+01  7.59869910E+00
  7.59869910E+00 -1.51973982E+01  7.59869910E+00  7.59869910E+00 -1.51973982E+01
  7.59869910E+00  7.59869910E+00 -1.51973982E+01  7.59869910E+00  7.59869910E+00
 -1.51973982E+01  7.59869910E+00  7.59869910E+00 -1.51973982E+01  7.59869910E+00
  7.59869910E+00 -1.51973982E+01  7.59869910E+00  7.59869910E+00 -1.51973982E+01
  7.59869910E+00  7.59869910E+00 -1.51973982E+01  7.59869910E+00  7.59869910E+00
 -1.51973982E+01  7.59869910E+00  7.59869910E+00 -1.51973982E+01  7.59869910E+00
  7.59869910E+00 -1.51973982E+01  7.59869910E+00  7.59869910E+00 -1.51973982E+01
  7.59869910E+00  7.59869910E+00 -1.51973982E+01  7.59869910E+00  7.59869910E+00
 -1.51973982E+01  7.59869910E+00  7.59869910E+00 -1.51973982E+01  7.59869910E+00
  7.59869910E+00 -1.51973982E+01  7.59869910E+00  7.59869910E+00 -1.51973982E+01
  7.59869910E+00  7.59869910E+00 -1.51973982E+01  7.59869910E+00  7.59869910E+00
 -1.51973982E+01  7.59869910E+00  7.59869910E+00 -1.51973982E+01  7.59869910E+00
  7.59869910E+00 -1.51973982E+01  7.59869910E+00  7.59869910E+00 -1.51973982E+01
  7.59869910E+00  7.59869910E+00 -1.51973982E+01  7.59869910E+00  7.59869910E+00
 -1.51973982E+01  7.59869910E+00  7.59869910E+00 -1.51973982E+01  7.59869910E+00
  7.59869910E+00 -1.51973982E+01  7.59869910E+00  7.59869910E+00 -1.51973982E+01
  7.59869910E+00  7.59869910E+00 -1.51973982E+01  7.59869910E+00  7.59869910E+00
 -1.51973982E+01  7.59869910E+00  7.59869910E+00 -1.51973982E+01  7.59869910E+00
  7.59869910E+00 -1.51973982E+01  7.59869910E+00  7.59869910E+00 -1.51973982E+01
  7.59869910E+00  7.59869910E+00 -1.51973982E+01  7.59869910E+00  7.59869910E+00
 -1.51973982E+01  7.59869910E+00  7.59869910E+00 -1.51973982E+01  7.59869910E+00
  7.59869910E+00 -1.51973982E+01  7.59869910E+00  7.59869910E+00 -1.51973982E+01
  7.59869910E+00  7.59869910E+00 -1.51973982E+01  7.59869910E+00  7.59869910E+00
 -1.51973982E+01  7.59869910E+00  7.59869910E+00 -1.51973982E+01  7.59869910E+00
  7.59869910E+00 -1.51973982E+01  7.59869910E+00  7.59869910E+00 -1.51973982E+01
  7.59869910E+00  7.59869910E+00 -1.51973982E+01  7.59869910E+00  7.59869910E+00
 -1.51973982E+01  7.59869910E+00  7.59869910E+00 -1.51973982E+01  7.59869910E+00
  7.59869910E+00 -1.51973982E+01  7.59869910E+00  7.59869910E+00 -1.51973982E+01
  7.59869910E+00  7.59869910E+00 -1.51973982E+01  7.59869910E+00  7.59869910E+00
 -1.51973982E+01  7.59869910E+00  7.59869910E+00 -1.51973982E+01  7.59869910E+00
  7.59869910E+00 -1.51973982E+01  7.59869910E+00  7.59869910E+00 -1.51973982E+01
  7.59869910E+00  7.59869910E+00 -1.51973982E+01  7.59869910E+00  7.59869910E+00
 -1.51973982E+01  7.59869910E+00  7.59869910E+00 -1.51973982E+01  7.59869910E+00
  7.59869910E+00 -1.51973982E+01  7.59869910E+00  7.59869910E+00 -1.51973982E+01
  7.59869910E+00  7.59869910E+00 -1.51973982E+01  7.59869910E+00  7.59869910E+00
 -1.51973982E+01  7.59869910E+00  7.59869910E+00 -1.51973982E+01  7.59869910E+00
  7.59869910E+00 -1.51973982E+01  7.59869910E+00  7.59869910E+00 -1.51973982E+01
  7.59869910E+00  7.59869910E+00 -1.51973982E+01  7.59869910E+00  7.59869910E+00
 -1.51973982E+01  7.59869910E+00  7.59869910E+00 -1.51973982E+01  7.59869910E+00
  7.59869910E+00 -1.51973982E+01  7.59869910E+00  7.59869910E+00 -1.51973982E+01
  7.59869910E+00  7.59869910E+00 -1.51973982E+01  7.59869910E+00  7.59869910E+00
 -1.51973982E+01  7.59869910E+00  7.59869910E+00 -1.51973982E+01  7.59869910E+00
  7.59869910E+00 -1.51973982E+01  7.59869910E+00  7.59869910E+00 -1.51973982E+01
  7.59869910E+00  7.59869910E+00 -1.51973982E+01  7.59869910E+00  7.59869910E+00
 -1.51973982E+01  7.59869910E+00  7.59869910E+00 -1.51973982E+01  7.59869910E+00
  7.59869910E+00 -1.51973982E+01  7.59869910E+00  7.59869910E+00 -1.51973982E+01
  7.59869910E+00  7.59869910E+00 -1.51973982E+01  7.59869910E+00  7.59869910E+00
 -1.51973982E+01  7.59869910E+00  7.59869910E+00 -1.51973982E+01  7.59869910E+00
  7.59869910E+00 -1.51973982E+01  7.59869910E+00  7.59869910E+00 -1.51973982E+01
  7.59869910E+00  7.59869910E+00 -1.51973982E+01  7.59869910E+00  7.59869910E+00
 -1.51973982E+01  7.59869910E+00  7.59869910E+00 -1.51973982E+01  7.59869910E+00
  7.59869910E+00 -1.51973982E+01  7.59869910E+00  7.59869910E+00 -1.51973982E+01
  7.59869910E+00  7.59869910E+00 -1.51973982E+01  7.59869910E+00  7.59869910E+00
 -1.51973982E+01  7.59869910E+00  7.59869910E+00 -1.51973982E+01  7.59869910E+00
  7.59869910E+00 -1.51973982E+01  7.59869910E+00  7.59869910E+00 -1.51973982E+01
  7.59869910E+00  7.59869910E+00 -1.51973982E+01  7.59869910E+00  7.59869910E+00
 -1.51973982E+01  7.59869910E+00  7.59869910E+00 -1.51973982E+01  7.59869910E+00
  7.59869910E+00 -1.51973982E+01  7.59869910E+00  7.59869910E+00 -1.51973982E+01
  7.59869910E+00  7.59869910E+00 -1.51973982E+01  7.59869910E+00  7.59869910E+00
 -1.51973982E+01  7.59869910E+00  7.59869910E+00 -1.51973982E+01  7.59869910E+00
  7.59869910E+00 -1.51973982E+01  7.59869910E+00  7.59869910E+00 -1.51973982E+01
  7.59869910E+00  7.59869910E+00 -1.51973982E+01  7.59869910E+00  7.59869910E+00
 -1.51973982E+01  7.59869910E+00  7.59869910E+00 -1.51973982E+01  7.59869910E+00
  7.59869910E+00 -1.51973982E+01  7.59869910E+00  7.59869910E+00 -1.51973982E+01
  7.59869910E+00  7.59869910E+00 -1.51973982E+01  7.59869910E+00  7.59869910E+00
 -1.51973982E+01  7.59869910E+00  7.59869910E+00 -1.51973982E+01  7.59869910E+00
  7.59869910E+00 -1.51973982E+01  7.59869910E+00  7.59869910E+00 -1.51973982E+01
  7.59869910E+00  7.59869910E+00 -1.51973982E+01  7.59869910E+00  7.59869910E+00
 -1.51973982E+01  7.59869910E+00  7.59869910E+00 -1.51973982E+01  7.59869910E+00
  7.59869910E+00 -1.51973982E+01  7.59869910E+00  7.59869910E+00 -1.51973982E+01
  7.59869910E+00  7.59869910E+00 -1.51973982E+01  7.59869910E+00  7.59869910E+00
 -1.51973982E+01  7.59869910E+00  7.59869910E+00 -1.51973982E+01  7.59869910E+00
  7.59869910E+00 -1.51973982E+01  7.59869910E+00  7.59869910E+00 -1.51973982E+01
  7.59869910E+00  7.59869910E+00 -1.51973982E+01  7.59869910E+00  7.59869910E+00
 -1.51973982E+01  7.59869910E+00  7.59869910E+00 -1.51973982E+01  7.59869910E+00
  7.59869910E+00 -1.51973982E+01  7.59869910E+00  7.59869910E+00 -1.51973982E+01
  7.59869910E+00  7.59869910E+00 -1.51973982E+01  7.59869910E+00  7.59869910E+00
 -1.51973982E+01  7.59869910E+00  7.59869910E+00 -1.51973982E+01  7.59869910E+00
  7.59869910E+00 -1.51973982E+01  7.59869910E+00  7.59869910E+00 -1.51973982E+01
  7.59869910E+00  7.59869910E+00 -1.51973982E+01  7.59869910E+00  7.59869910E+00
 -1.51973982E+01  7.59869910E+00  7.59869910E+00 -1.51973982E+01  7.59869910E+00
  7.59869910E+00 -1.51973982E+01  7.59869910E+00  7.59869910E+00 -1.51973982E+01
  7.59869910E+00  7.59869910E+00 -1.51973982E+01  7.59869910E+00  7.59869910E+00
 -1.51973982E+01  7.59869910E+00  7.59869910E+00 -1.51973982E+01  7.59869910E+00
  7.59869910E+00 -1.51973982E+01  7.59869910E+00  7.59869910E+00 -1.51973982E+01
  7.59869910E+00  7.59869910E+00 -1.51973982E+01  7.59869910E+00  7.59869910E+00
 -1.51973982E+01  7.59869910E+00  7.59869910E+00 -1.51973982E+01  7.59869910E+00
  7.59869910E+00 -1.51973982E+01  7.59869910E+00  7.59869910E+00 -1.51973982E+01
  7.59869910E+00  7.59869910E+00 -1.51973982E+01  7.59869910E+00  7.59869910E+00
 -1.51973982E+01  7.59869910E+00  7.59869910E+00 -1.51973982E+01  7.59869910E+00
  7.59869910E+00 -1.51973982E+01  7.59869910E+00  7.59869910E+00 -1.51973982E+01
  7.59869910E+00  7.59869910E+00 -1.51973982E+01  7.59869910E+00  7.59869910E+00
 -1.51973982E+01  7.59869910E+00  7.59869910E+00 -1.51973982E+01  7.59869910E+00
  7.59869910E+00 -1.51973982E+01  7.59869910E+00  7.59869910E+00 -1.51973982E+01
  7.59869910E+00  7.59869910E+00 -1.51973982E+01  7.59869910E+00  7.59869910E+00
 -1.51973982E+01  7.59869910E+00  7.59869910E+00 -1.51973982E+01  7.59869910E+00
  7.59869910E+00 -1.51973982E+01  7.59869910E+00  7.59869910E+00 -1.51973982E+01
  7.59869910E+00  7.59869910E+00 -1.51973982E+01  7.59869910E+00  7.59869910E+00
 -1.51973982E+01  7.59869910E+00  7.59869910E+00 -1.51973982E+01  7.59869910E+00
  7.59869910E+00 -1.51973982E+01  7.59869910E+00  7.59869910E+00 -1.51973982E+01
  7.59869910E+00  7.59869910E+00 -1.51973982E+01  7.59869910E+00  7.59869910E+00
 -1.51973982E+01  7.59869910E+00  7.59869910E+00 -1.51973982E+01  7.59869910E+00
  7.59869910E+00 -1.51973982E+01  7.59869910E+00  7.59869910E+00 -1.51973982E+01
  7.59869910E+00  7.59869910E+00 -1.51973982E+01  7.59869910E+00  7.59869910E+00
 -1.51973982E+01  7.59869910E+00  7.59869910E+00 -1.51973982E+01  7.59869910E+00
  7.59869910E+00 -1.51973982E+01  7.59869910E+00  7.59869910E+00 -1.51973982E+01
  7.59869910E+00  7.59869910E+00 -1.51973982E+01  7.59869910E+00  7.59869910E+00
 -1.51973982E+01  7.59869910E+00  7.59869910E+00 -1.51973982E+01  7.59869910E+00
  7.59869910E+00 -1.51973982E+01  7.59869910E+00  7.59869910E+00 -1.51973982E+01
  7.59869910E+00  7.59869910E+00 -1.51973982E+01  7.59869910E+00  7.59869910E+00
 -1.51973982E+01  7.59869910E+00  7.59869910E+00 -1.51973982E+01  7.59869910E+00
  7.59869910E+00 -1.51973982E+01  7.59869910E+00  7.59869910E+00 -1.51973982E+01
  7.59869910E+00  7.59869910E+00 -1.51973982E+01  7.59869910E+00  7.59869910E+00
 -1.51973982E+01  7.59869910E+00  7.59869910E+00 -1.51973982E+01  7.59869910E+00
  7.59869910E+00 -1.51973982E+01  7.59869910E+00  7.59869910E+00 -1.51973982E+01
  7.59869910E+00  7.59869910E+00 -1.51973982E+01  7.59869910E+00  7.59869910E+00
 -1.51973982E+01  7.59869910E+00  7.59869910E+00 -1.51973982E+01  7.59869910E+00
  7.59869910E+00 -1.51973982E+01  7.59869910E+00  7.59869910E+00 -1.51973982E+01
  7.59869910E+00  7.59869910E+00 -1.51973982E+01  7.59869910E+00  7.59869910E+00
 -1.51973982E+01  7.59869910E+00  7.59869910E+00 -1.51973982E+01  7.59869910E+00
  7.59869910E+00 -1.51973982E+01  7.59869910E+00  7.59869910E+00 -1.51973982E+01
  7.59869910E+00  7.59869910E+00 -1.51973982E+01  7.59869910E+00  7.59869910E+00
 -1.51973982E+01  7.59869910E+00  7.59869910E+00 -1.51973982E+01  7.59869910E+00
  7.59869910E+00 -1.51973982E+01  7.59869910E+00  7.59869910E+00 -1.51973982E+01
  7.59869910E+00  7.59869910E+00 -1.51973982E+01  7.59869910E+00  7.59869910E+00
 -1.51973982E+01  7.59869910E+00  7.59869910E+00 -1.51973982E+01  7.59869910E+00
  7.59869910E+00 -1.51973982E+01  7.59869910E+00  7.59869910E+00 -1.51973982E+01
  7.59869910E+00  7.59869910E+00 -1.51973982E+01  7.59869910E+00  7.59869910E+00
 -1.51973982E+01  7.59869910E+00  7.59869910E+00 -1.51973982E+01  7.59869910E+00
  7.59869910E+00 -1.51973982E+01  7.59869910E+00  7.59869910E+00 -1.51973982E+01
  7.59869910E+00  7.59869910E+00 -1.51973982E+01  7.59869910E+00  7.59869910E+00
 -1.51973982E+01  7.59869910E+00  7.59869910E+00 -1.51973982E+01  7.59869910E+00
  7.59869910E+00 -1.51973982E+01  7.59869910E+00  7.59869910E+00 -1.51973982E+01
  7.59869910E+00  7.59869910E+00 -1.51973982E+01  7.59869910E+00  7.59869910E+00
 -1.51973982E+01  7.59869910E+00  7.59869910E+00 -1.51973982E+01  7.59869910E+00
  7.59869910E+00 -1.51973982E+01  7.59869910E+00  7.59869910E+00 -1.51973982E+01
  7.59869910E+00  7.59869910E+00 -1.51973982E+01  7.59869910E+00  7.59869910E+00
 -1.51973982E+01  7.59869910E+00  7.59869910E+00 -1.51973982E+01  7.59869910E+00
  7.59869910E+00 -1.51973982E+01  7.59869910E+00  7.59869910E+00 -1.51973982E+01
  7.59869910E+00  7.59869910E+00 -1.51973982E+01  7.59869910E+00  7.59869910E+00
 -1.51973982E+01  7.59869910E+00  7.59869910E+00 -1.51973982E+01  7.59869910E+00
  7.59869910E+00 -1.51973982E+01  7.59869910E+00  7.59869910E+00 -1.51973982E+01
  7.59869910E+00  7.59869910E+00 -1.51973982E+01  7.59869910E+00  7.59869910E+00
 -1.51973982E+01  7.59869910E+00  7.59869910E+00 -1.51973982E+01  7.59869910E+00
  7.59869910E+00 -1.51973982E+01  7.59869910E+00  7.59869910E+00 -1.51973982E+01
  7.59869910E+00  7.59869910E+00 -1.51973982E+01  7.59869910E+00  7.59869910E+00
 -1.51973982E+01  7.59869910E+00  7.59869910E+00 -1.51973982E+01  7.59869910E+00
  7.59869910E+00 -1.51973982E+01  7.59869910E+00  7.59869910E+00 -1.51973982E+01
  7.59869910E+00  7.59869910E+00 -1.51973982E+01  7.59869910E+00  7.59869910E+00
 -1.51973982E+01  7.59869910E+00  7.59869910E+00 -1.51973982E+01  7.59869910E+00
  7.59869910E+00 -1.51973982E+01  7.59869910E+00  7.59869910E+00 -1.51973982E+01
  7.59869910E+00  7.59869910E+00 -1.51973982E+01  7.59869910E+00  7.59869910E+00
 -1.51973982E+01  7.59869910E+00  7.59869910E+00 -1.51973982E+01  7.59869910E+00
  7.59869910E+00 -1.51973982E+01  7.59869910E+00  7.59869910E+00 -1.51973982E+01
  7.59869910E+00  7.59869910E+00 -1.51973982E+01  7.59869910E+00  7.59869910E+00
 -1.51973982E+01  7.59869910E+00  7.59869910E+00 -1.51973982E+01  7.59869910E+00
  7.59869910E+00 -1.51973982E+01  7.59869910E+00  7.59869910E+00 -1.51973982E+01
  7.59869910E+00  7.59869910E+00 -1.51973982E+01  7.59869910E+00  7.59869910E+00
 -1.51973982E+01  7.59869910E+00  7.59869910E+00 -1.51973982E+01  7.59869910E+00
  7.59869910E+00 -1.51973982E+01  7.59869910E+00  7.59869910E+00 -1.51973982E+01
  7.59869910E+00  7.59869910E+00 -1.51973982E+01  7.59869910E+00  7.59869910E+00
 -1.51973982E+01  7.59869910E+00  7.59869910E+00 -1.51973982E+01  7.59869910E+00
  7.59869910E+00 -1.51973982E+01  7.59869910E+00  7.59869910E+00 -1.51973982E+01
  7.59869910E+00  7.59869910E+00 -1.51973982E+01  7.59869910E+00  7.59869910E+00
 -1.51973982E+01  7.59869910E+00  7.59869910E+00 -1.51973982E+01  7.59869910E+00
  7.59869910E+00 -1.51973982E+01  7.59869910E+00  7.59869910E+00 -1.51973982E+01
  7.59869910E+00  7.59869910E+00 -1.51973982E+01  7.59869910E+00  7.59869910E+00
 -1.51973982E+01  7.59869910E+00  7.59869910E+00 -1.51973982E+01  7.59869910E+00
  7.59869910E+00 -1.51973982E+01  7.59869910E+00  7.59869910E+00 -1.51973982E+01
  7.59869910E+00  7.59869910E+00 -1.51973982E+01  7.59869910E+00  7.59869910E+00
 -1.51973982E+01  7.59869910E+00  7.59869910E+00 -1.51973982E+01  7.59869910E+00
  7.59869910E+00 -1.51973982E+01  7.59869910E+00  7.59869910E+00 -1.51973982E+01
  7.59869910E+00  7.59869910E+00 -1.51973982E+01  7.59869910E+00  7.59869910E+00
 -1.51973982E+01  7.59869910E+00  7.59869910E+00 -1.51973982E+01  7.59869910E+00
  7.59869910E+00 -1.51973982E+01  7.59869910E+00  7.59869910E+00 -1.51973982E+01
  7.59869910E+00  7.59869910E+00 -1.51973982E+01  7.59869910E+00  7.59869910E+00
 -1.51973982E+01  7.59869910E+00  7.59869910E+00 -1.51973982E+01  7.59869910E+00
  7.59869910E+00 -1.51973982E+01  7.59869910E+00  7.59869910E+00 -1.51973982E+01
  7.59869910E+00  7.59869910E+00 -1.51973982E+01  7.59869910E+00  7.59869910E+00
 -1.51973982E+01  7.59869910E+00  7.59869910E+00 -1.51973982E+01  7.59869910E+00
  7.59869910E+00 -1.51973982E+01  7.59869910E+00  7.59869910E+00 -1.51973982E+01
  7.59869910E+00  7.59869910E+00 -1.51973982E+01  7.59869910E+00  7.59869910E+00
 -1.51973982E+01  7.59869910E+00  7.59869910E+00 -1.51973982E+01  7.59869910E+00
  7.59869910E+00 -1.51973982E+01  7.59869910E+00  7.59869910E+00 -1.51973982E+01
  7.59869910E+00  7.59869910E+00 -1.51973982E+01  7.59869910E+00  7.59869910E+00
 -1.51973982E+01  7.59869910E+00  7.59869910E+00 -1.51973982E+01  7.59869910E+00
  7.59869910E+00 -1.51973982E+01  7.59869910E+00  7.59869910E+00 -1.51973982E+01
  7.59869910E+00  7.59869910E+00 -1.51973982E+01  7.59869910E+00  7.59869910E+00
 -1.51973982E+01  7.59869910E+00  7.59869910E+00 -1.51973982E+01  7.59869910E+00
  7.59869910E+00 -1.51973982E+01  7.59869910E+00  7.59869910E+00 -1.51973982E+01
  7.59869910E+00  7.59869910E+00 -1.51973982E+01  7.59869910E+00  7.59869910E+00
 -1.51973982E+01  7.59869910E+00  7.59869910E+00 -1.51973982E+01  7.59869910E+00
  7.59869910E+00 -1.51973982E+01  7.59869910E+00  7.59869910E+00 -1.51973982E+01
  7.59869910E+00  7.59869910E+00 -1.51973982E+01  7.59869910E+00  7.59869910E+00
 -1.51973982E+01  7.59869910E+00  7.59869910E+00 -1.51973982E+01  7.59869910E+00
  7.59869910E+00 -1.51973982E+01  7.59869910E+00  7.59869910E+00 -1.51973982E+01
  7.59869910E+00  7.59869910E+00 -1.51973982E+01  7.59869910E+00  7.59869910E+00
 -1.51973982E+01  7.59869910E+00  7.59869910E+00 -1.51973982E+01  7.59869910E+00
  7.59869910E+00 -1.51973982E+01  7.59869910E+00  7.59869910E+00 -1.51973982E+01
  7.59869910E+00  7.59869910E+00 -1.51973982E+01  7.59869910E+00  7.59869910E+00
 -1.51973982E+01  7.59869910E+00  7.59869910E+00 -1.51973982E+01  7.59869910E+00
  7.59869910E+00 -1.51973982E+01  7.59869910E+00  7.59869910E+00 -1.51973982E+01
  7.59869910E+00  7.59869910E+00 -1.51973982E+01  7.59869910E+00  7.59869910E+00
 -1.51973982E+01  7.59869910E+00  7.59869910E+00 -1.51973982E+01  7.59869910E+00
  7.59869910E+00 -1.51973982E+01  7.59869910E+00  7.59869910E+00 -1.51973982E+01
  7.59869910E+00  7.59869910E+00 -1.51973982E+01  7.59869910E+00  7.59869910E+00
 -1.51973982E+01  7.59869910E+00  7.59869910E+00 -1.51973982E+01  7.59869910E+00
  7.59869910E+00 -1.51973982E+01  7.59869910E+00  7.59869910E+00 -1.51973982E+01
  7.59869910E+00  7.59869910E+00 -1.51973982E+01  7.59869910E+00  7.59869910E+00
 -1.51973982E+01  7.59869910E+00  7.59869910E+00 -1.51973982E+01  7.59869910E+00
  7.59869910E+00 -1.51973982E+01  7.59869910E+00  7.59869910E+00 -1.51973982E+01
  7.59869910E+00  7.59869910E+00 -1.51973982E+01  7.59869910E+00  7.59869910E+00
 -1.51973982E+01  7.59869910E+00  7.59869910E+00 -1.51973982E+01  7.59869910E+00
  7.59869910E+00 -1.51973982E+01  7.59869910E+00  7.59869910E+00 -1.51973982E+01
  7.59869910E+00  7.59869910E+00 -1.51973982E+01  7.59869910E+00  7.59869910E+00
 -1.51973982E+01  7.59869910E+00  7.59869910E+00 -1.51973982E+01  7.59869910E+00
  7.59869910E+00 -1.51973982E+01  7.59869910E+00  7.59869910E+00 -1.51973982E+01
  7.59869910E+00  7.59869910E+00 -1.51973982E+01  7.59869910E+00  7.59869910E+00
 -1.51973982E+01  7.59869910E+00  7.59869910E+00 -1.51973982E+01  7.59869910E+00
  7.59869910E+00 -1.51973982E+01  7.59869910E+00  7.59869910E+00 -1.51973982E+01
  7.59869910E+00  7.59869910E+00 -1.51973982E+01  7.59869910E+00  7.59869910E+00
 -1.51973982E+01  7.59869910E+00  7.59869910E+00 -1.51973982E+01  7.59869910E+00
  7.59869910E+00 -1.51973982E+01  7.59869910E+00  7.59869910E+00 -1.51973982E+01
  7.59869910E+00  7.59869910E+00 -1.51973982E+01  7.59869910E+00  7.59869910E+00
 -1.51973982E+01  7.59869910E+00  7.59869910E+00 -1.51973982E+01  7.59869910E+00
  7.59869910E+00 -1.51973982E+01  7.59869910E+00  7.59869910E+00 -1.51973982E+01
  7.59869910E+00  7.59869910E+00 -1.51973982E+01  7.59869910E+00  7.59869910E+00
 -1.51973982E+01  7.59869910E+00  7.59869910E+00 -1.51973982E+01  7.59869910E+00
  7.59869910E+00 -1.51973982E+01  7.59869910E+00  7.59869910E+00 -1.51973982E+01
  7.59869910E+00  7.59869910E+00 -1.51973982E+01  7.59869910E+00  7.59869910E+00
 -1.51973982E+01  7.59869910E+00  7.59869910E+00 -1.51973982E+01  7.59869910E+00
  7.59869910E+00 -1.51973982E+01  7.59869910E+00  7.59869910E+00 -1.51973982E+01
  7.59869910E+00  7.59869910E+00 -1.51973982E+01  7.59869910E+00  7.59869910E+00
 -1.51973982E+01  7.59869910E+00  7.59869910E+00 -1.51973982E+01  7.59869910E+00
  7.59869910E+00 -1.51973982E+01  7.59869910E+00  7.59869910E+00 -1.51973982E+01
  7.59869910E+00  7.59869910E+00 -1.51973982E+01  7.59869910E+00  7.59869910E+00
 -1.51973982E+01  7.59869910E+00  7.59869910E+00 -1.51973982E+01  7.59869910E+00
  7.59869910E+00 -1.51973982E+01  7.59869910E+00  7.59869910E+00 -1.51973982E+01
  7.59869910E+00  7.59869910E+00 -1.51973982E+01  7.59869910E+00  7.59869910E+00
 -1.51973982E+01  7.59869910E+00  7.59869910E+00 -1.51973982E+01  7.59869910E+00
  7.59869910E+00 -1.51973982E+01  7.59869910E+00  7.59869910E+00 -1.51973982E+01
  7.59869910E+00  7.59869910E+00 -1.51973982E+01  7.59869910E+00  7.59869910E+00
 -1.51973982E+01  7.59869910E+00  7.59869910E+00 -1.51973982E+01  7.59869910E+00
  7.59869910E+00 -1.51973982E+01  7.59869910E+00  7.59869910E+00 -1.51973982E+01
  7.59869910E+00  7.59869910E+00 -1.51973982E+01  7.59869910E+00  7.59869910E+00
 -1.51973982E+01  7.59869910E+00  7.59869910E+00 -1.51973982E+01  7.59869910E+00
  7.59869910E+00 -1.51973982E+01  7.59869910E+00  7.59869910E+00 -1.51973982E+01
  7.59869910E+00  7.59869910E+00 -1.51973982E+01  7.59869910E+00  7.59869910E+00
 -1.51973982E+01  7.59869910E+00  7.59869910E+00 -1.51973982E+01  7.59869910E+00
  7.59869910E+00 -1.51973982E+01  7.59869910E+00  7.59869910E+00 -1.51973982E+01
  7.59869910E+00  7.59869910E+00 -1.51973982E+01  7.59869910E+00  7.59869910E+00
 -1.51973982E+01  7.59869910E+00  7.59869910E+00 -1.51973982E+01  7.59869910E+00
  7.59869910E+00 -1.51973982E+01  7.59869910E+00  7.59869910E+00 -1.51973982E+01
  7.59869910E+00  7.59869910E+00 -1.51973982E+01  7.59869910E+00  7.59869910E+00
 -1.51973982E+01  7.59869910E+00  7.59869910E+00 -1.51973982E+01  7.59869910E+00
  7.59869910E+00 -1.51973982E+01  7.59869910E+00  7.59869910E+00 -1.51973982E+01
  7.59869910E+00  7.59869910E+00 -1.51973982E+01  7.59869910E+00  7.59869910E+00
 -1.51973982E+01  7.59869910E+00  7.59869910E+00 -1.51973982E+01  7.59869910E+00
  7.59869910E+00 -1.51973982E+01  7.59869910E+00  7.59869910E+00 -1.51973982E+01
  7.59869910E+00  7.59869910E+00 -1.51973982E+01  7.59869910E+00  7.59869910E+00
 -1.51973982E+01  7.59869910E+00  7.59869910E+00 -1.51973982E+01  7.59869910E+00
  7.59869910E+00 -1.51973982E+01  7.59869910E+00  7.59869910E+00 -1.51973982E+01
  7.59869910E+00  7.59869910E+00 -1.51973982E+01  7.59869910E+00  7.59869910E+00
 -1.51973982E+01  7.59869910E+00  7.59869910E+00 -1.51973982E+01  7.59869910E+00
  7.59869910E+00 -1.51973982E+01  7.59869910E+00  7.59869910E+00 -1.51973982E+01
  7.59869910E+00  7.59869910E+00 -1.51973982E+01  7.59869910E+00  7.59869910E+00
 -1.51973982E+01  7.59869910E+00  7.59869910E+00 -1.51973982E+01  7.59869910E+00
  7.59869910E+00 -1.51973982E+01  7.59869910E+00  7.59869910E+00 -1.51973982E+01
  7.59869910E+00  7.59869910E+00 -1.51973982E+01  7.59869910E+00  7.59869910E+00
 -1.51973982E+01  7.59869910E+00  7.59869910E+00 -1.51973982E+01  7.59869910E+00
  7.59869910E+00 -1.51973982E+01  7.59869910E+00  7.59869910E+00 -1.51973982E+01
  7.59869910E+00  7.59869910E+00 -1.51973982E+01  7.59869910E+00  7.59869910E+00
 -1.51973982E+01  7.59869910E+00  7.59869910E+00 -1.51973982E+01  7.59869910E+00
  7.59869910E+00 -1.51973982E+01  7.59869910E+00  7.59869910E+00 -1.51973982E+01
  7.59869910E+00  7.59869910E+00 -1.51973982E+01  7.59869910E+00  7.59869910E+00
 -1.51973982E+01  7.59869910E+00  7.59869910E+00 -1.51973982E+01  7.59869910E+00
  7.59869910E+00 -1.51973982E+01  7.59869910E+00  7.59869910E+00 -1.51973982E+01
  7.59869910E+00  7.59869910E+00 -1.51973982E+01  7.59869910E+00  7.59869910E+00
 -1.51973982E+01  7.59869910E+00  7.59869910E+00 -1.51973982E+01  7.59869910E+00
  7.59869910E+00 -1.51973982E+01  7.59869910E+00  7.59869910E+00 -1.51973982E+01
  7.59869910E+00  7.59869910E+00 -1.51973982E+01  7.59869910E+00  7.59869910E+00
 -1.51973982E+01  7.59869910E+00  7.59869910E+00 -1.51973982E+01  7.59869910E+00
  7.59869910E+00 -1.51973982E+01  7.59869910E+00  7.59869910E+00 -1.51973982E+01
  7.59869910E+00  7.59869910E+00 -1.51973982E+01  7.59869910E+00  7.59869910E+00
 -1.51973982E+01  7.59869910E+00  7.59869910E+00 -1.51973982E+01  7.59869910E+00
  7.59869910E+00 -1.51973982E+01  7.59869910E+00  7.59869910E+00 -1.51973982E+01
  7.59869910E+00  7.59869910E+00 -1.51973982E+01  7.59869910E+00  7.59869910E+00
 -1.51973982E+01  7.59869910E+00  7.59869910E+00 -1.51973982E+01  7.59869910E+00
  7.59869910E+00 -1.51973982E+01  7.59869910E+00  7.59869910E+00 -1.51973982E+01
  7.59869910E+00  7.59869910E+00 -1.51973982E+01  7.59869910E+00  7.59869910E+00
 -1.51973982E+01  7.59869910E+00  7.59869910E+00 -1.51973982E+01  7.59869910E+00
  7.59869910E+00 -1.51973982E+01  7.59869910E+00  7.59869910E+00 -1.51973982E+01
  7.59869910E+00  7.59869910E+00 -1.51973982E+01  7.59869910E+00  7.59869910E+00
 -1.51973982E+01  7.59869910E+00  7.59869910E+00 -1.51973982E+01  7.59869910E+00
  7.59869910E+00 -1.51973982E+01  7.59869910E+00  7.59869910E+00 -1.51973982E+01
  7.59869910E+00  7.59869910E+00 -1.51973982E+01  7.59869910E+00  7.59869910E+00
 -1.51973982E+01  7.59869910E+00  7.59869910E+00 -1.51973982E+01  7.59869910E+00
  7.59869910E+00 -1.51973982E+01  7.59869910E+00  7.59869910E+00 -1.51973982E+01
  7.59869910E+00  7.59869910E+00 -1.51973982E+01  7.59869910E+00  7.59869910E+00
 -1.51973982E+01  7.59869910E+00  7.59869910E+00 -1.51973982E+01  7.59869910E+00
  7.59869910E+00 -1.51973982E+01  7.59869910E+00  7.59869910E+00 -1.51973982E+01
  7.59869910E+00  7.59869910E+00 -1.51973982E+01  7.59869910E+00  7.59869910E+00
 -1.51973982E+01  7.59869910E+00  7.59869910E+00 -1.51973982E+01  7.59869910E+00
  7.59869910E+00 -1.51973982E+01  7.59869910E+00  7.59869910E+00 -1.51973982E+01
  7.59869910E+00  7.59869910E+00 -1.51973982E+01  7.59869910E+00  7.59869910E+00
 -1.51973982E+01  7.59869910E+00  7.59869910E+00 -1.51973982E+01  7.59869910E+00
  7.59869910E+00 -1.51973982E+01  7.59869910E+00  7.59869910E+00 -1.51973982E+01
  7.59869910E+00  7.59869910E+00 -1.51973982E+01  7.59869910E+00  7.59869910E+00
 -1.51973982E+01  7.59869910E+00  7.59869910E+00 -1.51973982E+01  7.59869910E+00
  7.59869910E+00 -1.51973982E+01  7.59869910E+00  7.59869910E+00 -1.51973982E+01
  7.59869910E+00  7.59869910E+00 -1.51973982E+01  7.59869910E+00  7.59869910E+00
 -1.51973982E+01  7.59869910E+00  7.59869910E+00 -1.51973982E+01  7.59869910E+00
  7.59869910E+00 -1.51973982E+01  7.59869910E+00  7.59869910E+00 -1.51973982E+01
  7.59869910E+00  7.59869910E+00 -1.51973982E+01  7.59869910E+00  7.59869910E+00
 -1.51973982E+01  7.59869910E+00  7.59869910E+00 -1.51973982E+01  7.59869910E+00
  7.59869910E+00 -1.51973982E+01  7.59869910E+00  7.59869910E+00 -1.51973982E+01
  7.59869910E+00  7.59869910E+00 -1.51973982E+01  7.59869910E+00  7.59869910E+00
 -1.51973982E+01  7.59869910E+00  7.59869910E+00 -1.51973982E+01  7.59869910E+00
  7.59869910E+00 -1.51973982E+01  7.59869910E+00  7.59869910E+00 -1.51973982E+01
  7.59869910E+00  7.59869910E+00 -1.51973982E+01  7.59869910E+00  7.59869910E+00
 -1.51973982E+01  7.59869910E+00  7.59869910E+00 -1.51973982E+01  7.59869910E+00
  7.59869910E+00 -1.51973982E+01  7.59869910E+00  7.59869910E+00 -1.51973982E+01
  7.59869910E+00  7.59869910E+00 -1.51973982E+01  7.59869910E+00  7.59869910E+00
 -1.51973982E+01  7.59869910E+00  7.59869910E+00 -1.51973982E+01  7.59869910E+00
  7.59869910E+00 -1.51973982E+01  7.59869910E+00  7.59869910E+00 -1.51973982E+01
  7.59869910E+00  7.59869910E+00 -1.51973982E+01  7.59869910E+00  7.59869910E+00
 -1.51973982E+01  7.59869910E+00  7.59869910E+00 -1.51973982E+01  7.59869910E+00
  7.59869910E+00 -1.51973982E+01  7.59869910E+00  7.59869910E+00 -1.51973982E+01
  7.59869910E+00  7.59869910E+00 -1.51973982E+01  7.59869910E+00  7.59869910E+00
 -1.51973982E+01  7.59869910E+00  7.59869910E+00 -1.51973982E+01  7.59869910E+00
  7.59869910E+00 -1.51973982E+01  7.59869910E+00  7.59869910E+00 -1.51973982E+01
  7.59869910E+00  7.59869910E+00 -1.51973982E+01  7.59869910E+00  7.59869910E+00
 -1.51973982E+01  7.59869910E+00  7.59869910E+00 -1.51973982E+01  7.59869910E+00
  7.59869910E+00 -1.51973982E+01  7.59869910E+00  7.59869910E+00 -1.51973982E+01
  7.59869910E+00  7.59869910E+00 -1.51973982E+01  7.59869910E+00  7.59869910E+00
 -1.51973982E+01  7.59869910E+00  7.59869910E+00 -1.51973982E+01  7.59869910E+00
  7.59869910E+00 -1.51973982E+01  7.59869910E+00  7.59869910E+00 -1.51973982E+01
  7.59869910E+00  7.59869910E+00 -1.51973982E+01  7.59869910E+00  7.59869910E+00
 -1.51973982E+01  7.59869910E+00  7.59869910E+00 -1.51973982E+01  7.59869910E+00
  7.59869910E+00 -1.51973982E+01  7.59869910E+00  7.59869910E+00 -1.51973982E+01
  7.59869910E+00  7.59869910E+00 -1.51973982E+01  7.59869910E+00  7.59869910E+00
 -1.51973982E+01  7.59869910E+00  7.59869910E+00 -1.51973982E+01  7.59869910E+00
  7.59869910E+00 -1.51973982E+01  7.59869910E+00  7.59869910E+00 -1.51973982E+01
  7.59869910E+00  7.59869910E+00 -1.51973982E+01  7.59869910E+00  7.59869910E+00
 -1.51973982E+01  7.59869910E+00  7.59869910E+00 -1.51973982E+01  7.59869910E+00
  7.59869910E+00 -1.51973982E+01  7.59869910E+00  7.59869910E+00 -1.51973982E+01
  7.59869910E+00  7.59869910E+00 -1.51973982E+01  7.59869910E+00  7.59869910E+00
 -1.51973982E+01  7.59869910E+00  7.59869910E+00 -1.51973982E+01  7.59869910E+00
  7.59869910E+00 -1.51973982E+01  7.59869910E+00  7.59869910E+00 -1.51973982E+01
  7.59869910E+00  7.59869910E+00 -1.51973982E+01  7.59869910E+00  7.59869910E+00
 -1.51973982E+01  7.59869910E+00  7.59869910E+00 -1.51973982E+01  7.59869910E+00
  7.59869910E+00 -1.51973982E+01  7.59869910E+00  7.59869910E+00 -1.51973982E+01
  7.59869910E+00  7.59869910E+00 -1.51973982E+01  7.59869910E+00  7.59869910E+00
 -1.51973982E+01  7.59869910E+00  7.59869910E+00 -1.51973982E+01  7.59869910E+00
  7.59869910E+00 -1.51973982E+01  7.59869910E+00  7.59869910E+00 -1.51973982E+01
  7.59869910E+00  7.59869910E+00 -1.51973982E+01  7.59869910E+00  7.59869910E+00
 -1.51973982E+01  7.59869910E+00  7.59869910E+00 -1.51973982E+01  7.59869910E+00
  7.59869910E+00 -1.51973982E+01  7.59869910E+00  7.59869910E+00 -1.51973982E+01
  7.59869910E+00  7.59869910E+00 -1.51973982E+01  7.59869910E+00  7.59869910E+00
 -1.51973982E+01  7.59869910E+00  7.59869910E+00 -1.51973982E+01  7.59869910E+00
  7.59869910E+00 -1.51973982E+01  7.59869910E+00  7.59869910E+00 -1.51973982E+01
  7.59869910E+00  7.59869910E+00 -1.51973982E+01  7.59869910E+00  7.59869910E+00
 -1.51973982E+01  7.59869910E+00  7.59869910E+00 -1.51973982E+01  7.59869910E+00
  7.59869910E+00 -1.51973982E+01  7.59869910E+00  7.59869910E+00 -1.51973982E+01
  7.59869910E+00  7.59869910E+00 -1.51973982E+01  7.59869910E+00  7.59869910E+00
 -1.51973982E+01  7.59869910E+00  7.59869910E+00 -1.51973982E+01  7.59869910E+00
  7.59869910E+00 -1.51973982E+01  7.59869910E+00  7.59869910E+00 -1.51973982E+01
  7.59869910E+00  7.59869910E+00 -1.51973982E+01  7.59869910E+00  7.59869910E+00
 -1.51973982E+01  7.59869910E+00  7.59869910E+00 -1.51973982E+01  7.59869910E+00
  7.59869910E+00 -1.51973982E+01  7.59869910E+00  7.59869910E+00 -1.51973982E+01
  7.59869910E+00  7.59869910E+00 -1.51973982E+01  7.59869910E+00  7.59869910E+00
 -1.51973982E+01  7.59869910E+00  7.59869910E+00 -1.51973982E+01  7.59869910E+00
  7.59869910E+00 -1.51973982E+01  7.59869910E+00  7.59869910E+00 -1.51973982E+01
  7.59869910E+00  7.59869910E+00 -1.51973982E+01  7.59869910E+00  7.59869910E+00
 -1.51973982E+01  7.59869910E+00  7.59869910E+00 -1.51973982E+01  7.59869910E+00
  7.59869910E+00 -1.51973982E+01  7.59869910E+00  7.59869910E+00 -1.51973982E+01
  7.59869910E+00  7.59869910E+00 -1.51973982E+01  7.59869910E+00  7.59869910E+00
 -1.51973982E+01  7.59869910E+00  7.59869910E+00 -1.51973982E+01  7.59869910E+00
  7.59869910E+00 -1.51973982E+01  7.59869910E+00  7.59869910E+00 -1.51973982E+01
  7.59869910E+00  7.59869910E+00 -1.51973982E+01  7.59869910E+00  7.59869910E+00
 -1.51973982E+01  7.59869910E+00  7.59869910E+00 -1.51973982E+01  7.59869910E+00
  7.59869910E+00 -1.51973982E+01  7.59869910E+00  7.59869910E+00 -1.51973982E+01
  7.59869910E+00  7.59869910E+00 -1.51973982E+01  7.59869910E+00  7.59869910E+00
 -1.51973982E+01  7.59869910E+00  7.59869910E+00 -1.51973982E+01  7.59869910E+00
  7.59869910E+00 -1.51973982E+01  7.59869910E+00  7.59869910E+00 -1.51973982E+01
  7.59869910E+00  7.59869910E+00 -1.51973982E+01  7.59869910E+00  7.59869910E+00
 -1.51973982E+01  7.59869910E+00  7.59869910E+00 -1.51973982E+01  7.59869910E+00
  7.59869910E+00 -1.51973982E+01  7.59869910E+00  7.59869910E+00 -1.51973982E+01
  7.59869910E+00  7.59869910E+00 -1.51973982E+01  7.59869910E+00  7.59869910E+00
 -1.51973982E+01  7.59869910E+00  7.59869910E+00 -1.51973982E+01  7.59869910E+00
  7.59869910E+00 -1.51973982E+01  7.59869910E+00  7.59869910E+00 -1.51973982E+01
  7.59869910E+00  7.59869910E+00 -1.51973982E+01  7.59869910E+00  7.59869910E+00
 -1.51973982E+01  7.59869910E+00  7.59869910E+00 -1.51973982E+01  7.59869910E+00
  7.59869910E+00 -1.51973982E+01  7.59869910E+00  7.59869910E+00 -1.51973982E+01
  7.59869910E+00  7.59869910E+00 -1.51973982E+01  7.59869910E+00  7.59869910E+00
 -1.51973982E+01  7.59869910E+00  7.59869910E+00 -1.51973982E+01  7.59869910E+00
  7.59869910E+00 -1.51973982E+01  7.59869910E+00  7.59869910E+00 -1.51973982E+01
  7.59869910E+00  7.59869910E+00 -1.51973982E+01  7.59869910E+00  7.59869910E+00
 -1.51973982E+01  7.59869910E+00  7.59869910E+00 -1.51973982E+01  7.59869910E+00
  7.59869910E+00 -1.51973982E+01  7.59869910E+00  7.59869910E+00 -1.51973982E+01
  7.59869910E+00  7.59869910E+00 -1.51973982E+01  7.59869910E+00  7.59869910E+00
 -1.51973982E+01  7.59869910E+00  7.59869910E+00 -1.51973982E+01  7.59869910E+00
  7.59869910E+00 -1.51973982E+01  7.59869910E+00  7.59869910E+00 -1.51973982E+01
  7.59869910E+00  7.59869910E+00 -1.51973982E+01  7.59869910E+00  7.59869910E+00
 -1.51973982E+01  7.59869910E+00  7.59869910E+00 -1.51973982E+01  7.59869910E+00
  7.59869910E+00 -1.51973982E+01  7.59869910E+00  7.59869910E+00 -1.51973982E+01
  7.59869910E+00  7.59869910E+00 -1.51973982E+01  7.59869910E+00  7.59869910E+00
 -1.51973982E+01  7.59869910E+00  7.59869910E+00 -1.51973982E+01  7.59869910E+00
  7.59869910E+00 -1.51973982E+01  7.59869910E+00  7.59869910E+00 -1.51973982E+01
  7.59869910E+00  7.59869910E+00 -1.51973982E+01  7.59869910E+00  7.59869910E+00
 -1.51973982E+01  7.59869910E+00  7.59869910E+00 -1.51973982E+01  7.59869910E+00
  7.59869910E+00 -1.51973982E+01  7.59869910E+00  7.59869910E+00 -1.51973982E+01
  7.59869910E+00  7.59869910E+00 -1.51973982E+01  7.59869910E+00  7.59869910E+00
 -1.51973982E+01  7.59869910E+00  7.59869910E+00 -1.51973982E+01  7.59869910E+00
  7.59869910E+00 -1.51973982E+01  7.59869910E+00  7.59869910E+00 -1.51973982E+01
  7.59869910E+00  7.59869910E+00 -1.51973982E+01  7.59869910E+00  7.59869910E+00
 -1.51973982E+01  7.59869910E+00  7.59869910E+00 -1.51973982E+01  7.59869910E+00
  7.59869910E+00 -1.51973982E+01  7.59869910E+00  7.59869910E+00 -1.51973982E+01
  7.59869910E+00  7.59869910E+00 -1.51973982E+01  7.59869910E+00  7.59869910E+00
 -1.51973982E+01  7.59869910E+00  7.59869910E+00 -1.51973982E+01  7.59869910E+00
  7.59869910E+00 -1.51973982E+01  7.59869910E+00  7.59869910E+00 -1.51973982E+01
  7.59869910E+00  7.59869910E+00 -1.51973982E+01  7.59869910E+00  7.59869910E+00
 -1.51973982E+01  7.59869910E+00  7.59869910E+00 -1.51973982E+01  7.59869910E+00
  7.59869910E+00 -1.51973982E+01  7.59869910E+00  7.59869910E+00 -1.51973982E+01
  7.59869910E+00  7.59869910E+00 -1.51973982E+01  7.59869910E+00  7.59869910E+00
 -1.51973982E+01  7.59869910E+00  7.59869910E+00 -1.51973982E+01  7.59869910E+00
  7.59869910E+00 -1.51973982E+01  7.59869910E+00  7.59869910E+00 -1.51973982E+01
  7.59869910E+00  7.59869910E+00 -1.51973982E+01  7.59869910E+00  7.59869910E+00
 -1.51973982E+01  7.59869910E+00  7.59869910E+00 -1.51973982E+01  7.59869910E+00
  7.59869910E+00 -1.51973982E+01  7.59869910E+00  7.59869910E+00 -1.51973982E+01
  7.59869910E+00  7.59869910E+00 -1.51973982E+01  7.59869910E+00  7.59869910E+00
 -1.51973982E+01  7.59869910E+00  7.59869910E+00 -1.51973982E+01  7.59869910E+00
  7.59869910E+00 -1.51973982E+01  7.59869910E+00  7.59869910E+00 -1.51973982E+01
  7.59869910E+00  7.59869910E+00 -1.51973982E+01  7.59869910E+00  7.59869910E+00
 -1.51973982E+01  7.59869910E+00  7.59869910E+00 -1.51973982E+01  7.59869910E+00
  7.59869910E+00 -1.51973982E+01  7.59869910E+00  7.59869910E+00 -1.51973982E+01
  7.59869910E+00  7.59869910E+00 -1.51973982E+01  7.59869910E+00  7.59869910E+00
 -1.51973982E+01  7.59869910E+00  7.59869910E+00 -1.51973982E+01  7.59869910E+00
  7.59869910E+00 -1.51973982E+01  7.59869910E+00  7.59869910E+00 -1.51973982E+01
  7.59869910E+00  7.59869910E+00 -1.51973982E+01  7.59869910E+00  7.59869910E+00
 -1.51973982E+01  7.59869910E+00  7.59869910E+00 -1.51973982E+01  7.59869910E+00
  7.59869910E+00 -1.51973982E+01  7.59869910E+00  7.59869910E+00 -1.51973982E+01
  7.59869910E+00  7.59869910E+00 -1.51973982E+01  7.59869910E+00  7.59869910E+00
 -1.51973982E+01  7.59869910E+00  7.59869910E+00 -1.51973982E+01  7.59869910E+00
  7.59869910E+00 -1.51973982E+01  7.59869910E+00  7.59869910E+00 -1.51973982E+01
  7.59869910E+00  7.59869910E+00 -1.51973982E+01  7.59869910E+00  7.59869910E+00
 -1.51973982E+01  7.59869910E+00  7.59869910E+00 -1.51973982E+01  7.59869910E+00
  7.59869910E+00 -1.51973982E+01  7.59869910E+00  7.59869910E+00 -1.51973982E+01
  7.59869910E+00  7.59869910E+00 -1.51973982E+01  7.59869910E+00  7.59869910E+00
 -1.51973982E+01  7.59869910E+00  7.59869910E+00 -1.51973982E+01  7.59869910E+00
  7.59869910E+00 -1.51973982E+01  7.59869910E+00  7.59869910E+00 -1.51973982E+01
  7.59869910E+00  7.59869910E+00 -1.51973982E+01  7.59869910E+00  7.59869910E+00
 -1.51973982E+01  7.59869910E+00  7.59869910E+00 -1.51973982E+01  7.59869910E+00
  7.59869910E+00 -1.51973982E+01  7.59869910E+00  7.59869910E+00 -1.51973982E+01
  7.59869910E+00  7.59869910E+00 -1.51973982E+01  7.59869910E+00  7.59869910E+00
 -1.51973982E+01  7.59869910E+00  7.59869910E+00 -1.51973982E+01  7.59869910E+00
  7.59869910E+00 -1.51973982E+01  7.59869910E+00  7.59869910E+00 -1.51973982E+01
  7.59869910E+00  7.59869910E+00 -1.51973982E+01  7.59869910E+00  7.59869910E+00
 -1.51973982E+01  7.59869910E+00  7.59869910E+00 -1.51973982E+01  7.59869910E+00
  7.59869910E+00 -1.51973982E+01  7.59869910E+00  7.59869910E+00 -1.51973982E+01
  7.59869910E+00  7.59869910E+00 -1.51973982E+01  7.59869910E+00  7.59869910E+00
 -1.51973982E+01  7.59869910E+00  7.59869910E+00 -1.51973982E+01  7.59869910E+00
  7.59869910E+00 -1.51973982E+01  7.59869910E+00  7.59869910E+00 -1.51973982E+01
  7.59869910E+00  7.59869910E+00 -1.51973982E+01  7.59869910E+00  7.59869910E+00
 -1.51973982E+01  7.59869910E+00  7.59869910E+00 -1.51973982E+01  7.59869910E+00
  7.59869910E+00 -1.51973982E+01  7.59869910E+00  7.59869910E+00 -1.51973982E+01
  7.59869910E+00  7.59869910E+00 -1.51973982E+01  7.59869910E+00  7.59869910E+00
 -1.51973982E+01  7.59869910E+00  7.59869910E+00 -1.51973982E+01  7.59869910E+00
  7.59869910E+00 -1.51973982E+01  7.59869910E+00  7.59869910E+00 -1.51973982E+01
  7.59869910E+00  7.59869910E+00 -1.51973982E+01  7.59869910E+00  7.59869910E+00
 -1.51973982E+01  7.59869910E+00  7.59869910E+00 -1.51973982E+01  7.59869910E+00
  7.59869910E+00 -1.51973982E+01  7.59869910E+00  7.59869910E+00 -1.51973982E+01
  7.59869910E+00  7.59869910E+00 -1.51973982E+01  7.59869910E+00  7.59869910E+00
 -1.51973982E+01  7.59869910E+00  7.59869910E+00 -1.51973982E+01  7.59869910E+00
  7.59869910E+00 -1.51973982E+01  7.59869910E+00  7.59869910E+00 -1.51973982E+01
  7.59869910E+00  7.59869910E+00 -1.51973982E+01  7.59869910E+00  7.59869910E+00
 -1.51973982E+01  7.59869910E+00  7.59869910E+00 -1.51973982E+01  7.59869910E+00
  7.59869910E+00 -1.51973982E+01  7.59869910E+00  7.59869910E+00 -1.51973982E+01
  7.59869910E+00  7.59869910E+00 -1.51973982E+01  7.59869910E+00  7.59869910E+00
 -1.51973982E+01  7.59869910E+00  7.59869910E+00 -1.51973982E+01  7.59869910E+00
  7.59869910E+00 -1.51973982E+01  7.59869910E+00  7.59869910E+00 -1.51973982E+01
  7.59869910E+00  7.59869910E+00 -1.51973982E+01  7.59869910E+00  7.59869910E+00
 -1.51973982E+01  7.59869910E+00  7.59869910E+00 -1.51973982E+01  7.59869910E+00
  7.59869910E+00 -1.51973982E+01  7.59869910E+00  7.59869910E+00 -1.51973982E+01
  7.59869910E+00  7.59869910E+00 -1.51973982E+01  7.59869910E+00  7.59869910E+00
 -1.51973982E+01  7.59869910E+00  7.59869910E+00 -1.51973982E+01  7.59869910E+00
  7.59869910E+00 -1.51973982E+01  7.59869910E+00  7.59869910E+00 -1.51973982E+01
  7.59869910E+00  7.59869910E+00 -1.51973982E+01  7.59869910E+00  7.59869910E+00
 -1.51973982E+01  7.59869910E+00  7.59869910E+00 -1.51973982E+01  7.59869910E+00
  7.59869910E+00 -1.51973982E+01  7.59869910E+00  7.59869910E+00 -1.51973982E+01
  7.59869910E+00  7.59869910E+00 -1.51973982E+01  7.59869910E+00  7.59869910E+00
 -1.51973982E+01  7.59869910E+00  7.59869910E+00 -1.51973982E+01  7.59869910E+00
  7.59869910E+00 -1.51973982E+01  7.59869910E+00  7.59869910E+00 -1.51973982E+01
  7.59869910E+00  7.59869910E+00 -1.51973982E+01  7.59869910E+00  7.59869910E+00
 -1.51973982E+01  7.59869910E+00  7.59869910E+00 -1.51973982E+01  7.59869910E+00
  7.59869910E+00 -1.51973982E+01  7.59869910E+00  7.59869910E+00 -1.51973982E+01
  7.59869910E+00  7.59869910E+00 -1.51973982E+01  7.59869910E+00  7.59869910E+00
 -1.51973982E+01  7.59869910E+00  7.59869910E+00 -1.51973982E+01  7.59869910E+00
  7.59869910E+00 -1.51973982E+01  7.59869910E+00  7.59869910E+00 -1.51973982E+01
  7.59869910E+00  7.59869910E+00 -1.51973982E+01  7.59869910E+00  7.59869910E+00
 -1.51973982E+01  7.59869910E+00  7.59869910E+00 -1.51973982E+01  7.59869910E+00
  7.59869910E+00 -1.51973982E+01  7.59869910E+00  7.59869910E+00 -1.51973982E+01
  7.59869910E+00  7.59869910E+00 -1.51973982E+01  7.59869910E+00  7.59869910E+00
 -1.51973982E+01  7.59869910E+00  7.59869910E+00 -1.51973982E+01  7.59869910E+00
  7.59869910E+00 -1.51973982E+01  7.59869910E+00  7.59869910E+00 -1.51973982E+01
  7.59869910E+00  7.59869910E+00 -1.51973982E+01  7.59869910E+00  7.59869910E+00
 -1.51973982E+01  7.59869910E+00  7.59869910E+00 -1.51973982E+01  7.59869910E+00
  7.59869910E+00 -1.51973982E+01  7.59869910E+00  7.59869910E+00 -1.51973982E+01
  7.59869910E+00  7.59869910E+00 -1.51973982E+01  7.59869910E+00  7.59869910E+00
 -1.51973982E+01  7.59869910E+00  7.59869910E+00 -1.51973982E+01  7.59869910E+00
  7.59869910E+00 -1.51973982E+01  7.59869910E+00  7.59869910E+00 -1.51973982E+01
  7.59869910E+00  7.59869910E+00 -1.51973982E+01  7.59869910E+00  7.59869910E+00
 -1.51973982E+01  7.59869910E+00  7.59869910E+00 -1.51973982E+01  7.59869910E+00
  7.59869910E+00 -1.51973982E+01  7.59869910E+00  7.59869910E+00 -1.51973982E+01
  7.59869910E+00  7.59869910E+00 -1.51973982E+01  7.59869910E+00  7.59869910E+00
 -1.51973982E+01  7.59869910E+00  7.59869910E+00 -1.51973982E+01  7.59869910E+00
  7.59869910E+00 -1.51973982E+01  7.59869910E+00  7.59869910E+00 -1.51973982E+01
  7.59869910E+00  7.59869910E+00 -1.51973982E+01  7.59869910E+00  7.59869910E+00
 -1.51973982E+01  7.59869910E+00  7.59869910E+00 -1.51973982E+01  7.59869910E+00
  7.59869910E+00 -1.51973982E+01  7.59869910E+00  7.59869910E+00 -1.51973982E+01
  7.59869910E+00  7.59869910E+00 -1.51973982E+01  7.59869910E+00  7.59869910E+00
 -1.51973982E+01  7.59869910E+00  7.59869910E+00 -1.51973982E+01  7.59869910E+00
  7.59869910E+00 -1.51973982E+01  7.59869910E+00  7.59869910E+00 -1.51973982E+01
  7.59869910E+00  7.59869910E+00 -1.51973982E+01  7.59869910E+00  7.59869910E+00
 -1.51973982E+01  7.59869910E+00  7.59869910E+00 -1.51973982E+01  7.59869910E+00
  7.59869910E+00 -1.51973982E+01  7.59869910E+00  7.59869910E+00 -1.51973982E+01
  7.59869910E+00  7.59869910E+00 -1.51973982E+01  7.59869910E+00  7.59869910E+00
 -1.51973982E+01  7.59869910E+00  7.59869910E+00 -1.51973982E+01  7.59869910E+00
  7.59869910E+00 -1.51973982E+01  7.59869910E+00  7.59869910E+00 -1.51973982E+01
  7.59869910E+00  7.59869910E+00 -1.51973982E+01  7.59869910E+00  7.59869910E+00
 -1.51973982E+01  7.59869910E+00  7.59869910E+00 -1.51973982E+01  7.59869910E+00
  7.59869910E+00 -1.51973982E+01  7.59869910E+00  7.59869910E+00 -1.51973982E+01
  7.59869910E+00  7.59869910E+00 -1.51973982E+01  7.59869910E+00  7.59869910E+00
 -1.51973982E+01  7.59869910E+00  7.59869910E+00 -1.51973982E+01  7.59869910E+00
  7.59869910E+00 -1.51973982E+01  7.59869910E+00  7.59869910E+00 -1.51973982E+01
  7.59869910E+00  7.59869910E+00 -1.51973982E+01  7.59869910E+00  7.59869910E+00
 -1.51973982E+01  7.59869910E+00  7.59869910E+00 -1.51973982E+01  7.59869910E+00
  7.59869910E+00 -1.51973982E+01  7.59869910E+00  7.59869910E+00 -1.51973982E+01
  7.59869910E+00  7.59869910E+00 -1.51973982E+01  7.59869910E+00  7.59869910E+00
 -1.51973982E+01  7.59869910E+00  7.59869910E+00 -1.51973982E+01  7.59869910E+00
  7.59869910E+00 -1.51973982E+01  7.59869910E+00  7.59869910E+00 -1.51973982E+01
  7.59869910E+00  7.59869910E+00 -1.51973982E+01  7.59869910E+00  7.59869910E+00
 -1.51973982E+01  7.59869910E+00  7.59869910E+00 -1.51973982E+01  7.59869910E+00
  7.59869910E+00 -1.51973982E+01  7.59869910E+00  7.59869910E+00 -1.51973982E+01
  7.59869910E+00  7.59869910E+00 -1.51973982E+01  7.59869910E+00  7.59869910E+00
 -1.51973982E+01  7.59869910E+00  7.59869910E+00 -1.51973982E+01  7.59869910E+00
  7.59869910E+00 -1.51973982E+01  7.59869910E+00  7.59869910E+00 -1.51973982E+01
  7.59869910E+00  7.59869910E+00 -1.51973982E+01  7.59869910E+00  7.59869910E+00
 -1.51973982E+01  7.59869910E+00  7.59869910E+00 -1.51973982E+01  7.59869910E+00
  7.59869910E+00 -1.51973982E+01  7.59869910E+00  7.59869910E+00 -1.51973982E+01
  7.59869910E+00  7.59869910E+00 -1.51973982E+01  7.59869910E+00  7.59869910E+00
 -1.51973982E+01  7.59869910E+00  7.59869910E+00 -1.51973982E+01  7.59869910E+00
  7.59869910E+00 -1.51973982E+01  7.59869910E+00  7.59869910E+00 -1.51973982E+01
  7.59869910E+00  7.59869910E+00 -1.51973982E+01  7.59869910E+00  7.59869910E+00
 -1.51973982E+01  7.59869910E+00  7.59869910E+00 -1.51973982E+01  7.59869910E+00
  7.59869910E+00 -1.51973982E+01  7.59869910E+00  7.59869910E+00 -1.51973982E+01
  7.59869910E+00  7.59869910E+00 -1.51973982E+01  7.59869910E+00  7.59869910E+00
 -1.51973982E+01  7.59869910E+00  7.59869910E+00 -1.51973982E+01  7.59869910E+00
  7.59869910E+00 -1.51973982E+01  7.59869910E+00  7.59869910E+00 -1.51973982E+01
  7.59869910E+00  7.59869910E+00 -1.51973982E+01  7.59869910E+00  7.59869910E+00
 -1.51973982E+01  7.59869910E+00  7.59869910E+00 -1.51973982E+01  7.59869910E+00
  7.59869910E+00 -1.51973982E+01  7.59869910E+00  7.59869910E+00 -1.51973982E+01
  7.59869910E+00  7.59869910E+00 -1.51973982E+01  7.59869910E+00  7.59869910E+00
 -1.51973982E+01  7.59869910E+00  7.59869910E+00 -1.51973982E+01  7.59869910E+00
  7.59869910E+00 -1.51973982E+01  7.59869910E+00  7.59869910E+00 -1.51973982E+01
  7.59869910E+00  7.59869910E+00 -1.51973982E+01  7.59869910E+00  7.59869910E+00
 -1.51973982E+01  7.59869910E+00  7.59869910E+00 -1.51973982E+01  7.59869910E+00
  7.59869910E+00 -1.51973982E+01  7.59869910E+00  7.59869910E+00 -1.51973982E+01
  7.59869910E+00  7.59869910E+00 -1.51973982E+01  7.59869910E+00  7.59869910E+00
 -1.51973982E+01  7.59869910E+00  7.59869910E+00 -1.51973982E+01  7.59869910E+00
  7.59869910E+00 -1.51973982E+01  7.59869910E+00  7.59869910E+00 -1.51973982E+01
  7.59869910E+00  7.59869910E+00 -1.51973982E+01  7.59869910E+00  7.59869910E+00
 -1.51973982E+01  7.59869910E+00  7.59869910E+00 -1.51973982E+01  7.59869910E+00
  7.59869910E+00 -1.51973982E+01  7.59869910E+00  7.59869910E+00 -1.51973982E+01
  7.59869910E+00  7.59869910E+00 -1.51973982E+01  7.59869910E+00  7.59869910E+00
 -1.51973982E+01  7.59869910E+00  7.59869910E+00 -1.51973982E+01  7.59869910E+00
  7.59869910E+00 -1.51973982E+01  7.59869910E+00  7.59869910E+00 -1.51973982E+01
  7.59869910E+00  7.59869910E+00 -1.51973982E+01  7.59869910E+00  7.59869910E+00
 -1.51973982E+01  7.59869910E+00  7.59869910E+00 -1.51973982E+01  7.59869910E+00
  7.59869910E+00 -1.51973982E+01  7.59869910E+00  7.59869910E+00 -1.51973982E+01
  7.59869910E+00  7.59869910E+00 -1.51973982E+01  7.59869910E+00  7.59869910E+00
 -1.51973982E+01  7.59869910E+00  7.59869910E+00 -1.51973982E+01  7.59869910E+00
  7.59869910E+00 -1.51973982E+01  7.59869910E+00  7.59869910E+00 -1.51973982E+01
  7.59869910E+00  7.59869910E+00 -1.51973982E+01  7.59869910E+00  7.59869910E+00
 -1.51973982E+01  7.59869910E+00  7.59869910E+00 -1.51973982E+01  7.59869910E+00
  7.59869910E+00 -1.51973982E+01  7.59869910E+00  7.59869910E+00 -1.51973982E+01
  7.59869910E+00  7.59869910E+00 -1.51973982E+01  7.59869910E+00  7.59869910E+00
 -1.51973982E+01  7.59869910E+00  7.59869910E+00 -1.51973982E+01  7.59869910E+00
  7.59869910E+00 -1.51973982E+01  7.59869910E+00  7.59869910E+00 -1.51973982E+01
  7.59869910E+00  7.59869910E+00 -1.51973982E+01  7.59869910E+00  7.59869910E+00
 -1.51973982E+01  7.59869910E+00  7.59869910E+00 -1.51973982E+01  7.59869910E+00
  7.59869910E+00 -1.51973982E+01  7.59869910E+00  7.59869910E+00 -1.51973982E+01
  7.59869910E+00  7.59869910E+00 -1.51973982E+01  7.59869910E+00  7.59869910E+00
 -1.51973982E+01  7.59869910E+00  7.59869910E+00 -1.51973982E+01  7.59869910E+00
  7.59869910E+00 -1.51973982E+01  7.59869910E+00  7.59869910E+00 -1.51973982E+01
  7.59869910E+00  7.59869910E+00 -1.51973982E+01  7.59869910E+00  7.59869910E+00
 -1.51973982E+01  7.59869910E+00  7.59869910E+00 -1.51973982E+01  7.59869910E+00
  7.59869910E+00 -1.51973982E+01  7.59869910E+00  7.59869910E+00 -1.51973982E+01
  7.59869910E+00  7.59869910E+00 -1.51973982E+01  7.59869910E+00  7.59869910E+00
 -1.51973982E+01  7.59869910E+00  7.59869910E+00 -1.51973982E+01  7.59869910E+00
  7.59869910E+00 -1.51973982E+01  7.59869910E+00  7.59869910E+00 -1.51973982E+01
  7.59869910E+00  7.59869910E+00 -1.51973982E+01  7.59869910E+00  7.59869910E+00
 -1.51973982E+01  7.59869910E+00  7.59869910E+00 -1.51973982E+01  7.59869910E+00
  7.59869910E+00 -1.51973982E+01  7.59869910E+00  7.59869910E+00 -1.51973982E+01
  7.59869910E+00  7.59869910E+00 -1.51973982E+01  7.59869910E+00  7.59869910E+00
 -1.51973982E+01  7.59869910E+00  7.59869910E+00 -1.51973982E+01  7.59869910E+00
  7.59869910E+00 -1.51973982E+01  7.59869910E+00  7.59869910E+00 -1.51973982E+01
  7.59869910E+00  7.59869910E+00 -1.51973982E+01  7.59869910E+00  7.59869910E+00
 -1.51973982E+01  7.59869910E+00  7.59869910E+00 -1.51973982E+01  7.59869910E+00
  7.59869910E+00 -1.51973982E+01  7.59869910E+00  7.59869910E+00 -1.51973982E+01
  7.59869910E+00  7.59869910E+00 -1.51973982E+01  7.59869910E+00  7.59869910E+00
 -1.51973982E+01  7.59869910E+00  7.59869910E+00 -1.51973982E+01  7.59869910E+00
  7.59869910E+00 -1.51973982E+01  7.59869910E+00  7.59869910E+00 -1.51973982E+01
  7.59869910E+00  7.59869910E+00 -1.51973982E+01  7.59869910E+00  7.59869910E+00
 -1.51973982E+01  7.59869910E+00  7.59869910E+00 -1.51973982E+01  7.59869910E+00
  7.59869910E+00 -1.51973982E+01  7.59869910E+00  7.59869910E+00 -1.51973982E+01
  7.59869910E+00  7.59869910E+00 -1.51973982E+01  7.59869910E+00  7.59869910E+00
 -1.51973982E+01  7.59869910E+00  7.59869910E+00 -1.51973982E+01  7.59869910E+00
  7.59869910E+00 -1.51973982E+01  7.59869910E+00  7.59869910E+00 -1.51973982E+01
  7.59869910E+00  7.59869910E+00 -1.51973982E+01  7.59869910E+00  7.59869910E+00
 -1.51973982E+01  7.59869910E+00  7.59869910E+00 -1.51973982E+01  7.59869910E+00
  7.59869910E+00 -1.51973982E+01  7.59869910E+00  7.59869910E+00 -1.51973982E+01
  7.59869910E+00  7.59869910E+00 -1.51973982E+01  7.59869910E+00  7.59869910E+00
 -1.51973982E+01  7.59869910E+00  7.59869910E+00 -1.51973982E+01  7.59869910E+00
  7.59869910E+00 -1.51973982E+01  7.59869910E+00  7.59869910E+00 -1.51973982E+01
  7.59869910E+00  7.59869910E+00 -1.51973982E+01  7.59869910E+00  7.59869910E+00
 -1.51973982E+01  7.59869910E+00  7.59869910E+00 -1.51973982E+01  7.59869910E+00
  7.59869910E+00 -1.51973982E+01  7.59869910E+00  7.59869910E+00 -1.51973982E+01
  7.59869910E+00  7.59869910E+00 -1.51973982E+01  7.59869910E+00  7.59869910E+00
 -1.51973982E+01  7.59869910E+00  7.59869910E+00 -1.51973982E+01  7.59869910E+00
  7.59869910E+00 -1.51973982E+01  7.59869910E+00  7.59869910E+00 -1.51973982E+01
  7.59869910E+00  7.59869910E+00 -1.51973982E+01  7.59869910E+00  7.59869910E+00
 -1.51973982E+01  7.59869910E+00  7.59869910E+00 -1.51973982E+01  7.59869910E+00
  7.59869910E+00 -1.51973982E+01  7.59869910E+00  7.59869910E+00 -1.51973982E+01
  7.59869910E+00  7.59869910E+00 -1.51973982E+01  7.59869910E+00  7.59869910E+00
 -1.51973982E+01  7.59869910E+00  7.59869910E+00 -1.51973982E+01  7.59869910E+00
  7.59869910E+00 -1.51973982E+01  7.59869910E+00  7.59869910E+00 -1.51973982E+01
  7.59869910E+00  7.59869910E+00 -1.51973982E+01  7.59869910E+00  7.59869910E+00
 -1.51973982E+01  7.59869910E+00  7.59869910E+00 -1.51973982E+01  7.59869910E+00
  7.59869910E+00 -1.51973982E+01  7.59869910E+00  7.59869910E+00 -1.51973982E+01
  7.59869910E+00  7.59869910E+00 -1.51973982E+01  7.59869910E+00  7.59869910E+00
 -1.51973982E+01  7.59869910E+00  7.59869910E+00 -1.51973982E+01  7.59869910E+00
  7.59869910E+00 -1.51973982E+01  7.59869910E+00  7.59869910E+00 -1.51973982E+01
  7.59869910E+00  7.59869910E+00 -1.51973982E+01  7.59869910E+00  7.59869910E+00
 -1.51973982E+01  7.59869910E+00  7.59869910E+00 -1.51973982E+01  7.59869910E+00
  7.59869910E+00 -1.51973982E+01  7.59869910E+00  7.59869910E+00 -1.51973982E+01
  7.59869910E+00  7.59869910E+00 -1.51973982E+01  7.59869910E+00  7.59869910E+00
 -1.51973982E+01  7.59869910E+00  7.59869910E+00 -1.51973982E+01  7.59869910E+00
  7.59869910E+00 -1.51973982E+01  7.59869910E+00  7.59869910E+00 -1.51973982E+01
  7.59869910E+00  7.59869910E+00 -1.51973982E+01  7.59869910E+00  7.59869910E+00
 -1.51973982E+01  7.59869910E+00  7.59869910E+00 -1.51973982E+01  7.59869910E+00
  7.59869910E+00 -1.51973982E+01  7.59869910E+00  7.59869910E+00 -1.51973982E+01
  7.59869910E+00  7.59869910E+00 -1.51973982E+01  7.59869910E+00  7.59869910E+00
 -1.51973982E+01  7.59869910E+00  7.59869910E+00 -1.51973982E+01  7.59869910E+00
  7.59869910E+00 -1.51973982E+01  7.59869910E+00  7.59869910E+00 -1.51973982E+01
  7.59869910E+00  7.59869910E+00 -1.51973982E+01  7.59869910E+00  7.59869910E+00
 -1.51973982E+01  7.59869910E+00  7.59869910E+00 -1.51973982E+01  7.59869910E+00
  7.59869910E+00 -1.51973982E+01  7.59869910E+00  7.59869910E+00 -1.51973982E+01
  7.59869910E+00  7.59869910E+00 -1.51973982E+01  7.59869910E+00  7.59869910E+00
 -1.51973982E+01  7.59869910E+00  7.59869910E+00 -1.51973982E+01  7.59869910E+00
  7.59869910E+00 -1.51973982E+01  7.59869910E+00  7.59869910E+00 -1.51973982E+01
  7.59869910E+00  7.59869910E+00 -1.51973982E+01  7.59869910E+00  7.59869910E+00
 -1.51973982E+01  7.59869910E+00  7.59869910E+00 -1.51973982E+01  7.59869910E+00
  7.59869910E+00 -1.51973982E+01  7.59869910E+00  7.59869910E+00 -1.51973982E+01
  7.59869910E+00  7.59869910E+00 -1.51973982E+01  7.59869910E+00  7.59869910E+00
 -1.51973982E+01  7.59869910E+00  7.59869910E+00 -1.51973982E+01  7.59869910E+00
  7.59869910E+00 -1.51973982E+01  7.59869910E+00  7.59869910E+00 -1.51973982E+01
  7.59869910E+00  7.59869910E+00 -1.51973982E+01  7.59869910E+00  7.59869910E+00
 -1.51973982E+01  7.59869910E+00  7.59869910E+00 -1.51973982E+01  7.59869910E+00
  7.59869910E+00 -1.51973982E+01  7.59869910E+00  7.59869910E+00 -1.51973982E+01
  7.59869910E+00  7.59869910E+00 -1.51973982E+01  7.59869910E+00  7.59869910E+00
 -1.51973982E+01  7.59869910E+00  7.59869910E+00 -1.51973982E+01  7.59869910E+00
  7.59869910E+00 -1.51973982E+01  7.59869910E+00  7.59869910E+00 -1.51973982E+01
  7.59869910E+00  7.59869910E+00 -1.51973982E+01  7.59869910E+00  7.59869910E+00
 -1.51973982E+01  7.59869910E+00  7.59869910E+00 -1.51973982E+01  7.59869910E+00
  7.59869910E+00 -1.51973982E+01  7.59869910E+00  7.59869910E+00 -1.51973982E+01
  7.59869910E+00  7.59869910E+00 -1.51973982E+01  7.59869910E+00  7.59869910E+00
 -1.51973982E+01  7.59869910E+00  7.59869910E+00 -1.51973982E+01  7.59869910E+00
  7.59869910E+00 -1.51973982E+01  7.59869910E+00  7.59869910E+00 -1.51973982E+01
  7.59869910E+00  7.59869910E+00 -1.51973982E+01  7.59869910E+00  7.59869910E+00
 -1.51973982E+01  7.59869910E+00  7.59869910E+00 -1.51973982E+01  7.59869910E+00
  7.59869910E+00 -1.51973982E+01  7.59869910E+00  7.59869910E+00 -1.51973982E+01
  7.59869910E+00  7.59869910E+00 -1.51973982E+01  7.59869910E+00  7.59869910E+00
 -1.51973982E+01  7.59869910E+00  7.59869910E+00 -1.51973982E+01  7.59869910E+00
  7.59869910E+00 -1.51973982E+01  7.59869910E+00  7.59869910E+00 -1.51973982E+01
  7.59869910E+00  7.59869910E+00 -1.51973982E+01  7.59869910E+00  7.59869910E+00
 -1.51973982E+01  7.59869910E+00  7.59869910E+00 -1.51973982E+01  7.59869910E+00
  7.59869910E+00 -1.51973982E+01  7.59869910E+00  7.59869910E+00 -1.51973982E+01
  7.59869910E+00  7.59869910E+00 -1.51973982E+01  7.59869910E+00  7.59869910E+00
 -1.51973982E+01  7.59869910E+00  7.59869910E+00 -1.51973982E+01  7.59869910E+00
  7.59869910E+00 -1.51973982E+01  7.59869910E+00  7.59869910E+00 -1.51973982E+01
  7.59869910E+00  7.59869910E+00 -1.51973982E+01  7.59869910E+00  7.59869910E+00
 -1.51973982E+01  7.59869910E+00  7.59869910E+00 -1.51973982E+01  7.59869910E+00
  7.59869910E+00 -1.51973982E+01  7.59869910E+00  7.59869910E+00 -1.51973982E+01
  7.59869910E+00  7.59869910E+00 -1.51973982E+01  7.59869910E+00  7.59869910E+00
 -1.51973982E+01  7.59869910E+00  7.59869910E+00 -1.51973982E+01  7.59869910E+00
  7.59869910E+00 -1.51973982E+01  7.59869910E+00  7.59869910E+00 -1.51973982E+01
  7.59869910E+00  7.59869910E+00 -1.51973982E+01  7.59869910E+00  7.59869910E+00
 -1.51973982E+01  7.59869910E+00  7.59869910E+00 -1.51973982E+01  7.59869910E+00
  7.59869910E+00 -1.51973982E+01  7.59869910E+00  7.59869910E+00 -1.51973982E+01
  7.59869910E+00  7.59869910E+00 -1.51973982E+01  7.59869910E+00  7.59869910E+00
 -1.51973982E+01  7.59869910E+00  7.59869910E+00 -1.51973982E+01  7.59869910E+00
  7.59869910E+00 -1.51973982E+01  7.59869910E+00  7.59869910E+00 -1.51973982E+01
  7.59869910E+00  7.59869910E+00 -1.51973982E+01  7.59869910E+00  7.59869910E+00
 -1.51973982E+01  7.59869910E+00  7.59869910E+00 -1.51973982E+01  7.59869910E+00
  7.59869910E+00 -1.51973982E+01  7.59869910E+00  7.59869910E+00 -1.51973982E+01
  7.59869910E+00  7.59869910E+00 -1.51973982E+01  7.59869910E+00  7.59869910E+00
 -1.51973982E+01  7.59869910E+00  7.59869910E+00 -1.51973982E+01  7.59869910E+00
  7.59869910E+00 -1.51973982E+01  7.59869910E+00  7.59869910E+00 -1.51973982E+01
  7.59869910E+00  7.59869910E+00 -1.51973982E+01  7.59869910E+00  7.59869910E+00
 -1.51973982E+01  7.59869910E+00  7.59869910E+00 -1.51973982E+01  7.59869910E+00
  7.59869910E+00 -1.51973982E+01  7.59869910E+00  7.59869910E+00 -1.51973982E+01
  7.59869910E+00  7.59869910E+00 -1.51973982E+01  7.59869910E+00  7.59869910E+00
 -1.51973982E+01  7.59869910E+00  7.59869910E+00 -1.51973982E+01  7.59869910E+00
  7.59869910E+00 -1.51973982E+01  7.59869910E+00  7.59869910E+00 -1.51973982E+01
  7.59869910E+00  7.59869910E+00 -1.51973982E+01  7.59869910E+00  7.59869910E+00
 -1.51973982E+01  7.59869910E+00  7.59869910E+00 -1.51973982E+01  7.59869910E+00
  7.59869910E+00 -1.51973982E+01  7.59869910E+00  7.59869910E+00 -1.51973982E+01
  7.59869910E+00  7.59869910E+00 -1.51973982E+01  7.59869910E+00  7.59869910E+00
 -1.51973982E+01  7.59869910E+00  7.59869910E+00 -1.51973982E+01  7.59869910E+00
  7.59869910E+00 -1.51973982E+01  7.59869910E+00  7.59869910E+00 -1.51973982E+01
  7.59869910E+00  7.59869910E+00 -1.51973982E+01  7.59869910E+00  7.59869910E+00
 -1.51973982E+01  7.59869910E+00  7.59869910E+00 -1.51973982E+01  7.59869910E+00
  7.59869910E+00 -1.51973982E+01  7.59869910E+00  7.59869910E+00 -1.51973982E+01
  7.59869910E+00  7.59869910E+00 -1.51973982E+01  7.59869910E+00  7.59869910E+00
 -1.51973982E+01  7.59869910E+00  7.59869910E+00 -1.51973982E+01  7.59869910E+00
  7.59869910E+00 -1.51973982E+01  7.59869910E+00  7.59869910E+00 -1.51973982E+01
  7.59869910E+00  7.59869910E+00 -1.51973982E+01  7.59869910E+00  7.59869910E+00
 -1.51973982E+01  7.59869910E+00  7.59869910E+00 -1.51973982E+01  7.59869910E+00
  7.59869910E+00 -1.51973982E+01  7.59869910E+00  7.59869910E+00 -1.51973982E+01
  7.59869910E+00  7.59869910E+00 -1.51973982E+01  7.59869910E+00  7.59869910E+00
 -1.51973982E+01  7.59869910E+00  7.59869910E+00 -1.51973982E+01  7.59869910E+00
  7.59869910E+00 -1.51973982E+01  7.59869910E+00  7.59869910E+00 -1.51973982E+01
  7.59869910E+00  7.59869910E+00 -1.51973982E+01  7.59869910E+00  7.59869910E+00
 -1.51973982E+01  7.59869910E+00  7.59869910E+00 -1.51973982E+01  7.59869910E+00
  7.59869910E+00 -1.51973982E+01  7.59869910E+00  7.59869910E+00 -1.51973982E+01
  7.59869910E+00  7.59869910E+00 -1.51973982E+01  7.59869910E+00  7.59869910E+00
 -1.51973982E+01  7.59869910E+00  7.59869910E+00 -1.51973982E+01  7.59869910E+00
  7.59869910E+00 -1.51973982E+01  7.59869910E+00  7.59869910E+00 -1.51973982E+01
  7.59869910E+00  7.59869910E+00 -1.51973982E+01  7.59869910E+00  7.59869910E+00
 -1.51973982E+01  7.59869910E+00  7.59869910E+00 -1.51973982E+01  7.59869910E+00
  7.59869910E+00 -1.51973982E+01  7.59869910E+00  7.59869910E+00 -1.51973982E+01
  7.59869910E+00  7.59869910E+00 -1.51973982E+01  7.59869910E+00  7.59869910E+00
 -1.51973982E+01  7.59869910E+00  7.59869910E+00 -1.51973982E+01  7.59869910E+00
  7.59869910E+00 -1.51973982E+01  7.59869910E+00  7.59869910E+00 -1.51973982E+01
  7.59869910E+00  7.59869910E+00 -1.51973982E+01  7.59869910E+00  7.59869910E+00
 -1.51973982E+01  7.59869910E+00  7.59869910E+00 -1.51973982E+01  7.59869910E+00
  7.59869910E+00 -1.51973982E+01  7.59869910E+00  7.59869910E+00 -1.51973982E+01
  7.59869910E+00  7.59869910E+00 -1.51973982E+01  7.59869910E+00  7.59869910E+00
 -1.51973982E+01  7.59869910E+00  7.59869910E+00 -1.51973982E+01  7.59869910E+00
  7.59869910E+00 -1.51973982E+01  7.59869910E+00  7.59869910E+00 -1.51973982E+01
  7.59869910E+00  7.59869910E+00 -1.51973982E+01  7.59869910E+00  7.59869910E+00
 -1.51973982E+01  7.59869910E+00  7.59869910E+00 -1.51973982E+01  7.59869910E+00
  7.59869910E+00 -1.51973982E+01  7.59869910E+00  7.59869910E+00 -1.51973982E+01
  7.59869910E+00  7.59869910E+00 -1.51973982E+01  7.59869910E+00  7.59869910E+00
 -1.51973982E+01  7.59869910E+00  7.59869910E+00 -1.51973982E+01  7.59869910E+00
  7.59869910E+00 -1.51973982E+01  7.59869910E+00  7.59869910E+00 -1.51973982E+01
  7.59869910E+00  7.59869910E+00 -1.51973982E+01  7.59869910E+00  7.59869910E+00
 -1.51973982E+01  7.59869910E+00  7.59869910E+00 -1.51973982E+01  7.59869910E+00
  7.59869910E+00 -1.51973982E+01  7.59869910E+00  7.59869910E+00 -1.51973982E+01
  7.59869910E+00  7.59869910E+00 -1.51973982E+01  7.59869910E+00  7.59869910E+00
 -1.51973982E+01  7.59869910E+00  7.59869910E+00 -1.51973982E+01  7.59869910E+00
  7.59869910E+00 -1.51973982E+01  7.59869910E+00  7.59869910E+00 -1.51973982E+01
  7.59869910E+00  7.59869910E+00 -1.51973982E+01  7.59869910E+00  7.59869910E+00
 -1.51973982E+01  7.59869910E+00  7.59869910E+00 -1.51973982E+01  7.59869910E+00
  7.59869910E+00 -1.51973982E+01  7.59869910E+00  7.59869910E+00 -1.51973982E+01
  7.59869910E+00  7.59869910E+00 -1.51973982E+01  7.59869910E+00  7.59869910E+00
 -1.51973982E+01  7.59869910E+00  7.59869910E+00 -1.51973982E+01  7.59869910E+00
  7.59869910E+00 -1.51973982E+01  7.59869910E+00  7.59869910E+00 -1.51973982E+01
  7.59869910E+00  7.59869910E+00 -1.51973982E+01  7.59869910E+00  7.59869910E+00
 -1.51973982E+01  7.59869910E+00  7.59869910E+00 -1.51973982E+01  7.59869910E+00
  7.59869910E+00 -1.51973982E+01  7.59869910E+00  7.59869910E+00 -1.51973982E+01
  7.59869910E+00  7.59869910E+00 -1.51973982E+01  7.59869910E+00  7.59869910E+00
 -1.51973982E+01  7.59869910E+00  7.59869910E+00 -1.51973982E+01  7.59869910E+00
  7.59869910E+00 -1.51973982E+01  7.59869910E+00  7.59869910E+00 -1.51973982E+01
  7.59869910E+00  7.59869910E+00 -1.51973982E+01  7.59869910E+00  7.59869910E+00
 -1.51973982E+01  7.59869910E+00  7.59869910E+00 -1.51973982E+01  7.59869910E+00
  7.59869910E+00 -1.51973982E+01  7.59869910E+00  7.59869910E+00 -1.51973982E+01
  7.59869910E+00  7.59869910E+00 -1.51973982E+01  7.59869910E+00  7.59869910E+00
 -1.51973982E+01  7.59869910E+00  7.59869910E+00 -1.51973982E+01  7.59869910E+00
  7.59869910E+00 -1.51973982E+01  7.59869910E+00  7.59869910E+00 -1.51973982E+01
  7.59869910E+00  7.59869910E+00 -1.51973982E+01  7.59869910E+00  7.59869910E+00
 -1.51973982E+01  7.59869910E+00  7.59869910E+00 -1.51973982E+01  7.59869910E+00
  7.59869910E+00 -1.51973982E+01  7.59869910E+00  7.59869910E+00 -1.51973982E+01
  7.59869910E+00  7.59869910E+00 -1.51973982E+01  7.59869910E+00  7.59869910E+00
 -1.51973982E+01  7.59869910E+00  7.59869910E+00 -1.51973982E+01  7.59869910E+00
  7.59869910E+00 -1.51973982E+01  7.59869910E+00  7.59869910E+00 -1.51973982E+01
  7.59869910E+00  7.59869910E+00 -1.51973982E+01  7.59869910E+00  7.59869910E+00
 -1.51973982E+01  7.59869910E+00  7.59869910E+00 -1.51973982E+01  7.59869910E+00
  7.59869910E+00 -1.51973982E+01  7.59869910E+00  7.59869910E+00 -1.51973982E+01
  7.59869910E+00  7.59869910E+00 -1.51973982E+01  7.59869910E+00  7.59869910E+00
 -1.51973982E+01  7.59869910E+00  7.59869910E+00 -1.51973982E+01  7.59869910E+00
  7.59869910E+00 -1.51973982E+01  7.59869910E+00  7.59869910E+00 -1.51973982E+01
  7.59869910E+00  7.59869910E+00 -1.51973982E+01  7.59869910E+00  7.59869910E+00
 -1.51973982E+01  7.59869910E+00  7.59869910E+00 -1.51973982E+01  7.59869910E+00
  7.59869910E+00 -1.51973982E+01  7.59869910E+00  7.59869910E+00 -1.51973982E+01
  7.59869910E+00  7.59869910E+00 -1.51973982E+01  7.59869910E+00  7.59869910E+00
 -1.51973982E+01  7.59869910E+00  7.59869910E+00 -1.51973982E+01  7.59869910E+00
  7.59869910E+00 -1.51973982E+01  7.59869910E+00  7.59869910E+00 -1.51973982E+01
  7.59869910E+00  7.59869910E+00 -1.51973982E+01  7.59869910E+00  7.59869910E+00
 -1.51973982E+01  7.59869910E+00  7.59869910E+00 -1.51973982E+01  7.59869910E+00
  7.59869910E+00 -1.51973982E+01  7.59869910E+00  7.59869910E+00 -1.51973982E+01
  7.59869910E+00  7.59869910E+00 -1.51973982E+01  7.59869910E+00  7.59869910E+00
 -1.51973982E+01  7.59869910E+00  7.59869910E+00 -1.51973982E+01  7.59869910E+00
  7.59869910E+00 -1.51973982E+01  7.59869910E+00  7.59869910E+00 -1.51973982E+01
  7.59869910E+00  7.59869910E+00 -1.51973982E+01  7.59869910E+00  7.59869910E+00
 -1.51973982E+01  7.59869910E+00  7.59869910E+00 -1.51973982E+01  7.59869910E+00
  7.59869910E+00 -1.51973982E+01  7.59869910E+00  7.59869910E+00 -1.51973982E+01
  7.59869910E+00  7.59869910E+00 -1.51973982E+01  7.59869910E+00  7.59869910E+00
 -1.51973982E+01  7.59869910E+00  7.59869910E+00 -1.51973982E+01  7.59869910E+00
  7.59869910E+00 -1.51973982E+01  7.59869910E+00  7.59869910E+00 -1.51973982E+01
  7.59869910E+00  7.59869910E+00 -1.51973982E+01  7.59869910E+00  7.59869910E+00
 -1.51973982E+01  7.59869910E+00  7.59869910E+00 -1.51973982E+01  7.59869910E+00
  7.59869910E+00 -1.51973982E+01  7.59869910E+00  7.59869910E+00 -1.51973982E+01
  7.59869910E+00  7.59869910E+00 -1.51973982E+01  7.59869910E+00  7.59869910E+00
 -1.51973982E+01  7.59869910E+00  7.59869910E+00 -1.51973982E+01  7.59869910E+00
  7.59869910E+00 -1.51973982E+01  7.59869910E+00  7.59869910E+00 -1.51973982E+01
  7.59869910E+00  7.59869910E+00 -1.51973982E+01  7.59869910E+00  7.59869910E+00
 -1.51973982E+01  7.59869910E+00  7.59869910E+00 -1.51973982E+01  7.59869910E+00
  7.59869910E+00 -1.51973982E+01  7.59869910E+00  7.59869910E+00 -1.51973982E+01
  7.59869910E+00  7.59869910E+00 -1.51973982E+01  7.59869910E+00  7.59869910E+00
 -1.51973982E+01  7.59869910E+00  7.59869910E+00 -1.51973982E+01  7.59869910E+00
  7.59869910E+00 -1.51973982E+01  7.59869910E+00  7.59869910E+00 -1.51973982E+01
  7.59869910E+00  7.59869910E+00 -1.51973982E+01  7.59869910E+00  7.59869910E+00
 -1.51973982E+01  7.59869910E+00  7.59869910E+00 -1.51973982E+01  7.59869910E+00
  7.59869910E+00 -1.51973982E+01  7.59869910E+00  7.59869910E+00 -1.51973982E+01
  7.59869910E+00  7.59869910E+00 -1.51973982E+01  7.59869910E+00  7.59869910E+00
 -1.51973982E+01  7.59869910E+00  7.59869910E+00 -1.51973982E+01  7.59869910E+00
  7.59869910E+00 -1.51973982E+01  7.59869910E+00  7.59869910E+00 -1.51973982E+01
  7.59869910E+00  7.59869910E+00 -1.51973982E+01  7.59869910E+00  7.59869910E+00
 -1.51973982E+01  7.59869910E+00  7.59869910E+00 -1.51973982E+01  7.59869910E+00
  7.59869910E+00 -1.51973982E+01  7.59869910E+00  7.59869910E+00 -1.51973982E+01
  7.59869910E+00  7.59869910E+00 -1.51973982E+01  7.59869910E+00  7.59869910E+00
 -1.51973982E+01  7.59869910E+00  7.59869910E+00 -1.51973982E+01  7.59869910E+00
  7.59869910E+00 -1.51973982E+01  7.59869910E+00  7.59869910E+00 -1.51973982E+01
  7.59869910E+00  7.59869910E+00 -1.51973982E+01  7.59869910E+00  7.59869910E+00
 -1.51973982E+01  7.59869910E+00  7.59869910E+00 -1.51973982E+01  7.59869910E+00
  7.59869910E+00 -1.51973982E+01  7.59869910E+00  7.59869910E+00 -1.51973982E+01
  7.59869910E+00  7.59869910E+00 -1.51973982E+01  7.59869910E+00  7.59869910E+00
 -1.51973982E+01  7.59869910E+00  7.59869910E+00 -1.51973982E+01  7.59869910E+00
  7.59869910E+00 -1.51973982E+01  7.59869910E+00  7.59869910E+00 -1.51973982E+01
  7.59869910E+00  7.59869910E+00 -1.51973982E+01  7.59869910E+00  7.59869910E+00
 -1.51973982E+01  7.59869910E+00  7.59869910E+00 -1.51973982E+01  7.59869910E+00
  7.59869910E+00 -1.51973982E+01  7.59869910E+00  7.59869910E+00 -1.51973982E+01
  7.59869910E+00  7.59869910E+00 -1.51973982E+01  7.59869910E+00  7.59869910E+00
 -1.51973982E+01  7.59869910E+00  7.59869910E+00 -1.51973982E+01  7.59869910E+00
  7.59869910E+00 -1.51973982E+01  7.59869910E+00  7.59869910E+00 -1.51973982E+01
  7.59869910E+00  7.59869910E+00 -1.51973982E+01  7.59869910E+00  7.59869910E+00
 -1.51973982E+01  7.59869910E+00  7.59869910E+00 -1.51973982E+01  7.59869910E+00
  7.59869910E+00 -1.51973982E+01  7.59869910E+00  7.59869910E+00 -1.51973982E+01
  7.59869910E+00  7.59869910E+00 -1.51973982E+01  7.59869910E+00  7.59869910E+00
 -1.51973982E+01  7.59869910E+00  7.59869910E+00 -1.51973982E+01  7.59869910E+00
  7.59869910E+00 -1.51973982E+01  7.59869910E+00  7.59869910E+00 -1.51973982E+01
  7.59869910E+00  7.59869910E+00 -1.51973982E+01  7.59869910E+00  7.59869910E+00
 -1.51973982E+01  7.59869910E+00  7.59869910E+00 -1.51973982E+01  7.59869910E+00
  7.59869910E+00 -1.51973982E+01  7.59869910E+00  7.59869910E+00 -1.51973982E+01
  7.59869910E+00  7.59869910E+00 -1.51973982E+01  7.59869910E+00  7.59869910E+00
 -1.51973982E+01  7.59869910E+00  7.59869910E+00 -1.51973982E+01  7.59869910E+00
  7.59869910E+00 -1.51973982E+01  7.59869910E+00  7.59869910E+00 -1.51973982E+01
  7.59869910E+00  7.59869910E+00 -1.51973982E+01  7.59869910E+00  7.59869910E+00
 -1.51973982E+01  7.59869910E+00  7.59869910E+00 -1.51973982E+01  7.59869910E+00
  7.59869910E+00 -1.51973982E+01  7.59869910E+00  7.59869910E+00 -1.51973982E+01
  7.59869910E+00  7.59869910E+00 -1.51973982E+01  7.59869910E+00  7.59869910E+00
 -1.51973982E+01  7.59869910E+00  7.59869910E+00 -1.51973982E+01  7.59869910E+00
  7.59869910E+00 -1.51973982E+01  7.59869910E+00  7.59869910E+00 -1.51973982E+01
  7.59869910E+00  7.59869910E+00 -1.51973982E+01  7.59869910E+00  7.59869910E+00
 -1.51973982E+01  7.59869910E+00  7.59869910E+00 -1.51973982E+01  7.59869910E+00
  7.59869910E+00 -1.51973982E+01  7.59869910E+00  7.59869910E+00 -1.51973982E+01
  7.59869910E+00  7.59869910E+00 -1.51973982E+01  7.59869910E+00  7.59869910E+00
 -1.51973982E+01  7.59869910E+00  7.59869910E+00 -1.51973982E+01  7.59869910E+00
  7.59869910E+00 -1.51973982E+01  7.59869910E+00  7.59869910E+00 -1.51973982E+01
  7.59869910E+00  7.59869910E+00 -1.51973982E+01  7.59869910E+00  7.59869910E+00
 -1.51973982E+01  7.59869910E+00  7.59869910E+00 -1.51973982E+01  7.59869910E+00
  7.59869910E+00 -1.51973982E+01  7.59869910E+00  7.59869910E+00 -1.51973982E+01
  7.59869910E+00  7.59869910E+00 -1.51973982E+01  7.59869910E+00  7.59869910E+00
 -1.51973982E+01  7.59869910E+00  7.59869910E+00 -1.51973982E+01  7.59869910E+00
  7.59869910E+00 -1.51973982E+01  7.59869910E+00  7.59869910E+00 -1.51973982E+01
  7.59869910E+00  7.59869910E+00 -1.51973982E+01  7.59869910E+00  7.59869910E+00
 -1.51973982E+01  7.59869910E+00  7.59869910E+00 -1.51973982E+01  7.59869910E+00
  7.59869910E+00 -1.51973982E+01  7.59869910E+00  7.59869910E+00 -1.51973982E+01
  7.59869910E+00  7.59869910E+00 -1.51973982E+01  7.59869910E+00  7.59869910E+00
 -1.51973982E+01  7.59869910E+00  7.59869910E+00 -1.51973982E+01  7.59869910E+00
  7.59869910E+00 -1.51973982E+01  7.59869910E+00  7.59869910E+00 -1.51973982E+01
  7.59869910E+00  7.59869910E+00 -1.51973982E+01  7.59869910E+00  7.59869910E+00
 -1.51973982E+01  7.59869910E+00  7.59869910E+00 -1.51973982E+01  7.59869910E+00
  7.59869910E+00 -1.51973982E+01  7.59869910E+00  7.59869910E+00 -1.51973982E+01
  7.59869910E+00  7.59869910E+00 -1.51973982E+01  7.59869910E+00  7.59869910E+00
 -1.51973982E+01  7.59869910E+00  7.59869910E+00 -1.51973982E+01  7.59869910E+00
  7.59869910E+00 -1.51973982E+01  7.59869910E+00  7.59869910E+00 -1.51973982E+01
  7.59869910E+00  7.59869910E+00 -1.51973982E+01  7.59869910E+00  7.59869910E+00
 -1.51973982E+01  7.59869910E+00  7.59869910E+00 -1.51973982E+01  7.59869910E+00
  7.59869910E+00 -1.51973982E+01  7.59869910E+00  7.59869910E+00 -1.51973982E+01
  7.59869910E+00  7.59869910E+00 -1.51973982E+01  7.59869910E+00  7.59869910E+00
 -1.51973982E+01  7.59869910E+00  7.59869910E+00 -1.51973982E+01  7.59869910E+00
  7.59869910E+00 -1.51973982E+01  7.59869910E+00  7.59869910E+00 -1.51973982E+01
  7.59869910E+00  7.59869910E+00 -1.51973982E+01  7.59869910E+00  7.59869910E+00
 -1.51973982E+01  7.59869910E+00  7.59869910E+00 -1.51973982E+01  7.59869910E+00
  7.59869910E+00 -1.51973982E+01  7.59869910E+00  7.59869910E+00 -1.51973982E+01
  7.59869910E+00  7.59869910E+00 -1.51973982E+01  7.59869910E+00  7.59869910E+00
 -1.51973982E+01  7.59869910E+00  7.59869910E+00 -1.51973982E+01  7.59869910E+00
  7.59869910E+00 -1.51973982E+01  7.59869910E+00  7.59869910E+00 -1.51973982E+01
  7.59869910E+00  7.59869910E+00 -1.51973982E+01  7.59869910E+00  7.59869910E+00
 -1.51973982E+01  7.59869910E+00  7.59869910E+00 -1.51973982E+01  7.59869910E+00
  7.59869910E+00 -1.51973982E+01  7.59869910E+00  7.59869910E+00 -1.51973982E+01
  7.59869910E+00  7.59869910E+00 -1.51973982E+01  7.59869910E+00  7.59869910E+00
 -1.51973982E+01  7.59869910E+00  7.59869910E+00 -1.51973982E+01  7.59869910E+00
  7.59869910E+00 -1.51973982E+01  7.59869910E+00  7.59869910E+00 -1.51973982E+01
  7.59869910E+00  7.59869910E+00 -1.51973982E+01  7.59869910E+00  7.59869910E+00
 -1.51973982E+01  7.59869910E+00  7.59869910E+00 -1.51973982E+01  7.59869910E+00
  7.59869910E+00 -1.51973982E+01  7.59869910E+00  7.59869910E+00 -1.51973982E+01
  7.59869910E+00  7.59869910E+00 -1.51973982E+01  7.59869910E+00  7.59869910E+00
 -1.51973982E+01  7.59869910E+00  7.59869910E+00 -1.51973982E+01  7.59869910E+00
  7.59869910E+00 -1.51973982E+01  7.59869910E+00  7.59869910E+00 -1.51973982E+01
  7.59869910E+00  7.59869910E+00 -1.51973982E+01  7.59869910E+00  7.59869910E+00
 -1.51973982E+01  7.59869910E+00  7.59869910E+00 -1.51973982E+01  7.59869910E+00
  7.59869910E+00 -1.51973982E+01  7.59869910E+00  7.59869910E+00 -1.51973982E+01
  7.59869910E+00  7.59869910E+00 -1.51973982E+01  7.59869910E+00  7.59869910E+00
 -1.51973982E+01  7.59869910E+00  7.59869910E+00 -1.51973982E+01  7.59869910E+00
  7.59869910E+00 -1.51973982E+01  7.59869910E+00  7.59869910E+00 -1.51973982E+01
  7.59869910E+00  7.59869910E+00 -1.51973982E+01  7.59869910E+00  7.59869910E+00
 -1.51973982E+01  7.59869910E+00  7.59869910E+00 -1.51973982E+01  7.59869910E+00
  7.59869910E+00 -1.51973982E+01  7.59869910E+00  7.59869910E+00 -1.51973982E+01
  7.59869910E+00  7.59869910E+00 -1.51973982E+01  7.59869910E+00  7.59869910E+00
 -1.51973982E+01  7.59869910E+00  7.59869910E+00 -1.51973982E+01  7.59869910E+00
  7.59869910E+00 -1.51973982E+01  7.59869910E+00  7.59869910E+00 -1.51973982E+01
  7.59869910E+00  7.59869910E+00 -1.51973982E+01  7.59869910E+00  7.59869910E+00
 -1.51973982E+01  7.59869910E+00  7.59869910E+00 -1.51973982E+01  7.59869910E+00
  7.59869910E+00 -1.51973982E+01  7.59869910E+00  7.59869910E+00 -1.51973982E+01
  7.59869910E+00  7.59869910E+00 -1.51973982E+01  7.59869910E+00  7.59869910E+00
 -1.51973982E+01  7.59869910E+00  7.59869910E+00 -1.51973982E+01  7.59869910E+00
  7.59869910E+00 -1.51973982E+01  7.59869910E+00  7.59869910E+00 -1.51973982E+01
  7.59869910E+00  7.59869910E+00 -1.51973982E+01  7.59869910E+00  7.59869910E+00
 -1.51973982E+01  7.59869910E+00  7.59869910E+00 -1.51973982E+01  7.59869910E+00
  7.59869910E+00 -1.51973982E+01  7.59869910E+00  7.59869910E+00 -1.51973982E+01
  7.59869910E+00  7.59869910E+00 -1.51973982E+01  7.59869910E+00  7.59869910E+00
 -1.51973982E+01  7.59869910E+00  7.59869910E+00 -1.51973982E+01  7.59869910E+00
  7.59869910E+00 -1.51973982E+01  7.59869910E+00  7.59869910E+00 -1.51973982E+01
  7.59869910E+00  7.59869910E+00 -1.51973982E+01  7.59869910E+00  7.59869910E+00
 -1.51973982E+01  7.59869910E+00  7.59869910E+00 -1.51973982E+01  7.59869910E+00
  7.59869910E+00 -1.51973982E+01  7.59869910E+00  7.59869910E+00 -1.51973982E+01
  7.59869910E+00  7.59869910E+00 -1.51973982E+01  7.59869910E+00  7.59869910E+00
 -1.51973982E+01  7.59869910E+00  7.59869910E+00 -1.51973982E+01  7.59869910E+00
  7.59869910E+00 -1.51973982E+01  7.59869910E+00  7.59869910E+00 -1.51973982E+01
  7.59869910E+00  7.59869910E+00 -1.51973982E+01  7.59869910E+00  7.59869910E+00
 -1.51973982E+01  7.59869910E+00  7.59869910E+00 -1.51973982E+01  7.59869910E+00
  7.59869910E+00 -1.51973982E+01  7.59869910E+00  7.59869910E+00 -1.51973982E+01
  7.59869910E+00  7.59869910E+00 -1.51973982E+01  7.59869910E+00  7.59869910E+00
 -1.51973982E+01  7.59869910E+00  7.59869910E+00 -1.51973982E+01  7.59869910E+00
  7.59869910E+00 -1.51973982E+01  7.59869910E+00  7.59869910E+00 -1.51973982E+01
  7.59869910E+00  7.59869910E+00 -1.51973982E+01  7.59869910E+00  7.59869910E+00
 -1.51973982E+01  7.59869910E+00  7.59869910E+00 -1.51973982E+01  7.59869910E+00
  7.59869910E+00 -1.51973982E+01  7.59869910E+00  7.59869910E+00 -1.51973982E+01
  7.59869910E+00  7.59869910E+00 -1.51973982E+01  7.59869910E+00  7.59869910E+00
 -1.51973982E+01  7.59869910E+00  7.59869910E+00 -1.51973982E+01  7.59869910E+00
  7.59869910E+00 -1.51973982E+01  7.59869910E+00  7.59869910E+00 -1.51973982E+01
  7.59869910E+00  7.59869910E+00 -1.51973982E+01  7.59869910E+00  7.59869910E+00
 -1.51973982E+01  7.59869910E+00  7.59869910E+00 -1.51973982E+01  7.59869910E+00
  7.59869910E+00 -1.51973982E+01  7.59869910E+00  7.59869910E+00 -1.51973982E+01
  7.59869910E+00  7.59869910E+00 -1.51973982E+01  7.59869910E+00  7.59869910E+00
 -1.51973982E+01  7.59869910E+00  7.59869910E+00 -1.51973982E+01  7.59869910E+00
  7.59869910E+00 -1.51973982E+01  7.59869910E+00  7.59869910E+00 -1.51973982E+01
  7.59869910E+00  7.59869910E+00 -1.51973982E+01  7.59869910E+00  7.59869910E+00
 -1.51973982E+01  7.59869910E+00  7.59869910E+00 -1.51973982E+01  7.59869910E+00
  7.59869910E+00 -1.51973982E+01  7.59869910E+00  7.59869910E+00 -1.51973982E+01
  7.59869910E+00  7.59869910E+00 -1.51973982E+01  7.59869910E+00  7.59869910E+00
 -1.51973982E+01  7.59869910E+00  7.59869910E+00 -1.51973982E+01  7.59869910E+00
  7.59869910E+00 -1.51973982E+01  7.59869910E+00  7.59869910E+00 -1.51973982E+01
  7.59869910E+00  7.59869910E+00 -1.51973982E+01  7.59869910E+00  7.59869910E+00
 -1.51973982E+01  7.59869910E+00  7.59869910E+00 -1.51973982E+01  7.59869910E+00
  7.59869910E+00 -1.51973982E+01  7.59869910E+00  7.59869910E+00 -1.51973982E+01
  7.59869910E+00  7.59869910E+00 -1.51973982E+01  7.59869910E+00  7.59869910E+00
 -1.51973982E+01  7.59869910E+00  7.59869910E+00 -1.51973982E+01  7.59869910E+00
  7.59869910E+00 -1.51973982E+01  7.59869910E+00  7.59869910E+00 -1.51973982E+01
  7.59869910E+00  7.59869910E+00 -1.51973982E+01  7.59869910E+00  7.59869910E+00
 -1.51973982E+01  7.59869910E+00  7.59869910E+00 -1.51973982E+01  7.59869910E+00
  7.59869910E+00 -1.51973982E+01  7.59869910E+00  7.59869910E+00 -1.51973982E+01
  7.59869910E+00  7.59869910E+00 -1.51973982E+01  7.59869910E+00  7.59869910E+00
 -1.51973982E+01  7.59869910E+00  7.59869910E+00 -1.51973982E+01  7.59869910E+00
  7.59869910E+00 -1.51973982E+01  7.59869910E+00  7.59869910E+00 -1.51973982E+01
  7.59869910E+00  7.59869910E+00 -1.51973982E+01  7.59869910E+00  7.59869910E+00
 -1.51973982E+01  7.59869910E+00  7.59869910E+00 -1.51973982E+01  7.59869910E+00
  7.59869910E+00 -1.51973982E+01  7.59869910E+00  7.59869910E+00 -1.51973982E+01
  7.59869910E+00  7.59869910E+00 -1.51973982E+01  7.59869910E+00  7.59869910E+00
 -1.51973982E+01  7.59869910E+00  7.59869910E+00 -1.51973982E+01  7.59869910E+00
  7.59869910E+00 -1.51973982E+01  7.59869910E+00  7.59869910E+00 -1.51973982E+01
  7.59869910E+00  7.59869910E+00 -1.51973982E+01  7.59869910E+00  7.59869910E+00
 -1.51973982E+01  7.59869910E+00  7.59869910E+00 -1.51973982E+01  7.59869910E+00
  7.59869910E+00 -1.51973982E+01  7.59869910E+00  7.59869910E+00 -1.51973982E+01
  7.59869910E+00  7.59869910E+00 -1.51973982E+01  7.59869910E+00  7.59869910E+00
 -1.51973982E+01  7.59869910E+00  7.59869910E+00 -1.51973982E+01  7.59869910E+00
  7.59869910E+00 -1.51973982E+01  7.59869910E+00  7.59869910E+00 -1.51973982E+01
  7.59869910E+00  7.59869910E+00 -1.51973982E+01  7.59869910E+00  7.59869910E+00
 -1.51973982E+01  7.59869910E+00  7.59869910E+00 -1.51973982E+01  7.59869910E+00
  7.59869910E+00 -1.51973982E+01  7.59869910E+00  7.59869910E+00 -1.51973982E+01
  7.59869910E+00  7.59869910E+00 -1.51973982E+01  7.59869910E+00  7.59869910E+00
 -1.51973982E+01  7.59869910E+00  7.59869910E+00 -1.51973982E+01  7.59869910E+00
  7.59869910E+00 -1.51973982E+01  7.59869910E+00  7.59869910E+00 -1.51973982E+01
  7.59869910E+00  7.59869910E+00 -1.51973982E+01  7.59869910E+00  7.59869910E+00
 -1.51973982E+01  7.59869910E+00  7.59869910E+00 -1.51973982E+01  7.59869910E+00
  7.59869910E+00 -1.51973982E+01  7.59869910E+00  7.59869910E+00 -1.51973982E+01
  7.59869910E+00  7.59869910E+00 -1.51973982E+01  7.59869910E+00  7.59869910E+00
 -1.51973982E+01  7.59869910E+00  7.59869910E+00 -1.51973982E+01  7.59869910E+00
  7.59869910E+00 -1.51973982E+01  7.59869910E+00  7.59869910E+00 -1.51973982E+01
  7.59869910E+00  7.59869910E+00 -1.51973982E+01  7.59869910E+00  7.59869910E+00
 -1.51973982E+01  7.59869910E+00  7.59869910E+00 -1.51973982E+01  7.59869910E+00
  7.59869910E+00 -1.51973982E+01  7.59869910E+00  7.59869910E+00 -1.51973982E+01
  7.59869910E+00  7.59869910E+00 -1.51973982E+01  7.59869910E+00  7.59869910E+00
 -1.51973982E+01  7.59869910E+00  7.59869910E+00 -1.51973982E+01  7.59869910E+00
  7.59869910E+00 -1.51973982E+01  7.59869910E+00  7.59869910E+00 -1.51973982E+01
  7.59869910E+00  7.59869910E+00 -1.51973982E+01  7.59869910E+00  7.59869910E+00
 -1.51973982E+01  7.59869910E+00  7.59869910E+00 -1.51973982E+01  7.59869910E+00
  7.59869910E+00 -1.51973982E+01  7.59869910E+00  7.59869910E+00 -1.51973982E+01
  7.59869910E+00  7.59869910E+00 -1.51973982E+01  7.59869910E+00  7.59869910E+00
 -1.51973982E+01  7.59869910E+00  7.59869910E+00 -1.51973982E+01  7.59869910E+00
  7.59869910E+00 -1.51973982E+01  7.59869910E+00  7.59869910E+00 -1.51973982E+01
  7.59869910E+00  7.59869910E+00 -1.51973982E+01  7.59869910E+00  7.59869910E+00
 -1.51973982E+01  7.59869910E+00  7.59869910E+00 -1.51973982E+01  7.59869910E+00
  7.59869910E+00 -1.51973982E+01  7.59869910E+00  7.59869910E+00 -1.51973982E+01
  7.59869910E+00  7.59869910E+00 -1.51973982E+01  7.59869910E+00  7.59869910E+00
 -1.51973982E+01  7.59869910E+00  7.59869910E+00 -1.51973982E+01  7.59869910E+00
  7.59869910E+00 -1.51973982E+01  7.59869910E+00  7.59869910E+00 -1.51973982E+01
  7.59869910E+00  7.59869910E+00 -1.51973982E+01  7.59869910E+00  7.59869910E+00
 -1.51973982E+01  7.59869910E+00  7.59869910E+00 -1.51973982E+01  7.59869910E+00
  7.59869910E+00 -1.51973982E+01  7.59869910E+00  7.59869910E+00 -1.51973982E+01
  7.59869910E+00  7.59869910E+00 -1.51973982E+01  7.59869910E+00  7.59869910E+00
 -1.51973982E+01  7.59869910E+00  7.59869910E+00 -1.51973982E+01  7.59869910E+00
  7.59869910E+00 -1.51973982E+01  7.59869910E+00  7.59869910E+00 -1.51973982E+01
  7.59869910E+00  7.59869910E+00 -1.51973982E+01  7.59869910E+00  7.59869910E+00
 -1.51973982E+01  7.59869910E+00  7.59869910E+00 -1.51973982E+01  7.59869910E+00
  7.59869910E+00 -1.51973982E+01  7.59869910E+00  7.59869910E+00 -1.51973982E+01
  7.59869910E+00  7.59869910E+00 -1.51973982E+01  7.59869910E+00  7.59869910E+00
 -1.51973982E+01  7.59869910E+00  7.59869910E+00 -1.51973982E+01  7.59869910E+00
  7.59869910E+00 -1.51973982E+01  7.59869910E+00  7.59869910E+00 -1.51973982E+01
  7.59869910E+00  7.59869910E+00 -1.51973982E+01  7.59869910E+00  7.59869910E+00
 -1.51973982E+01  7.59869910E+00  7.59869910E+00 -1.51973982E+01  7.59869910E+00
  7.59869910E+00 -1.51973982E+01  7.59869910E+00  7.59869910E+00 -1.51973982E+01
  7.59869910E+00  7.59869910E+00 -1.51973982E+01  7.59869910E+00  7.59869910E+00
 -1.51973982E+01  7.59869910E+00  7.59869910E+00 -1.51973982E+01  7.59869910E+00
  7.59869910E+00 -1.51973982E+01  7.59869910E+00  7.59869910E+00 -1.51973982E+01
  7.59869910E+00  7.59869910E+00 -1.51973982E+01  7.59869910E+00  7.59869910E+00
 -1.51973982E+01  7.59869910E+00  7.59869910E+00 -1.51973982E+01  7.59869910E+00
  7.59869910E+00 -1.51973982E+01  7.59869910E+00  7.59869910E+00 -1.51973982E+01
  7.59869910E+00  7.59869910E+00 -1.51973982E+01  7.59869910E+00  7.59869910E+00
 -1.51973982E+01  7.59869910E+00  7.59869910E+00 -1.51973982E+01  7.59869910E+00
  7.59869910E+00 -1.51973982E+01  7.59869910E+00  7.59869910E+00 -1.51973982E+01
  7.59869910E+00  7.59869910E+00 -1.51973982E+01  7.59869910E+00  7.59869910E+00
 -1.51973982E+01  7.59869910E+00  7.59869910E+00 -1.51973982E+01  7.59869910E+00
  7.59869910E+00 -1.51973982E+01  7.59869910E+00  7.59869910E+00 -1.51973982E+01
  7.59869910E+00  7.59869910E+00 -1.51973982E+01  7.59869910E+00  7.59869910E+00
 -1.51973982E+01  7.59869910E+00  7.59869910E+00 -1.51973982E+01  7.59869910E+00
  7.59869910E+00 -1.51973982E+01  7.59869910E+00  7.59869910E+00 -1.51973982E+01
  7.59869910E+00  7.59869910E+00 -1.51973982E+01  7.59869910E+00  7.59869910E+00
 -1.51973982E+01  7.59869910E+00  7.59869910E+00 -1.51973982E+01  7.59869910E+00
  7.59869910E+00 -1.51973982E+01  7.59869910E+00  7.59869910E+00 -1.51973982E+01
  7.59869910E+00  7.59869910E+00 -1.51973982E+01  7.59869910E+00  7.59869910E+00
 -1.51973982E+01  7.59869910E+00  7.59869910E+00 -1.51973982E+01  7.59869910E+00
  7.59869910E+00 -1.51973982E+01  7.59869910E+00  7.59869910E+00 -1.51973982E+01
  7.59869910E+00  7.59869910E+00 -1.51973982E+01  7.59869910E+00  7.59869910E+00
 -1.51973982E+01  7.59869910E+00  7.59869910E+00 -1.51973982E+01  7.59869910E+00
  7.59869910E+00 -1.51973982E+01  7.59869910E+00  7.59869910E+00 -1.51973982E+01
  7.59869910E+00  7.59869910E+00 -1.51973982E+01  7.59869910E+00  7.59869910E+00
 -1.51973982E+01  7.59869910E+00  7.59869910E+00 -1.51973982E+01  7.59869910E+00
  7.59869910E+00 -1.51973982E+01  7.59869910E+00  7.59869910E+00 -1.51973982E+01
  7.59869910E+00  7.59869910E+00 -1.51973982E+01  7.59869910E+00  7.59869910E+00
 -1.51973982E+01  7.59869910E+00  7.59869910E+00 -1.51973982E+01  7.59869910E+00
  7.59869910E+00 -1.51973982E+01  7.59869910E+00  7.59869910E+00 -1.51973982E+01
  7.59869910E+00  7.59869910E+00 -1.51973982E+01  7.59869910E+00  7.59869910E+00
 -1.51973982E+01  7.59869910E+00  7.59869910E+00 -1.51973982E+01  7.59869910E+00
  7.59869910E+00 -1.51973982E+01  7.59869910E+00  7.59869910E+00 -1.51973982E+01
  7.59869910E+00  7.59869910E+00 -1.51973982E+01  7.59869910E+00  7.59869910E+00
 -1.51973982E+01  7.59869910E+00  7.59869910E+00 -1.51973982E+01  7.59869910E+00
  7.59869910E+00 -1.51973982E+01  7.59869910E+00  7.59869910E+00 -1.51973982E+01
  7.59869910E+00  7.59869910E+00 -1.51973982E+01  7.59869910E+00  7.59869910E+00
 -1.51973982E+01  7.59869910E+00  7.59869910E+00 -1.51973982E+01  7.59869910E+00
  7.59869910E+00 -1.51973982E+01  7.59869910E+00  7.59869910E+00 -1.51973982E+01
  7.59869910E+00  7.59869910E+00 -1.51973982E+01  7.59869910E+00  7.59869910E+00
 -1.51973982E+01  7.59869910E+00  7.59869910E+00 -1.51973982E+01  7.59869910E+00
  7.59869910E+00 -1.51973982E+01  7.59869910E+00  7.59869910E+00 -1.51973982E+01
  7.59869910E+00  7.59869910E+00 -1.51973982E+01  7.59869910E+00  7.59869910E+00
 -1.51973982E+01  7.59869910E+00  7.59869910E+00 -1.51973982E+01  7.59869910E+00
  7.59869910E+00 -1.51973982E+01  7.59869910E+00  7.59869910E+00 -1.51973982E+01
  7.59869910E+00  7.59869910E+00 -1.51973982E+01  7.59869910E+00  7.59869910E+00
 -1.51973982E+01  7.59869910E+00  7.59869910E+00 -1.51973982E+01  7.59869910E+00
  7.59869910E+00 -1.51973982E+01  7.59869910E+00  7.59869910E+00 -1.51973982E+01
  7.59869910E+00  7.59869910E+00 -1.51973982E+01  7.59869910E+00  7.59869910E+00
 -1.51973982E+01  7.59869910E+00  7.59869910E+00 -1.51973982E+01  7.59869910E+00
  7.59869910E+00 -1.51973982E+01  7.59869910E+00  7.59869910E+00 -1.51973982E+01
  7.59869910E+00  7.59869910E+00 -1.51973982E+01  7.59869910E+00  7.59869910E+00
 -1.51973982E+01  7.59869910E+00  7.59869910E+00 -1.51973982E+01  7.59869910E+00
  7.59869910E+00 -1.51973982E+01  7.59869910E+00  7.59869910E+00 -1.51973982E+01
  7.59869910E+00  7.59869910E+00 -1.51973982E+01  7.59869910E+00  7.59869910E+00
 -1.51973982E+01  7.59869910E+00  7.59869910E+00 -1.51973982E+01  7.59869910E+00
  7.59869910E+00 -1.51973982E+01  7.59869910E+00  7.59869910E+00 -1.51973982E+01
  7.59869910E+00  7.59869910E+00 -1.51973982E+01  7.59869910E+00  7.59869910E+00
 -1.51973982E+01  7.59869910E+00  7.59869910E+00 -1.51973982E+01  7.59869910E+00
  7.59869910E+00 -1.51973982E+01  7.59869910E+00  7.59869910E+00 -1.51973982E+01
  7.59869910E+00  7.59869910E+00 -1.51973982E+01  7.59869910E+00  7.59869910E+00
 -1.51973982E+01  7.59869910E+00  7.59869910E+00 -1.51973982E+01  7.59869910E+00
  7.59869910E+00 -1.51973982E+01  7.59869910E+00  7.59869910E+00 -1.51973982E+01
  7.59869910E+00  7.59869910E+00 -1.51973982E+01  7.59869910E+00  7.59869910E+00
 -1.51973982E+01  7.59869910E+00  7.59869910E+00 -1.51973982E+01  7.59869910E+00
  7.59869910E+00 -1.51973982E+01  7.59869910E+00  7.59869910E+00 -1.51973982E+01
  7.59869910E+00  7.59869910E+00 -1.51973982E+01  7.59869910E+00  7.59869910E+00
 -1.51973982E+01  7.59869910E+00  7.59869910E+00 -1.51973982E+01  7.59869910E+00
  7.59869910E+00 -1.51973982E+01  7.59869910E+00  7.59869910E+00 -1.51973982E+01
  7.59869910E+00  7.59869910E+00 -1.51973982E+01  7.59869910E+00  7.59869910E+00
 -1.51973982E+01  7.59869910E+00  7.59869910E+00 -1.51973982E+01  7.59869910E+00
  7.59869910E+00 -1.51973982E+01  7.59869910E+00  7.59869910E+00 -1.51973982E+01
  7.59869910E+00  7.59869910E+00 -1.51973982E+01  7.59869910E+00  7.59869910E+00
 -1.51973982E+01  7.59869910E+00  7.59869910E+00 -1.51973982E+01  7.59869910E+00
  7.59869910E+00 -1.51973982E+01  7.59869910E+00  7.59869910E+00 -1.51973982E+01
  7.59869910E+00  7.59869910E+00 -1.51973982E+01  7.59869910E+00  7.59869910E+00
 -1.51973982E+01  7.59869910E+00  7.59869910E+00 -1.51973982E+01  7.59869910E+00
  7.59869910E+00 -1.51973982E+01  7.59869910E+00  7.59869910E+00 -1.51973982E+01
  7.59869910E+00  7.59869910E+00 -1.51973982E+01  7.59869910E+00  7.59869910E+00
 -1.51973982E+01  7.59869910E+00  7.59869910E+00 -1.51973982E+01  7.59869910E+00
  7.59869910E+00 -1.51973982E+01  7.59869910E+00  7.59869910E+00 -1.51973982E+01
  7.59869910E+00  7.59869910E+00 -1.51973982E+01  7.59869910E+00  7.59869910E+00
 -1.51973982E+01  7.59869910E+00  7.59869910E+00 -1.51973982E+01  7.59869910E+00
  7.59869910E+00 -1.51973982E+01  7.59869910E+00  7.59869910E+00 -1.51973982E+01
  7.59869910E+00  7.59869910E+00 -1.51973982E+01  7.59869910E+00  7.59869910E+00
 -1.51973982E+01  7.59869910E+00  7.59869910E+00 -1.51973982E+01  7.59869910E+00
  7.59869910E+00 -1.51973982E+01  7.59869910E+00  7.59869910E+00 -1.51973982E+01
  7.59869910E+00  7.59869910E+00 -1.51973982E+01  7.59869910E+00  7.59869910E+00
 -1.51973982E+01  7.59869910E+00  7.59869910E+00 -1.51973982E+01  7.59869910E+00
  7.59869910E+00 -1.51973982E+01  7.59869910E+00  7.59869910E+00 -1.51973982E+01
  7.59869910E+00  7.59869910E+00 -1.51973982E+01  7.59869910E+00  7.59869910E+00
 -1.51973982E+01  7.59869910E+00  7.59869910E+00 -1.51973982E+01  7.59869910E+00
  7.59869910E+00 -1.51973982E+01  7.59869910E+00  7.59869910E+00 -1.51973982E+01
  7.59869910E+00  7.59869910E+00 -1.51973982E+01  7.59869910E+00  7.59869910E+00
 -1.51973982E+01  7.59869910E+00  7.59869910E+00 -1.51973982E+01  7.59869910E+00
  7.59869910E+00 -1.51973982E+01  7.59869910E+00  7.59869910E+00 -1.51973982E+01
  7.59869910E+00  7.59869910E+00 -1.51973982E+01  7.59869910E+00  7.59869910E+00
 -1.51973982E+01  7.59869910E+00  7.59869910E+00 -1.51973982E+01  7.59869910E+00
  7.59869910E+00 -1.51973982E+01  7.59869910E+00  7.59869910E+00 -1.51973982E+01
  7.59869910E+00  7.59869910E+00 -1.51973982E+01  7.59869910E+00  7.59869910E+00
 -1.51973982E+01  7.59869910E+00  7.59869910E+00 -1.51973982E+01  7.59869910E+00
  7.59869910E+00 -1.51973982E+01  7.59869910E+00  7.59869910E+00 -1.51973982E+01
  7.59869910E+00  7.59869910E+00 -1.51973982E+01  7.59869910E+00  7.59869910E+00
 -1.51973982E+01  7.59869910E+00  7.59869910E+00 -1.51973982E+01  7.59869910E+00
  7.59869910E+00 -1.51973982E+01  7.59869910E+00  7.59869910E+00 -1.51973982E+01
  7.59869910E+00  7.59869910E+00 -1.51973982E+01  7.59869910E+00  7.59869910E+00
 -1.51973982E+01  7.59869910E+00  7.59869910E+00 -1.51973982E+01  7.59869910E+00
  7.59869910E+00 -1.51973982E+01  7.59869910E+00  7.59869910E+00 -1.51973982E+01
  7.59869910E+00  7.59869910E+00 -1.51973982E+01  7.59869910E+00  7.59869910E+00
 -1.51973982E+01  7.59869910E+00  7.59869910E+00 -1.51973982E+01  7.59869910E+00
  7.59869910E+00 -1.51973982E+01  7.59869910E+00  7.59869910E+00 -1.51973982E+01
  7.59869910E+00  7.59869910E+00 -1.51973982E+01  7.59869910E+00  7.59869910E+00
 -1.51973982E+01  7.59869910E+00  7.59869910E+00 -1.51973982E+01  7.59869910E+00
  7.59869910E+00 -1.51973982E+01  7.59869910E+00  7.59869910E+00 -1.51973982E+01
  7.59869910E+00  7.59869910E+00 -1.51973982E+01  7.59869910E+00  7.59869910E+00
 -1.51973982E+01  7.59869910E+00  7.59869910E+00 -1.51973982E+01  7.59869910E+00
  7.59869910E+00 -1.51973982E+01  7.59869910E+00  7.59869910E+00 -1.51973982E+01
  7.59869910E+00  7.59869910E+00 -1.51973982E+01  7.59869910E+00  7.59869910E+00
 -1.51973982E+01  7.59869910E+00  7.59869910E+00 -1.51973982E+01  7.59869910E+00
  7.59869910E+00 -1.51973982E+01  7.59869910E+00  7.59869910E+00 -1.51973982E+01
  7.59869910E+00  7.59869910E+00 -1.51973982E+01  7.59869910E+00  7.59869910E+00
 -1.51973982E+01  7.59869910E+00  7.59869910E+00 -1.51973982E+01  7.59869910E+00
  7.59869910E+00 -1.51973982E+01  7.59869910E+00  7.59869910E+00 -1.51973982E+01
  7.59869910E+00  7.59869910E+00 -1.51973982E+01  7.59869910E+00  7.59869910E+00
 -1.51973982E+01  7.59869910E+00  7.59869910E+00 -1.51973982E+01  7.59869910E+00
  7.59869910E+00 -1.51973982E+01  7.59869910E+00  7.59869910E+00 -1.51973982E+01
  7.59869910E+00  7.59869910E+00 -1.51973982E+01  7.59869910E+00  7.59869910E+00
 -1.51973982E+01  7.59869910E+00  7.59869910E+00 -1.51973982E+01  7.59869910E+00
  7.59869910E+00 -1.51973982E+01  7.59869910E+00  7.59869910E+00 -1.51973982E+01
  7.59869910E+00  7.59869910E+00 -1.51973982E+01  7.59869910E+00  7.59869910E+00
 -1.51973982E+01  7.59869910E+00  7.59869910E+00 -1.51973982E+01  7.59869910E+00
  7.59869910E+00 -1.51973982E+01  7.59869910E+00  7.59869910E+00 -1.51973982E+01
  7.59869910E+00  7.59869910E+00 -1.51973982E+01  7.59869910E+00  7.59869910E+00
 -1.51973982E+01  7.59869910E+00  7.59869910E+00 -1.51973982E+01  7.59869910E+00
  7.59869910E+00 -1.51973982E+01  7.59869910E+00  7.59869910E+00 -1.51973982E+01
  7.59869910E+00  7.59869910E+00 -1.51973982E+01  7.59869910E+00  7.59869910E+00
 -1.51973982E+01  7.59869910E+00  7.59869910E+00 -1.51973982E+01  7.59869910E+00
  7.59869910E+00 -1.51973982E+01  7.59869910E+00  7.59869910E+00 -1.51973982E+01
  7.59869910E+00  7.59869910E+00 -1.51973982E+01  7.59869910E+00  7.59869910E+00
 -1.51973982E+01  7.59869910E+00  7.59869910E+00 -1.51973982E+01  7.59869910E+00
  7.59869910E+00 -1.51973982E+01  7.59869910E+00  7.59869910E+00 -1.51973982E+01
  7.59869910E+00  7.59869910E+00 -1.51973982E+01  7.59869910E+00  7.59869910E+00
 -1.51973982E+01  7.59869910E+00  7.59869910E+00 -1.51973982E+01  7.59869910E+00
  7.59869910E+00 -1.51973982E+01  7.59869910E+00  7.59869910E+00 -1.51973982E+01
  7.59869910E+00  7.59869910E+00 -1.51973982E+01  7.59869910E+00  7.59869910E+00
 -1.51973982E+01  7.59869910E+00  7.59869910E+00 -1.51973982E+01  7.59869910E+00
  7.59869910E+00 -1.51973982E+01  7.59869910E+00  7.59869910E+00 -1.51973982E+01
  7.59869910E+00  7.59869910E+00 -1.51973982E+01  7.59869910E+00  7.59869910E+00
 -1.51973982E+01  7.59869910E+00  7.59869910E+00 -1.51973982E+01  7.59869910E+00
  7.59869910E+00 -1.51973982E+01  7.59869910E+00  7.59869910E+00 -1.51973982E+01
  7.59869910E+00  7.59869910E+00 -1.51973982E+01  7.59869910E+00  7.59869910E+00
 -1.51973982E+01  7.59869910E+00  7.59869910E+00 -1.51973982E+01  7.59869910E+00
  7.59869910E+00 -1.51973982E+01  7.59869910E+00  7.59869910E+00 -1.51973982E+01
  7.59869910E+00  7.59869910E+00 -1.51973982E+01  7.59869910E+00  7.59869910E+00
 -1.51973982E+01  7.59869910E+00  7.59869910E+00 -1.51973982E+01  7.59869910E+00
  7.59869910E+00 -1.51973982E+01  7.59869910E+00  7.59869910E+00 -1.51973982E+01
  7.59869910E+00  7.59869910E+00 -1.51973982E+01  7.59869910E+00  7.59869910E+00
 -1.51973982E+01  7.59869910E+00  7.59869910E+00 -1.51973982E+01  7.59869910E+00
  7.59869910E+00 -1.51973982E+01  7.59869910E+00  7.59869910E+00 -1.51973982E+01
  7.59869910E+00  7.59869910E+00 -1.51973982E+01  7.59869910E+00  7.59869910E+00
 -1.51973982E+01  7.59869910E+00  7.59869910E+00 -1.51973982E+01  7.59869910E+00
  7.59869910E+00 -1.51973982E+01  7.59869910E+00  7.59869910E+00 -1.51973982E+01
  7.59869910E+00  7.59869910E+00 -1.51973982E+01  7.59869910E+00  7.59869910E+00
 -1.51973982E+01  7.59869910E+00  7.59869910E+00 -1.51973982E+01  7.59869910E+00
  7.59869910E+00 -1.51973982E+01  7.59869910E+00  7.59869910E+00 -1.51973982E+01
  7.59869910E+00  7.59869910E+00 -1.51973982E+01  7.59869910E+00  7.59869910E+00
 -1.51973982E+01  7.59869910E+00  7.59869910E+00 -1.51973982E+01  7.59869910E+00
  7.59869910E+00 -1.51973982E+01  7.59869910E+00  7.59869910E+00 -1.51973982E+01
  7.59869910E+00  7.59869910E+00 -1.51973982E+01  7.59869910E+00  7.59869910E+00
 -1.51973982E+01  7.59869910E+00  7.59869910E+00 -1.51973982E+01  7.59869910E+00
  7.59869910E+00 -1.51973982E+01  7.59869910E+00  7.59869910E+00 -1.51973982E+01
  7.59869910E+00  7.59869910E+00 -1.51973982E+01  7.59869910E+00  7.59869910E+00
 -1.51973982E+01  7.59869910E+00  7.59869910E+00 -1.51973982E+01  7.59869910E+00
  7.59869910E+00 -1.51973982E+01  7.59869910E+00  7.59869910E+00 -1.51973982E+01
  7.59869910E+00  7.59869910E+00 -1.51973982E+01  7.59869910E+00  7.59869910E+00
 -1.51973982E+01  7.59869910E+00  7.59869910E+00 -1.51973982E+01  7.59869910E+00
  7.59869910E+00 -1.51973982E+01  7.59869910E+00  7.59869910E+00 -1.51973982E+01
  7.59869910E+00  7.59869910E+00 -1.51973982E+01  7.59869910E+00  7.59869910E+00
 -1.51973982E+01  7.59869910E+00  7.59869910E+00 -1.51973982E+01  7.59869910E+00
  7.59869910E+00 -1.51973982E+01  7.59869910E+00  7.59869910E+00 -1.51973982E+01
  7.59869910E+00  7.59869910E+00 -1.51973982E+01  7.59869910E+00  7.59869910E+00
 -1.51973982E+01  7.59869910E+00  7.59869910E+00 -1.51973982E+01  7.59869910E+00
  7.59869910E+00 -1.51973982E+01  7.59869910E+00  7.59869910E+00 -1.51973982E+01
  7.59869910E+00  7.59869910E+00 -1.51973982E+01  7.59869910E+00  7.59869910E+00
 -1.51973982E+01  7.59869910E+00  7.59869910E+00 -1.51973982E+01  7.59869910E+00
  7.59869910E+00 -1.51973982E+01  7.59869910E+00  7.59869910E+00 -1.51973982E+01
  7.59869910E+00  7.59869910E+00 -1.51973982E+01  7.59869910E+00  7.59869910E+00
 -1.51973982E+01  7.59869910E+00  7.59869910E+00 -1.51973982E+01  7.59869910E+00
  7.59869910E+00 -1.51973982E+01  7.59869910E+00  7.59869910E+00 -1.51973982E+01
  7.59869910E+00  7.59869910E+00 -1.51973982E+01  7.59869910E+00  7.59869910E+00
 -1.51973982E+01  7.59869910E+00  7.59869910E+00 -1.51973982E+01  7.59869910E+00
  7.59869910E+00 -1.51973982E+01  7.59869910E+00  7.59869910E+00 -1.51973982E+01
  7.59869910E+00  7.59869910E+00 -1.51973982E+01  7.59869910E+00  7.59869910E+00
 -1.51973982E+01  7.59869910E+00  7.59869910E+00 -1.51973982E+01  7.59869910E+00
  7.59869910E+00 -1.51973982E+01  7.59869910E+00  7.59869910E+00 -1.51973982E+01
  7.59869910E+00  7.59869910E+00 -1.51973982E+01  7.59869910E+00  7.59869910E+00
 -1.51973982E+01  7.59869910E+00  7.59869910E+00 -1.51973982E+01  7.59869910E+00
  7.59869910E+00 -1.51973982E+01  7.59869910E+00  7.59869910E+00 -1.51973982E+01
  7.59869910E+00  7.59869910E+00 -1.51973982E+01  7.59869910E+00  7.59869910E+00
 -1.51973982E+01  7.59869910E+00  7.59869910E+00 -1.51973982E+01  7.59869910E+00
  7.59869910E+00 -1.51973982E+01  7.59869910E+00  7.59869910E+00 -1.51973982E+01
  7.59869910E+00  7.59869910E+00 -1.51973982E+01  7.59869910E+00  7.59869910E+00
 -1.51973982E+01  7.59869910E+00  7.59869910E+00 -1.51973982E+01  7.59869910E+00
  7.59869910E+00 -1.51973982E+01  7.59869910E+00  7.59869910E+00 -1.51973982E+01
  7.59869910E+00  7.59869910E+00 -1.51973982E+01  7.59869910E+00  7.59869910E+00
 -1.51973982E+01  7.59869910E+00  7.59869910E+00 -1.51973982E+01  7.59869910E+00
  7.59869910E+00 -1.51973982E+01  7.59869910E+00  7.59869910E+00 -1.51973982E+01
  7.59869910E+00  7.59869910E+00 -1.51973982E+01  7.59869910E+00  7.59869910E+00
 -1.51973982E+01  7.59869910E+00  7.59869910E+00 -1.51973982E+01  7.59869910E+00
  7.59869910E+00 -1.51973982E+01  7.59869910E+00  7.59869910E+00 -1.51973982E+01
  7.59869910E+00  7.59869910E+00 -1.51973982E+01  7.59869910E+00  7.59869910E+00
 -1.51973982E+01  7.59869910E+00  7.59869910E+00 -1.51973982E+01  7.59869910E+00
  7.59869910E+00 -1.51973982E+01  7.59869910E+00  7.59869910E+00 -1.51973982E+01
  7.59869910E+00  7.59869910E+00 -1.51973982E+01  7.59869910E+00  7.59869910E+00
 -1.51973982E+01  7.59869910E+00  7.59869910E+00 -1.51973982E+01  7.59869910E+00
  7.59869910E+00 -1.51973982E+01  7.59869910E+00  7.59869910E+00 -1.51973982E+01
  7.59869910E+00  7.59869910E+00 -1.51973982E+01  7.59869910E+00  7.59869910E+00
 -1.51973982E+01  7.59869910E+00  7.59869910E+00 -1.51973982E+01  7.59869910E+00
  7.59869910E+00 -1.51973982E+01  7.59869910E+00  7.59869910E+00 -1.51973982E+01
  7.59869910E+00  7.59869910E+00 -1.51973982E+01  7.59869910E+00  7.59869910E+00
 -1.51973982E+01  7.59869910E+00  7.59869910E+00 -1.51973982E+01  7.59869910E+00
  7.59869910E+00 -1.51973982E+01  7.59869910E+00  7.59869910E+00 -1.51973982E+01
  7.59869910E+00  7.59869910E+00 -1.51973982E+01  7.59869910E+00  7.59869910E+00
 -1.51973982E+01  7.59869910E+00  7.59869910E+00 -1.51973982E+01  7.59869910E+00
  7.59869910E+00 -1.51973982E+01  7.59869910E+00  7.59869910E+00 -1.51973982E+01
  7.59869910E+00  7.59869910E+00 -1.51973982E+01  7.59869910E+00  7.59869910E+00
 -1.51973982E+01  7.59869910E+00  7.59869910E+00 -1.51973982E+01  7.59869910E+00
  7.59869910E+00 -1.51973982E+01  7.59869910E+00  7.59869910E+00 -1.51973982E+01
  7.59869910E+00  7.59869910E+00 -1.51973982E+01  7.59869910E+00  7.59869910E+00
 -1.51973982E+01  7.59869910E+00  7.59869910E+00 -1.51973982E+01  7.59869910E+00
  7.59869910E+00 -1.51973982E+01  7.59869910E+00  7.59869910E+00 -1.51973982E+01
  7.59869910E+00  7.59869910E+00 -1.51973982E+01  7.59869910E+00  7.59869910E+00
 -1.51973982E+01  7.59869910E+00  7.59869910E+00 -1.51973982E+01  7.59869910E+00
  7.59869910E+00 -1.51973982E+01  7.59869910E+00  7.59869910E+00 -1.51973982E+01
  7.59869910E+00  7.59869910E+00 -1.51973982E+01  7.59869910E+00  7.59869910E+00
 -1.51973982E+01  7.59869910E+00  7.59869910E+00 -1.51973982E+01  7.59869910E+00
  7.59869910E+00 -1.51973982E+01  7.59869910E+00  7.59869910E+00 -1.51973982E+01
  7.59869910E+00  7.59869910E+00 -1.51973982E+01  7.59869910E+00  7.59869910E+00
 -1.51973982E+01  7.59869910E+00  7.59869910E+00 -1.51973982E+01  7.59869910E+00
  7.59869910E+00 -1.51973982E+01  7.59869910E+00  7.59869910E+00 -1.51973982E+01
  7.59869910E+00  7.59869910E+00 -1.51973982E+01  7.59869910E+00  7.59869910E+00
 -1.51973982E+01  7.59869910E+00  7.59869910E+00 -1.51973982E+01  7.59869910E+00
  7.59869910E+00 -1.51973982E+01  7.59869910E+00  7.59869910E+00 -1.51973982E+01
  7.59869910E+00  7.59869910E+00 -1.51973982E+01  7.59869910E+00  7.59869910E+00
 -1.51973982E+01  7.59869910E+00  7.59869910E+00 -1.51973982E+01  7.59869910E+00
  7.59869910E+00 -1.51973982E+01  7.59869910E+00  7.59869910E+00 -1.51973982E+01
  7.59869910E+00  7.59869910E+00 -1.51973982E+01  7.59869910E+00  7.59869910E+00
 -1.51973982E+01  7.59869910E+00  7.59869910E+00 -1.51973982E+01  7.59869910E+00
  7.59869910E+00 -1.51973982E+01  7.59869910E+00  7.59869910E+00 -1.51973982E+01
  7.59869910E+00  7.59869910E+00 -1.51973982E+01  7.59869910E+00  7.59869910E+00
 -1.51973982E+01  7.59869910E+00  7.59869910E+00 -1.51973982E+01  7.59869910E+00
  7.59869910E+00 -1.51973982E+01  7.59869910E+00  7.59869910E+00 -1.51973982E+01
  7.59869910E+00  7.59869910E+00 -1.51973982E+01  7.59869910E+00  7.59869910E+00
 -1.51973982E+01  7.59869910E+00  7.59869910E+00 -1.51973982E+01  7.59869910E+00
  7.59869910E+00 -1.51973982E+01  7.59869910E+00  7.59869910E+00 -1.51973982E+01
  7.59869910E+00  7.59869910E+00 -1.51973982E+01  7.59869910E+00  7.59869910E+00
 -1.51973982E+01  7.59869910E+00  7.59869910E+00 -1.51973982E+01  7.59869910E+00
  7.59869910E+00 -1.51973982E+01  7.59869910E+00  7.59869910E+00 -1.51973982E+01
  7.59869910E+00  7.59869910E+00 -1.51973982E+01  7.59869910E+00  7.59869910E+00
 -1.51973982E+01  7.59869910E+00  7.59869910E+00 -1.51973982E+01  7.59869910E+00
  7.59869910E+00 -1.51973982E+01  7.59869910E+00  7.59869910E+00 -1.51973982E+01
  7.59869910E+00  7.59869910E+00 -1.51973982E+01  7.59869910E+00  7.59869910E+00
 -1.51973982E+01  7.59869910E+00  7.59869910E+00 -1.51973982E+01  7.59869910E+00
  7.59869910E+00 -1.51973982E+01  7.59869910E+00  7.59869910E+00 -1.51973982E+01
  7.59869910E+00  7.59869910E+00 -1.51973982E+01  7.59869910E+00  7.59869910E+00
 -1.51973982E+01  7.59869910E+00  7.59869910E+00 -1.51973982E+01  7.59869910E+00
  7.59869910E+00 -1.51973982E+01  7.59869910E+00  7.59869910E+00 -1.51973982E+01
  7.59869910E+00  7.59869910E+00 -1.51973982E+01  7.59869910E+00  7.59869910E+00
 -1.51973982E+01  7.59869910E+00  7.59869910E+00 -1.51973982E+01  7.59869910E+00
  7.59869910E+00 -1.51973982E+01  7.59869910E+00  7.59869910E+00 -1.51973982E+01
  7.59869910E+00  7.59869910E+00 -1.51973982E+01  7.59869910E+00  7.59869910E+00
 -1.51973982E+01  7.59869910E+00  7.59869910E+00 -1.51973982E+01  7.59869910E+00
  7.59869910E+00 -1.51973982E+01  7.59869910E+00  7.59869910E+00 -1.51973982E+01
  7.59869910E+00  7.59869910E+00 -1.51973982E+01  7.59869910E+00  7.59869910E+00
 -1.51973982E+01  7.59869910E+00  7.59869910E+00 -1.51973982E+01  7.59869910E+00
  7.59869910E+00 -1.51973982E+01  7.59869910E+00  7.59869910E+00 -1.51973982E+01
  7.59869910E+00  7.59869910E+00 -1.51973982E+01  7.59869910E+00  7.59869910E+00
 -1.51973982E+01  7.59869910E+00  7.59869910E+00 -1.51973982E+01  7.59869910E+00
  7.59869910E+00 -1.51973982E+01  7.59869910E+00  7.59869910E+00 -1.51973982E+01
  7.59869910E+00  7.59869910E+00 -1.51973982E+01  7.59869910E+00  7.59869910E+00
 -1.51973982E+01  7.59869910E+00  7.59869910E+00 -1.51973982E+01  7.59869910E+00
  7.59869910E+00 -1.51973982E+01  7.59869910E+00  7.59869910E+00 -1.51973982E+01
  7.59869910E+00  7.59869910E+00 -1.51973982E+01  7.59869910E+00  7.59869910E+00
 -1.51973982E+01  7.59869910E+00  7.59869910E+00 -1.51973982E+01  7.59869910E+00
  7.59869910E+00 -1.51973982E+01  7.59869910E+00  7.59869910E+00 -1.51973982E+01
  7.59869910E+00  7.59869910E+00 -1.51973982E+01  7.59869910E+00  7.59869910E+00
 -1.51973982E+01  7.59869910E+00  7.59869910E+00 -1.51973982E+01  7.59869910E+00
  7.59869910E+00 -1.51973982E+01  7.59869910E+00  7.59869910E+00 -1.51973982E+01
  7.59869910E+00  7.59869910E+00 -1.51973982E+01  7.59869910E+00  7.59869910E+00
 -1.51973982E+01  7.59869910E+00  7.59869910E+00 -1.51973982E+01  7.59869910E+00
  7.59869910E+00 -1.51973982E+01  7.59869910E+00  7.59869910E+00 -1.51973982E+01
  7.59869910E+00  7.59869910E+00 -1.51973982E+01  7.59869910E+00  7.59869910E+00
 -1.51973982E+01  7.59869910E+00  7.59869910E+00 -1.51973982E+01  7.59869910E+00
  7.59869910E+00 -1.51973982E+01  7.59869910E+00  7.59869910E+00 -1.51973982E+01
  7.59869910E+00  7.59869910E+00 -1.51973982E+01  7.59869910E+00  7.59869910E+00
 -1.51973982E+01  7.59869910E+00  7.59869910E+00 -1.51973982E+01  7.59869910E+00
  7.59869910E+00 -1.51973982E+01  7.59869910E+00  7.59869910E+00 -1.51973982E+01
  7.59869910E+00  7.59869910E+00 -1.51973982E+01  7.59869910E+00  7.59869910E+00
 -1.51973982E+01  7.59869910E+00  7.59869910E+00 -1.51973982E+01  7.59869910E+00
  7.59869910E+00 -1.51973982E+01  7.59869910E+00  7.59869910E+00 -1.51973982E+01
  7.59869910E+00  7.59869910E+00 -1.51973982E+01  7.59869910E+00  7.59869910E+00
 -1.51973982E+01  7.59869910E+00  7.59869910E+00 -1.51973982E+01  7.59869910E+00
  7.59869910E+00 -1.51973982E+01  7.59869910E+00  7.59869910E+00 -1.51973982E+01
  7.59869910E+00  7.59869910E+00 -1.51973982E+01  7.59869910E+00  7.59869910E+00
 -1.51973982E+01  7.59869910E+00  7.59869910E+00 -1.51973982E+01  7.59869910E+00
  7.59869910E+00 -1.51973982E+01  7.59869910E+00  7.59869910E+00 -1.51973982E+01
  7.59869910E+00  7.59869910E+00 -1.51973982E+01  7.59869910E+00  7.59869910E+00
 -1.51973982E+01  7.59869910E+00  7.59869910E+00 -1.51973982E+01  7.59869910E+00
  7.59869910E+00 -1.51973982E+01  7.59869910E+00  7.59869910E+00 -1.51973982E+01
  7.59869910E+00  7.59869910E+00 -1.51973982E+01  7.59869910E+00  7.59869910E+00
 -1.51973982E+01  7.59869910E+00  7.59869910E+00 -1.51973982E+01  7.59869910E+00
  7.59869910E+00 -1.51973982E+01  7.59869910E+00  7.59869910E+00 -1.51973982E+01
  7.59869910E+00  7.59869910E+00 -1.51973982E+01  7.59869910E+00  7.59869910E+00
 -1.51973982E+01  7.59869910E+00  7.59869910E+00 -1.51973982E+01  7.59869910E+00
  7.59869910E+00 -1.51973982E+01  7.59869910E+00  7.59869910E+00 -1.51973982E+01
  7.59869910E+00  7.59869910E+00 -1.51973982E+01  7.59869910E+00  7.59869910E+00
 -1.51973982E+01  7.59869910E+00  7.59869910E+00 -1.51973982E+01  7.59869910E+00
  7.59869910E+00 -1.51973982E+01  7.59869910E+00  7.59869910E+00 -1.51973982E+01
  7.59869910E+00  7.59869910E+00 -1.51973982E+01  7.59869910E+00  7.59869910E+00
 -1.51973982E+01  7.59869910E+00  7.59869910E+00 -1.51973982E+01  7.59869910E+00
  7.59869910E+00 -1.51973982E+01  7.59869910E+00  7.59869910E+00 -1.51973982E+01
  7.59869910E+00  7.59869910E+00 -1.51973982E+01  7.59869910E+00  7.59869910E+00
 -1.51973982E+01  7.59869910E+00  7.59869910E+00 -1.51973982E+01  7.59869910E+00
  7.59869910E+00 -1.51973982E+01  7.59869910E+00  7.59869910E+00 -1.51973982E+01
  7.59869910E+00  7.59869910E+00 -1.51973982E+01  7.59869910E+00  7.59869910E+00
 -1.51973982E+01  7.59869910E+00  7.59869910E+00 -1.51973982E+01  7.59869910E+00
  7.59869910E+00 -1.51973982E+01  7.59869910E+00  7.59869910E+00 -1.51973982E+01
  7.59869910E+00  7.59869910E+00 -1.51973982E+01  7.59869910E+00  7.59869910E+00
 -1.51973982E+01  7.59869910E+00  7.59869910E+00 -1.51973982E+01  7.59869910E+00
  7.59869910E+00 -1.51973982E+01  7.59869910E+00  7.59869910E+00 -1.51973982E+01
  7.59869910E+00  7.59869910E+00 -1.51973982E+01  7.59869910E+00  7.59869910E+00
 -1.51973982E+01  7.59869910E+00  7.59869910E+00 -1.51973982E+01  7.59869910E+00
  7.59869910E+00 -1.51973982E+01  7.59869910E+00  7.59869910E+00 -1.51973982E+01
  7.59869910E+00  7.59869910E+00 -1.51973982E+01  7.59869910E+00  7.59869910E+00
 -1.51973982E+01  7.59869910E+00  7.59869910E+00 -1.51973982E+01  7.59869910E+00
  7.59869910E+00 -1.51973982E+01  7.59869910E+00  7.59869910E+00 -1.51973982E+01
  7.59869910E+00  7.59869910E+00 -1.51973982E+01  7.59869910E+00  7.59869910E+00
 -1.51973982E+01  7.59869910E+00  7.59869910E+00 -1.51973982E+01  7.59869910E+00
  7.59869910E+00 -1.51973982E+01  7.59869910E+00  7.59869910E+00 -1.51973982E+01
  7.59869910E+00  7.59869910E+00 -1.51973982E+01  7.59869910E+00  7.59869910E+00
 -1.51973982E+01  7.59869910E+00  7.59869910E+00 -1.51973982E+01  7.59869910E+00
  7.59869910E+00 -1.51973982E+01  7.59869910E+00  7.59869910E+00 -1.51973982E+01
  7.59869910E+00  7.59869910E+00 -1.51973982E+01  7.59869910E+00  7.59869910E+00
 -1.51973982E+01  7.59869910E+00  7.59869910E+00 -1.51973982E+01  7.59869910E+00
  7.59869910E+00 -1.51973982E+01  7.59869910E+00  7.59869910E+00 -1.51973982E+01
  7.59869910E+00  7.59869910E+00 -1.51973982E+01  7.59869910E+00  7.59869910E+00
 -1.51973982E+01  7.59869910E+00  7.59869910E+00 -1.51973982E+01  7.59869910E+00
  7.59869910E+00 -1.51973982E+01  7.59869910E+00  7.59869910E+00 -1.51973982E+01
  7.59869910E+00  7.59869910E+00 -1.51973982E+01  7.59869910E+00  7.59869910E+00
 -1.51973982E+01  7.59869910E+00  7.59869910E+00 -1.51973982E+01  7.59869910E+00
  7.59869910E+00 -1.51973982E+01  7.59869910E+00  7.59869910E+00 -1.51973982E+01
  7.59869910E+00  7.59869910E+00 -1.51973982E+01  7.59869910E+00  7.59869910E+00
 -1.51973982E+01  7.59869910E+00  7.59869910E+00 -1.51973982E+01  7.59869910E+00
  7.59869910E+00 -1.51973982E+01  7.59869910E+00  7.59869910E+00 -1.51973982E+01
  7.59869910E+00  7.59869910E+00 -1.51973982E+01  7.59869910E+00  7.59869910E+00
 -1.51973982E+01  7.59869910E+00  7.59869910E+00 -1.51973982E+01  7.59869910E+00
  7.59869910E+00 -1.51973982E+01  7.59869910E+00  7.59869910E+00 -1.51973982E+01
  7.59869910E+00  7.59869910E+00 -1.51973982E+01  7.59869910E+00  7.59869910E+00
 -1.51973982E+01  7.59869910E+00  7.59869910E+00 -1.51973982E+01  7.59869910E+00
  7.59869910E+00 -1.51973982E+01  7.59869910E+00  7.59869910E+00 -1.51973982E+01
  7.59869910E+00  7.59869910E+00 -1.51973982E+01  7.59869910E+00  7.59869910E+00
 -1.51973982E+01  7.59869910E+00  7.59869910E+00 -1.51973982E+01  7.59869910E+00
  7.59869910E+00 -1.51973982E+01  7.59869910E+00  7.59869910E+00 -1.51973982E+01
  7.59869910E+00  7.59869910E+00 -1.51973982E+01  7.59869910E+00  7.59869910E+00
 -1.51973982E+01  7.59869910E+00  7.59869910E+00 -1.51973982E+01  7.59869910E+00
  7.59869910E+00 -1.51973982E+01  7.59869910E+00  7.59869910E+00 -1.51973982E+01
  7.59869910E+00  7.59869910E+00 -1.51973982E+01  7.59869910E+00  7.59869910E+00
 -1.51973982E+01  7.59869910E+00  7.59869910E+00 -1.51973982E+01  7.59869910E+00
  7.59869910E+00 -1.51973982E+01  7.59869910E+00  7.59869910E+00 -1.51973982E+01
  7.59869910E+00  7.59869910E+00 -1.51973982E+01  7.59869910E+00  7.59869910E+00
 -1.51973982E+01  7.59869910E+00  7.59869910E+00 -1.51973982E+01  7.59869910E+00
  7.59869910E+00 -1.51973982E+01  7.59869910E+00  7.59869910E+00 -1.51973982E+01
  7.59869910E+00  7.59869910E+00 -1.51973982E+01  7.59869910E+00  7.59869910E+00
 -1.51973982E+01  7.59869910E+00  7.59869910E+00 -1.51973982E+01  7.59869910E+00
  7.59869910E+00 -1.51973982E+01  7.59869910E+00  7.59869910E+00 -1.51973982E+01
  7.59869910E+00  7.59869910E+00 -1.51973982E+01  7.59869910E+00  7.59869910E+00
 -1.51973982E+01  7.59869910E+00  7.59869910E+00 -1.51973982E+01  7.59869910E+00
  7.59869910E+00 -1.51973982E+01  7.59869910E+00  7.59869910E+00 -1.51973982E+01
  7.59869910E+00  7.59869910E+00 -1.51973982E+01  7.59869910E+00  7.59869910E+00
 -1.51973982E+01  7.59869910E+00  7.59869910E+00 -1.51973982E+01  7.59869910E+00
  7.59869910E+00 -1.51973982E+01  7.59869910E+00  7.59869910E+00 -1.51973982E+01
  7.59869910E+00  7.59869910E+00 -1.51973982E+01  7.59869910E+00  7.59869910E+00
 -1.51973982E+01  7.59869910E+00  7.59869910E+00 -1.51973982E+01  7.59869910E+00
  7.59869910E+00 -1.51973982E+01  7.59869910E+00  7.59869910E+00 -1.51973982E+01
  7.59869910E+00  7.59869910E+00 -1.51973982E+01  7.59869910E+00  7.59869910E+00
 -1.51973982E+01  7.59869910E+00  7.59869910E+00 -1.51973982E+01  7.59869910E+00
  7.59869910E+00 -1.51973982E+01  7.59869910E+00  7.59869910E+00 -1.51973982E+01
  7.59869910E+00  7.59869910E+00 -1.51973982E+01  7.59869910E+00  7.59869910E+00
 -1.51973982E+01  7.59869910E+00  7.59869910E+00 -1.51973982E+01  7.59869910E+00
  7.59869910E+00 -1.51973982E+01  7.59869910E+00  7.59869910E+00 -1.51973982E+01
  7.59869910E+00  7.59869910E+00 -1.51973982E+01  7.59869910E+00  7.59869910E+00
 -1.51973982E+01  7.59869910E+00  7.59869910E+00 -1.51973982E+01  7.59869910E+00
  7.59869910E+00 -1.51973982E+01  7.59869910E+00  7.59869910E+00 -1.51973982E+01
  7.59869910E+00  7.59869910E+00 -1.51973982E+01  7.59869910E+00  7.59869910E+00
 -1.51973982E+01  7.59869910E+00  7.59869910E+00 -1.51973982E+01  7.59869910E+00
  7.59869910E+00 -1.51973982E+01  7.59869910E+00  7.59869910E+00 -1.51973982E+01
  7.59869910E+00  7.59869910E+00 -1.51973982E+01  7.59869910E+00  7.59869910E+00
 -1.51973982E+01  7.59869910E+00  7.59869910E+00 -1.51973982E+01  7.59869910E+00
  7.59869910E+00 -1.51973982E+01  7.59869910E+00  7.59869910E+00 -1.51973982E+01
  7.59869910E+00  7.59869910E+00 -1.51973982E+01  7.59869910E+00  7.59869910E+00
 -1.51973982E+01  7.59869910E+00  7.59869910E+00 -1.51973982E+01  7.59869910E+00
  7.59869910E+00 -1.51973982E+01  7.59869910E+00  7.59869910E+00 -1.51973982E+01
  7.59869910E+00  7.59869910E+00 -1.51973982E+01  7.59869910E+00  7.59869910E+00
 -1.51973982E+01  7.59869910E+00  7.59869910E+00 -1.51973982E+01  7.59869910E+00
  7.59869910E+00 -1.51973982E+01  7.59869910E+00  7.59869910E+00 -1.51973982E+01
  7.59869910E+00  7.59869910E+00 -1.51973982E+01  7.59869910E+00  7.59869910E+00
 -1.51973982E+01  7.59869910E+00  7.59869910E+00 -1.51973982E+01  7.59869910E+00
  7.59869910E+00 -1.51973982E+01  7.59869910E+00  7.59869910E+00 -1.51973982E+01
  7.59869910E+00  7.59869910E+00 -1.51973982E+01  7.59869910E+00  7.59869910E+00
 -1.51973982E+01  7.59869910E+00  7.59869910E+00 -1.51973982E+01  7.59869910E+00
  7.59869910E+00 -1.51973982E+01  7.59869910E+00  7.59869910E+00 -1.51973982E+01
  7.59869910E+00  7.59869910E+00 -1.51973982E+01  7.59869910E+00  7.59869910E+00
 -1.51973982E+01  7.59869910E+00  7.59869910E+00 -1.51973982E+01  7.59869910E+00
  7.59869910E+00 -1.51973982E+01  7.59869910E+00  7.59869910E+00 -1.51973982E+01
  7.59869910E+00  7.59869910E+00 -1.51973982E+01  7.59869910E+00  7.59869910E+00
 -1.51973982E+01  7.59869910E+00  7.59869910E+00 -1.51973982E+01  7.59869910E+00
  7.59869910E+00 -1.51973982E+01  7.59869910E+00  7.59869910E+00 -1.51973982E+01
  7.59869910E+00  7.59869910E+00 -1.51973982E+01  7.59869910E+00  7.59869910E+00
 -1.51973982E+01  7.59869910E+00  7.59869910E+00 -1.51973982E+01  7.59869910E+00
  7.59869910E+00 -1.51973982E+01  7.59869910E+00  7.59869910E+00 -1.51973982E+01
  7.59869910E+00  7.59869910E+00 -1.51973982E+01  7.59869910E+00  7.59869910E+00
 -1.51973982E+01  7.59869910E+00  7.59869910E+00 -1.51973982E+01  7.59869910E+00
  7.59869910E+00 -1.51973982E+01  7.59869910E+00  7.59869910E+00 -1.51973982E+01
  7.59869910E+00  7.59869910E+00 -1.51973982E+01  7.59869910E+00  7.59869910E+00
 -1.51973982E+01  7.59869910E+00  7.59869910E+00 -1.51973982E+01  7.59869910E+00
  7.59869910E+00 -1.51973982E+01  7.59869910E+00  7.59869910E+00 -1.51973982E+01
  7.59869910E+00  7.59869910E+00 -1.51973982E+01  7.59869910E+00  7.59869910E+00
 -1.51973982E+01  7.59869910E+00  7.59869910E+00 -1.51973982E+01  7.59869910E+00
  7.59869910E+00 -1.51973982E+01  7.59869910E+00  7.59869910E+00 -1.51973982E+01
  7.59869910E+00  7.59869910E+00 -1.51973982E+01  7.59869910E+00  7.59869910E+00
 -1.51973982E+01  7.59869910E+00  7.59869910E+00 -1.51973982E+01  7.59869910E+00
  7.59869910E+00 -1.51973982E+01  7.59869910E+00  7.59869910E+00 -1.51973982E+01
  7.59869910E+00  7.59869910E+00 -1.51973982E+01  7.59869910E+00  7.59869910E+00
 -1.51973982E+01  7.59869910E+00  7.59869910E+00 -1.51973982E+01  7.59869910E+00
  7.59869910E+00 -1.51973982E+01  7.59869910E+00  7.59869910E+00 -1.51973982E+01
  7.59869910E+00  7.59869910E+00 -1.51973982E+01  7.59869910E+00  7.59869910E+00
 -1.51973982E+01  7.59869910E+00  7.59869910E+00 -1.51973982E+01  7.59869910E+00
  7.59869910E+00 -1.51973982E+01  7.59869910E+00  7.59869910E+00 -1.51973982E+01
  7.59869910E+00  7.59869910E+00 -1.51973982E+01  7.59869910E+00  7.59869910E+00
 -1.51973982E+01  7.59869910E+00  7.59869910E+00 -1.51973982E+01  7.59869910E+00
  7.59869910E+00 -1.51973982E+01  7.59869910E+00  7.59869910E+00 -1.51973982E+01
  7.59869910E+00  7.59869910E+00 -1.51973982E+01  7.59869910E+00  7.59869910E+00
 -1.51973982E+01  7.59869910E+00  7.59869910E+00 -1.51973982E+01  7.59869910E+00
  7.59869910E+00 -1.51973982E+01  7.59869910E+00  7.59869910E+00 -1.51973982E+01
  7.59869910E+00  7.59869910E+00 -1.51973982E+01  7.59869910E+00  7.59869910E+00
 -1.51973982E+01  7.59869910E+00  7.59869910E+00 -1.51973982E+01  7.59869910E+00
  7.59869910E+00 -1.51973982E+01  7.59869910E+00  7.59869910E+00 -1.51973982E+01
  7.59869910E+00  7.59869910E+00 -1.51973982E+01  7.59869910E+00  7.59869910E+00
 -1.51973982E+01  7.59869910E+00  7.59869910E+00 -1.51973982E+01  7.59869910E+00
  7.59869910E+00 -1.51973982E+01  7.59869910E+00  7.59869910E+00 -1.51973982E+01
  7.59869910E+00  7.59869910E+00 -1.51973982E+01  7.59869910E+00  7.59869910E+00
 -1.51973982E+01  7.59869910E+00  7.59869910E+00 -1.51973982E+01  7.59869910E+00
  7.59869910E+00 -1.51973982E+01  7.59869910E+00  7.59869910E+00 -1.51973982E+01
  7.59869910E+00  7.59869910E+00 -1.51973982E+01  7.59869910E+00  7.59869910E+00
 -1.51973982E+01  7.59869910E+00  7.59869910E+00 -1.51973982E+01  7.59869910E+00
  7.59869910E+00 -1.51973982E+01  7.59869910E+00  7.59869910E+00 -1.51973982E+01
  7.59869910E+00  7.59869910E+00 -1.51973982E+01  7.59869910E+00  7.59869910E+00
 -1.51973982E+01  7.59869910E+00  7.59869910E+00 -1.51973982E+01  7.59869910E+00
  7.59869910E+00 -1.51973982E+01  7.59869910E+00  7.59869910E+00 -1.51973982E+01
  7.59869910E+00  7.59869910E+00 -1.51973982E+01  7.59869910E+00  7.59869910E+00
 -1.51973982E+01  7.59869910E+00  7.59869910E+00 -1.51973982E+01  7.59869910E+00
  7.59869910E+00 -1.51973982E+01  7.59869910E+00  7.59869910E+00 -1.51973982E+01
  7.59869910E+00  7.59869910E+00 -1.51973982E+01  7.59869910E+00  7.59869910E+00
 -1.51973982E+01  7.59869910E+00  7.59869910E+00 -1.51973982E+01  7.59869910E+00
  7.59869910E+00 -1.51973982E+01  7.59869910E+00  7.59869910E+00 -1.51973982E+01
  7.59869910E+00  7.59869910E+00 -1.51973982E+01  7.59869910E+00  7.59869910E+00
 -1.51973982E+01  7.59869910E+00  7.59869910E+00 -1.51973982E+01  7.59869910E+00
  7.59869910E+00 -1.51973982E+01  7.59869910E+00  7.59869910E+00 -1.51973982E+01
  7.59869910E+00  7.59869910E+00 -1.51973982E+01  7.59869910E+00  7.59869910E+00
 -1.51973982E+01  7.59869910E+00  7.59869910E+00 -1.51973982E+01  7.59869910E+00
  7.59869910E+00 -1.51973982E+01  7.59869910E+00  7.59869910E+00 -1.51973982E+01
  7.59869910E+00  7.59869910E+00 -1.51973982E+01  7.59869910E+00  7.59869910E+00
 -1.51973982E+01  7.59869910E+00  7.59869910E+00 -1.51973982E+01  7.59869910E+00
  7.59869910E+00 -1.51973982E+01  7.59869910E+00  7.59869910E+00 -1.51973982E+01
  7.59869910E+00  7.59869910E+00 -1.51973982E+01  7.59869910E+00  7.59869910E+00
 -1.51973982E+01  7.59869910E+00  7.59869910E+00 -1.51973982E+01  7.59869910E+00
  7.59869910E+00 -1.51973982E+01  7.59869910E+00  7.59869910E+00 -1.51973982E+01
  7.59869910E+00  7.59869910E+00 -1.51973982E+01  7.59869910E+00  7.59869910E+00
 -1.51973982E+01  7.59869910E+00  7.59869910E+00 -1.51973982E+01  7.59869910E+00
  7.59869910E+00 -1.51973982E+01  7.59869910E+00  7.59869910E+00 -1.51973982E+01
  7.59869910E+00  7.59869910E+00 -1.51973982E+01  7.59869910E+00  7.59869910E+00
 -1.51973982E+01  7.59869910E+00  7.59869910E+00 -1.51973982E+01  7.59869910E+00
  7.59869910E+00 -1.51973982E+01  7.59869910E+00  7.59869910E+00 -1.51973982E+01
  7.59869910E+00  7.59869910E+00 -1.51973982E+01  7.59869910E+00  7.59869910E+00
 -1.51973982E+01  7.59869910E+00  7.59869910E+00 -1.51973982E+01  7.59869910E+00
  7.59869910E+00 -1.51973982E+01  7.59869910E+00  7.59869910E+00 -1.51973982E+01
  7.59869910E+00  7.59869910E+00 -1.51973982E+01  7.59869910E+00  7.59869910E+00
 -1.51973982E+01  7.59869910E+00  7.59869910E+00 -1.51973982E+01  7.59869910E+00
  7.59869910E+00 -1.51973982E+01  7.59869910E+00  7.59869910E+00 -1.51973982E+01
  7.59869910E+00  7.59869910E+00 -1.51973982E+01  7.59869910E+00  7.59869910E+00
 -1.51973982E+01  7.59869910E+00  7.59869910E+00 -1.51973982E+01  7.59869910E+00
  7.59869910E+00 -1.51973982E+01  7.59869910E+00  7.59869910E+00 -1.51973982E+01
  7.59869910E+00  7.59869910E+00 -1.51973982E+01  7.59869910E+00  7.59869910E+00
 -1.51973982E+01  7.59869910E+00  7.59869910E+00 -1.51973982E+01  7.59869910E+00
  7.59869910E+00 -1.51973982E+01  7.59869910E+00  7.59869910E+00 -1.51973982E+01
  7.59869910E+00  7.59869910E+00 -1.51973982E+01  7.59869910E+00  7.59869910E+00
 -1.51973982E+01  7.59869910E+00  7.59869910E+00 -1.51973982E+01  7.59869910E+00
  7.59869910E+00 -1.51973982E+01  7.59869910E+00  7.59869910E+00 -1.51973982E+01
  7.59869910E+00  7.59869910E+00 -1.51973982E+01  7.59869910E+00  7.59869910E+00
 -1.51973982E+01  7.59869910E+00  7.59869910E+00 -1.51973982E+01  7.59869910E+00
  7.59869910E+00 -1.51973982E+01  7.59869910E+00  7.59869910E+00 -1.51973982E+01
  7.59869910E+00  7.59869910E+00 -1.51973982E+01  7.59869910E+00  7.59869910E+00
 -1.51973982E+01  7.59869910E+00  7.59869910E+00 -1.51973982E+01  7.59869910E+00
  7.59869910E+00 -1.51973982E+01  7.59869910E+00  7.59869910E+00 -1.51973982E+01
  7.59869910E+00  7.59869910E+00 -1.51973982E+01  7.59869910E+00  7.59869910E+00
 -1.51973982E+01  7.59869910E+00  7.59869910E+00 -1.51973982E+01  7.59869910E+00
  7.59869910E+00 -1.51973982E+01  7.59869910E+00  7.59869910E+00 -1.51973982E+01
  7.59869910E+00  7.59869910E+00 -1.51973982E+01  7.59869910E+00  7.59869910E+00
 -1.51973982E+01  7.59869910E+00  7.59869910E+00 -1.51973982E+01  7.59869910E+00
  7.59869910E+00 -1.51973982E+01  7.59869910E+00  7.59869910E+00 -1.51973982E+01
  7.59869910E+00  7.59869910E+00 -1.51973982E+01  7.59869910E+00  7.59869910E+00
 -1.51973982E+01  7.59869910E+00  7.59869910E+00 -1.51973982E+01  7.59869910E+00
  7.59869910E+00 -1.51973982E+01  7.59869910E+00  7.59869910E+00 -1.51973982E+01
  7.59869910E+00  7.59869910E+00 -1.51973982E+01  7.59869910E+00  7.59869910E+00
 -1.51973982E+01  7.59869910E+00  7.59869910E+00 -1.51973982E+01  7.59869910E+00
  7.59869910E+00 -1.51973982E+01  7.59869910E+00  7.59869910E+00 -1.51973982E+01
  7.59869910E+00  7.59869910E+00 -1.51973982E+01  7.59869910E+00  7.59869910E+00
 -1.51973982E+01  7.59869910E+00  7.59869910E+00 -1.51973982E+01  7.59869910E+00
  7.59869910E+00 -1.51973982E+01  7.59869910E+00  7.59869910E+00 -1.51973982E+01
  7.59869910E+00  7.59869910E+00 -1.51973982E+01  7.59869910E+00  7.59869910E+00
 -1.51973982E+01  7.59869910E+00  7.59869910E+00 -1.51973982E+01  7.59869910E+00
  7.59869910E+00 -1.51973982E+01  7.59869910E+00  7.59869910E+00 -1.51973982E+01
  7.59869910E+00  7.59869910E+00 -1.51973982E+01  7.59869910E+00  7.59869910E+00
 -1.51973982E+01  7.59869910E+00  7.59869910E+00 -1.51973982E+01  7.59869910E+00
  7.59869910E+00 -1.51973982E+01  7.59869910E+00  7.59869910E+00 -1.51973982E+01
  7.59869910E+00  7.59869910E+00 -1.51973982E+01  7.59869910E+00  7.59869910E+00
 -1.51973982E+01  7.59869910E+00  7.59869910E+00 -1.51973982E+01  7.59869910E+00
  7.59869910E+00 -1.51973982E+01  7.59869910E+00  7.59869910E+00 -1.51973982E+01
  7.59869910E+00  7.59869910E+00 -1.51973982E+01  7.59869910E+00  7.59869910E+00
 -1.51973982E+01  7.59869910E+00  7.59869910E+00 -1.51973982E+01  7.59869910E+00
  7.59869910E+00 -1.51973982E+01  7.59869910E+00  7.59869910E+00 -1.51973982E+01
  7.59869910E+00  7.59869910E+00 -1.51973982E+01  7.59869910E+00  7.59869910E+00
 -1.51973982E+01  7.59869910E+00  7.59869910E+00 -1.51973982E+01  7.59869910E+00
  7.59869910E+00 -1.51973982E+01  7.59869910E+00  7.59869910E+00 -1.51973982E+01
  7.59869910E+00  7.59869910E+00 -1.51973982E+01  7.59869910E+00  7.59869910E+00
 -1.51973982E+01  7.59869910E+00  7.59869910E+00 -1.51973982E+01  7.59869910E+00
  7.59869910E+00 -1.51973982E+01  7.59869910E+00  7.59869910E+00 -1.51973982E+01
  7.59869910E+00  7.59869910E+00 -1.51973982E+01  7.59869910E+00  7.59869910E+00
 -1.51973982E+01  7.59869910E+00  7.59869910E+00 -1.51973982E+01  7.59869910E+00
  7.59869910E+00 -1.51973982E+01  7.59869910E+00  7.59869910E+00 -1.51973982E+01
  7.59869910E+00  7.59869910E+00 -1.51973982E+01  7.59869910E+00  7.59869910E+00
 -1.51973982E+01  7.59869910E+00  7.59869910E+00 -1.51973982E+01  7.59869910E+00
  7.59869910E+00 -1.51973982E+01  7.59869910E+00  7.59869910E+00 -1.51973982E+01
  7.59869910E+00  7.59869910E+00 -1.51973982E+01  7.59869910E+00  7.59869910E+00
 -1.51973982E+01  7.59869910E+00  7.59869910E+00 -1.51973982E+01  7.59869910E+00
  7.59869910E+00 -1.51973982E+01  7.59869910E+00  7.59869910E+00 -1.51973982E+01
  7.59869910E+00  7.59869910E+00 -1.51973982E+01  7.59869910E+00  7.59869910E+00
 -1.51973982E+01  7.59869910E+00  7.59869910E+00 -1.51973982E+01  7.59869910E+00
  7.59869910E+00 -1.51973982E+01  7.59869910E+00  7.59869910E+00 -1.51973982E+01
  7.59869910E+00  7.59869910E+00 -1.51973982E+01  7.59869910E+00  7.59869910E+00
 -1.51973982E+01  7.59869910E+00  7.59869910E+00 -1.51973982E+01  7.59869910E+00
  7.59869910E+00 -1.51973982E+01  7.59869910E+00  7.59869910E+00 -1.51973982E+01
  7.59869910E+00  7.59869910E+00 -1.51973982E+01  7.59869910E+00  7.59869910E+00
 -1.51973982E+01  7.59869910E+00  7.59869910E+00 -1.51973982E+01  7.59869910E+00
  7.59869910E+00 -1.51973982E+01  7.59869910E+00  7.59869910E+00 -1.51973982E+01
  7.59869910E+00  7.59869910E+00 -1.51973982E+01  7.59869910E+00  7.59869910E+00
 -1.51973982E+01  7.59869910E+00  7.59869910E+00 -1.51973982E+01  7.59869910E+00
  7.59869910E+00 -1.51973982E+01  7.59869910E+00  7.59869910E+00 -1.51973982E+01
  7.59869910E+00  7.59869910E+00 -1.51973982E+01  7.59869910E+00  7.59869910E+00
 -1.51973982E+01  7.59869910E+00  7.59869910E+00 -1.51973982E+01  7.59869910E+00
  7.59869910E+00 -1.51973982E+01  7.59869910E+00  7.59869910E+00 -1.51973982E+01
  7.59869910E+00  7.59869910E+00 -1.51973982E+01  7.59869910E+00  7.59869910E+00
 -1.51973982E+01  7.59869910E+00  7.59869910E+00 -1.51973982E+01  7.59869910E+00
  7.59869910E+00 -1.51973982E+01  7.59869910E+00  7.59869910E+00 -1.51973982E+01
  7.59869910E+00  7.59869910E+00 -1.51973982E+01  7.59869910E+00  7.59869910E+00
 -1.51973982E+01  7.59869910E+00  7.59869910E+00 -1.51973982E+01  7.59869910E+00
  7.59869910E+00 -1.51973982E+01  7.59869910E+00  7.59869910E+00 -1.51973982E+01
  7.59869910E+00  7.59869910E+00 -1.51973982E+01  7.59869910E+00  7.59869910E+00
 -1.51973982E+01  7.59869910E+00  7.59869910E+00 -1.51973982E+01  7.59869910E+00
  7.59869910E+00 -1.51973982E+01  7.59869910E+00  7.59869910E+00 -1.51973982E+01
  7.59869910E+00  7.59869910E+00 -1.51973982E+01  7.59869910E+00  7.59869910E+00
 -1.51973982E+01  7.59869910E+00  7.59869910E+00 -1.51973982E+01  7.59869910E+00
  7.59869910E+00 -1.51973982E+01  7.59869910E+00  7.59869910E+00 -1.51973982E+01
  7.59869910E+00  7.59869910E+00 -1.51973982E+01  7.59869910E+00  7.59869910E+00
 -1.51973982E+01  7.59869910E+00  7.59869910E+00 -1.51973982E+01  7.59869910E+00
  7.59869910E+00 -1.51973982E+01  7.59869910E+00  7.59869910E+00 -1.51973982E+01
  7.59869910E+00  7.59869910E+00 -1.51973982E+01  7.59869910E+00  7.59869910E+00
 -1.51973982E+01  7.59869910E+00  7.59869910E+00 -1.51973982E+01  7.59869910E+00
  7.59869910E+00 -1.51973982E+01  7.59869910E+00  7.59869910E+00 -1.51973982E+01
  7.59869910E+00  7.59869910E+00 -1.51973982E+01  7.59869910E+00  7.59869910E+00
 -1.51973982E+01  7.59869910E+00  7.59869910E+00 -1.51973982E+01  7.59869910E+00
  7.59869910E+00 -1.51973982E+01  7.59869910E+00  7.59869910E+00 -1.51973982E+01
  7.59869910E+00  7.59869910E+00 -1.51973982E+01  7.59869910E+00  7.59869910E+00
 -1.51973982E+01  7.59869910E+00  7.59869910E+00 -1.51973982E+01  7.59869910E+00
  7.59869910E+00 -1.51973982E+01  7.59869910E+00  7.59869910E+00 -1.51973982E+01
  7.59869910E+00  7.59869910E+00 -1.51973982E+01  7.59869910E+00  7.59869910E+00
 -1.51973982E+01  7.59869910E+00  7.59869910E+00 -1.51973982E+01  7.59869910E+00
  7.59869910E+00 -1.51973982E+01  7.59869910E+00  7.59869910E+00 -1.51973982E+01
  7.59869910E+00  7.59869910E+00 -1.51973982E+01  7.59869910E+00  7.59869910E+00
 -1.51973982E+01  7.59869910E+00  7.59869910E+00 -1.51973982E+01  7.59869910E+00
  7.59869910E+00 -1.51973982E+01  7.59869910E+00  7.59869910E+00 -1.51973982E+01
  7.59869910E+00  7.59869910E+00 -1.51973982E+01  7.59869910E+00  7.59869910E+00
 -1.51973982E+01  7.59869910E+00  7.59869910E+00 -1.51973982E+01  7.59869910E+00
  7.59869910E+00 -1.51973982E+01  7.59869910E+00  7.59869910E+00 -1.51973982E+01
  7.59869910E+00  7.59869910E+00 -1.51973982E+01  7.59869910E+00  7.59869910E+00
 -1.51973982E+01  7.59869910E+00  7.59869910E+00 -1.51973982E+01  7.59869910E+00
  7.59869910E+00 -1.51973982E+01  7.59869910E+00  7.59869910E+00 -1.51973982E+01
  7.59869910E+00  7.59869910E+00 -1.51973982E+01  7.59869910E+00  7.59869910E+00
 -1.51973982E+01  7.59869910E+00  7.59869910E+00 -1.51973982E+01  7.59869910E+00
  7.59869910E+00 -1.51973982E+01  7.59869910E+00  7.59869910E+00 -1.51973982E+01
  7.59869910E+00  7.59869910E+00 -1.51973982E+01  7.59869910E+00  7.59869910E+00
 -1.51973982E+01  7.59869910E+00  7.59869910E+00 -1.51973982E+01  7.59869910E+00
  7.59869910E+00 -1.51973982E+01  7.59869910E+00  7.59869910E+00 -1.51973982E+01
  7.59869910E+00  7.59869910E+00 -1.51973982E+01  7.59869910E+00  7.59869910E+00
 -1.51973982E+01  7.59869910E+00  7.59869910E+00 -1.51973982E+01  7.59869910E+00
  7.59869910E+00 -1.51973982E+01  7.59869910E+00  7.59869910E+00 -1.51973982E+01
  7.59869910E+00  7.59869910E+00 -1.51973982E+01  7.59869910E+00  7.59869910E+00
 -1.51973982E+01  7.59869910E+00  7.59869910E+00 -1.51973982E+01  7.59869910E+00
  7.59869910E+00 -1.51973982E+01  7.59869910E+00  7.59869910E+00 -1.51973982E+01
  7.59869910E+00  7.59869910E+00 -1.51973982E+01  7.59869910E+00  7.59869910E+00
 -1.51973982E+01  7.59869910E+00  7.59869910E+00 -1.51973982E+01  7.59869910E+00
  7.59869910E+00 -1.51973982E+01  7.59869910E+00  7.59869910E+00 -1.51973982E+01
  7.59869910E+00  7.59869910E+00 -1.51973982E+01  7.59869910E+00  7.59869910E+00
 -1.51973982E+01  7.59869910E+00  7.59869910E+00 -1.51973982E+01  7.59869910E+00
  7.59869910E+00 -1.51973982E+01  7.59869910E+00  7.59869910E+00 -1.51973982E+01
  7.59869910E+00  7.59869910E+00 -1.51973982E+01  7.59869910E+00  7.59869910E+00
 -1.51973982E+01  7.59869910E+00  7.59869910E+00 -1.51973982E+01  7.59869910E+00
  7.59869910E+00 -1.51973982E+01  7.59869910E+00  7.59869910E+00 -1.51973982E+01
  7.59869910E+00  7.59869910E+00 -1.51973982E+01  7.59869910E+00  7.59869910E+00
 -1.51973982E+01  7.59869910E+00  7.59869910E+00 -1.51973982E+01  7.59869910E+00
  7.59869910E+00 -1.51973982E+01  7.59869910E+00  7.59869910E+00 -1.51973982E+01
  7.59869910E+00  7.59869910E+00 -1.51973982E+01  7.59869910E+00  7.59869910E+00
 -1.51973982E+01  7.59869910E+00  7.59869910E+00 -1.51973982E+01  7.59869910E+00
  7.59869910E+00 -1.51973982E+01  7.59869910E+00  7.59869910E+00 -1.51973982E+01
  7.59869910E+00  7.59869910E+00 -1.51973982E+01  7.59869910E+00  7.59869910E+00
 -1.51973982E+01  7.59869910E+00  7.59869910E+00 -1.51973982E+01  7.59869910E+00
  7.59869910E+00 -1.51973982E+01  7.59869910E+00  7.59869910E+00 -1.51973982E+01
  7.59869910E+00  7.59869910E+00 -1.51973982E+01  7.59869910E+00  7.59869910E+00
 -1.51973982E+01  7.59869910E+00  7.59869910E+00 -1.51973982E+01  7.59869910E+00
  7.59869910E+00 -1.51973982E+01  7.59869910E+00  7.59869910E+00 -1.51973982E+01
  7.59869910E+00  7.59869910E+00 -1.51973982E+01  7.59869910E+00  7.59869910E+00
 -1.51973982E+01  7.59869910E+00  7.59869910E+00 -1.51973982E+01  7.59869910E+00
  7.59869910E+00 -1.51973982E+01  7.59869910E+00  7.59869910E+00 -1.51973982E+01
  7.59869910E+00  7.59869910E+00 -1.51973982E+01  7.59869910E+00  7.59869910E+00
 -1.51973982E+01  7.59869910E+00  7.59869910E+00 -1.51973982E+01  7.59869910E+00
  7.59869910E+00 -1.51973982E+01  7.59869910E+00  7.59869910E+00 -1.51973982E+01
  7.59869910E+00  7.59869910E+00 -1.51973982E+01  7.59869910E+00  7.59869910E+00
 -1.51973982E+01  7.59869910E+00  7.59869910E+00 -1.51973982E+01  7.59869910E+00
  7.59869910E+00 -1.51973982E+01  7.59869910E+00  7.59869910E+00 -1.51973982E+01
  7.59869910E+00  7.59869910E+00 -1.51973982E+01  7.59869910E+00  7.59869910E+00
 -1.51973982E+01  7.59869910E+00  7.59869910E+00 -1.51973982E+01  7.59869910E+00
  7.59869910E+00 -1.51973982E+01  7.59869910E+00  7.59869910E+00 -1.51973982E+01
  7.59869910E+00  7.59869910E+00 -1.51973982E+01  7.59869910E+00  7.59869910E+00
 -1.51973982E+01  7.59869910E+00  7.59869910E+00 -1.51973982E+01  7.59869910E+00
  7.59869910E+00 -1.51973982E+01  7.59869910E+00  7.59869910E+00 -1.51973982E+01
  7.59869910E+00  7.59869910E+00 -1.51973982E+01  7.59869910E+00  7.59869910E+00
 -1.51973982E+01  7.59869910E+00  7.59869910E+00 -1.51973982E+01  7.59869910E+00
  7.59869910E+00 -1.51973982E+01  7.59869910E+00  7.59869910E+00 -1.51973982E+01
  7.59869910E+00  7.59869910E+00 -1.51973982E+01  7.59869910E+00  7.59869910E+00
 -1.51973982E+01  7.59869910E+00  7.59869910E+00 -1.51973982E+01  7.59869910E+00
  7.59869910E+00 -1.51973982E+01  7.59869910E+00  7.59869910E+00 -1.51973982E+01
  7.59869910E+00  7.59869910E+00 -1.51973982E+01  7.59869910E+00  7.59869910E+00
 -1.51973982E+01  7.59869910E+00  7.59869910E+00 -1.51973982E+01  7.59869910E+00
  7.59869910E+00 -1.51973982E+01  7.59869910E+00  7.59869910E+00 -1.51973982E+01
  7.59869910E+00  7.59869910E+00 -1.51973982E+01  7.59869910E+00  7.59869910E+00
 -1.51973982E+01  7.59869910E+00  7.59869910E+00 -1.51973982E+01  7.59869910E+00
  7.59869910E+00 -1.51973982E+01  7.59869910E+00  7.59869910E+00 -1.51973982E+01
  7.59869910E+00  7.59869910E+00 -1.51973982E+01  7.59869910E+00  7.59869910E+00
 -1.51973982E+01  7.59869910E+00  7.59869910E+00 -1.51973982E+01  7.59869910E+00
  7.59869910E+00 -1.51973982E+01  7.59869910E+00  7.59869910E+00 -1.51973982E+01
  7.59869910E+00  7.59869910E+00 -1.51973982E+01  7.59869910E+00  7.59869910E+00
 -1.51973982E+01  7.59869910E+00  7.59869910E+00 -1.51973982E+01  7.59869910E+00
  7.59869910E+00 -1.51973982E+01  7.59869910E+00  7.59869910E+00 -1.51973982E+01
  7.59869910E+00  7.59869910E+00 -1.51973982E+01  7.59869910E+00  7.59869910E+00
 -1.51973982E+01  7.59869910E+00  7.59869910E+00 -1.51973982E+01  7.59869910E+00
  7.59869910E+00 -1.51973982E+01  7.59869910E+00  7.59869910E+00 -1.51973982E+01
  7.59869910E+00  7.59869910E+00 -1.51973982E+01  7.59869910E+00  7.59869910E+00
 -1.51973982E+01  7.59869910E+00  7.59869910E+00 -1.51973982E+01  7.59869910E+00
  7.59869910E+00 -1.51973982E+01  7.59869910E+00  7.59869910E+00 -1.51973982E+01
  7.59869910E+00  7.59869910E+00 -1.51973982E+01  7.59869910E+00  7.59869910E+00
 -1.51973982E+01  7.59869910E+00  7.59869910E+00 -1.51973982E+01  7.59869910E+00
  7.59869910E+00 -1.51973982E+01  7.59869910E+00  7.59869910E+00 -1.51973982E+01
  7.59869910E+00  7.59869910E+00 -1.51973982E+01  7.59869910E+00  7.59869910E+00
 -1.51973982E+01  7.59869910E+00  7.59869910E+00 -1.51973982E+01  7.59869910E+00
  7.59869910E+00 -1.51973982E+01  7.59869910E+00  7.59869910E+00 -1.51973982E+01
  7.59869910E+00  7.59869910E+00 -1.51973982E+01  7.59869910E+00  7.59869910E+00
 -1.51973982E+01  7.59869910E+00  7.59869910E+00 -1.51973982E+01  7.59869910E+00
  7.59869910E+00 -1.51973982E+01  7.59869910E+00  7.59869910E+00 -1.51973982E+01
  7.59869910E+00  7.59869910E+00 -1.51973982E+01  7.59869910E+00  7.59869910E+00
 -1.51973982E+01  7.59869910E+00  7.59869910E+00 -1.51973982E+01  7.59869910E+00
  7.59869910E+00 -1.51973982E+01  7.59869910E+00  7.59869910E+00 -1.51973982E+01
  7.59869910E+00  7.59869910E+00 -1.51973982E+01  7.59869910E+00  7.59869910E+00
 -1.51973982E+01  7.59869910E+00  7.59869910E+00 -1.51973982E+01  7.59869910E+00
  7.59869910E+00 -1.51973982E+01  7.59869910E+00  7.59869910E+00 -1.51973982E+01
  7.59869910E+00  7.59869910E+00 -1.51973982E+01  7.59869910E+00  7.59869910E+00
 -1.51973982E+01  7.59869910E+00  7.59869910E+00 -1.51973982E+01  7.59869910E+00
  7.59869910E+00 -1.51973982E+01  7.59869910E+00  7.59869910E+00 -1.51973982E+01
  7.59869910E+00  7.59869910E+00 -1.51973982E+01  7.59869910E+00  7.59869910E+00
 -1.51973982E+01  7.59869910E+00  7.59869910E+00 -1.51973982E+01  7.59869910E+00
  7.59869910E+00 -1.51973982E+01  7.59869910E+00  7.59869910E+00 -1.51973982E+01
  7.59869910E+00  7.59869910E+00 -1.51973982E+01  7.59869910E+00  7.59869910E+00
 -1.51973982E+01  7.59869910E+00  7.59869910E+00 -1.51973982E+01  7.59869910E+00
  7.59869910E+00 -1.51973982E+01  7.59869910E+00  7.59869910E+00 -1.51973982E+01
  7.59869910E+00  7.59869910E+00 -1.51973982E+01  7.59869910E+00  7.59869910E+00
 -1.51973982E+01  7.59869910E+00  7.59869910E+00 -1.51973982E+01  7.59869910E+00
  7.59869910E+00 -1.51973982E+01  7.59869910E+00  7.59869910E+00 -1.51973982E+01
  7.59869910E+00  7.59869910E+00 -1.51973982E+01  7.59869910E+00  7.59869910E+00
 -1.51973982E+01  7.59869910E+00  7.59869910E+00 -1.51973982E+01  7.59869910E+00
  7.59869910E+00 -1.51973982E+01  7.59869910E+00  7.59869910E+00 -1.51973982E+01
  7.59869910E+00  7.59869910E+00 -1.51973982E+01  7.59869910E+00  7.59869910E+00
 -1.51973982E+01  7.59869910E+00  7.59869910E+00 -1.51973982E+01  7.59869910E+00
  7.59869910E+00 -1.51973982E+01  7.59869910E+00  7.59869910E+00 -1.51973982E+01
  7.59869910E+00  7.59869910E+00 -1.51973982E+01  7.59869910E+00  7.59869910E+00
 -1.51973982E+01  7.59869910E+00  7.59869910E+00 -1.51973982E+01  7.59869910E+00
  7.59869910E+00 -1.51973982E+01  7.59869910E+00  7.59869910E+00 -1.51973982E+01
  7.59869910E+00  7.59869910E+00 -1.51973982E+01  7.59869910E+00  7.59869910E+00
 -1.51973982E+01  7.59869910E+00  7.59869910E+00 -1.51973982E+01  7.59869910E+00
  7.59869910E+00 -1.51973982E+01  7.59869910E+00  7.59869910E+00 -1.51973982E+01
  7.59869910E+00  7.59869910E+00 -1.51973982E+01  7.59869910E+00  7.59869910E+00
 -1.51973982E+01  7.59869910E+00  7.59869910E+00 -1.51973982E+01  7.59869910E+00
  7.59869910E+00 -1.51973982E+01  7.59869910E+00  7.59869910E+00 -1.51973982E+01
  7.59869910E+00  7.59869910E+00 -1.51973982E+01  7.59869910E+00  7.59869910E+00
 -1.51973982E+01  7.59869910E+00  7.59869910E+00 -1.51973982E+01  7.59869910E+00
  7.59869910E+00 -1.51973982E+01  7.59869910E+00  7.59869910E+00 -1.51973982E+01
  7.59869910E+00  7.59869910E+00 -1.51973982E+01  7.59869910E+00  7.59869910E+00
 -1.51973982E+01  7.59869910E+00  7.59869910E+00 -1.51973982E+01  7.59869910E+00
  7.59869910E+00 -1.51973982E+01  7.59869910E+00  7.59869910E+00 -1.51973982E+01
  7.59869910E+00  7.59869910E+00 -1.51973982E+01  7.59869910E+00  7.59869910E+00
 -1.51973982E+01  7.59869910E+00  7.59869910E+00 -1.51973982E+01  7.59869910E+00
  7.59869910E+00 -1.51973982E+01  7.59869910E+00  7.59869910E+00 -1.51973982E+01
  7.59869910E+00  7.59869910E+00 -1.51973982E+01  7.59869910E+00  7.59869910E+00
 -1.51973982E+01  7.59869910E+00  7.59869910E+00 -1.51973982E+01  7.59869910E+00
  7.59869910E+00 -1.51973982E+01  7.59869910E+00  7.59869910E+00 -1.51973982E+01
  7.59869910E+00  7.59869910E+00 -1.51973982E+01  7.59869910E+00  7.59869910E+00
 -1.51973982E+01  7.59869910E+00  7.59869910E+00 -1.51973982E+01  7.59869910E+00
  7.59869910E+00 -1.51973982E+01  7.59869910E+00  7.59869910E+00 -1.51973982E+01
  7.59869910E+00  7.59869910E+00 -1.51973982E+01  7.59869910E+00  7.59869910E+00
 -1.51973982E+01  7.59869910E+00  7.59869910E+00 -1.51973982E+01  7.59869910E+00
  7.59869910E+00 -1.51973982E+01  7.59869910E+00  7.59869910E+00 -1.51973982E+01
  7.59869910E+00  7.59869910E+00 -1.51973982E+01  7.59869910E+00  7.59869910E+00
 -1.51973982E+01  7.59869910E+00  7.59869910E+00 -1.51973982E+01  7.59869910E+00
  7.59869910E+00 -1.51973982E+01  7.59869910E+00  7.59869910E+00 -1.51973982E+01
  7.59869910E+00  7.59869910E+00 -1.51973982E+01  7.59869910E+00  7.59869910E+00
 -1.51973982E+01  7.59869910E+00  7.59869910E+00 -1.51973982E+01  7.59869910E+00
  7.59869910E+00 -1.51973982E+01  7.59869910E+00  7.59869910E+00 -1.51973982E+01
  7.59869910E+00  7.59869910E+00 -1.51973982E+01  7.59869910E+00  7.59869910E+00
 -1.51973982E+01  7.59869910E+00  7.59869910E+00 -1.51973982E+01  7.59869910E+00
  7.59869910E+00 -1.51973982E+01  7.59869910E+00  7.59869910E+00 -1.51973982E+01
  7.59869910E+00  7.59869910E+00 -1.51973982E+01  7.59869910E+00  7.59869910E+00
 -1.51973982E+01  7.59869910E+00  7.59869910E+00 -1.51973982E+01  7.59869910E+00
  7.59869910E+00 -1.51973982E+01  7.59869910E+00  7.59869910E+00 -1.51973982E+01
  7.59869910E+00  7.59869910E+00 -1.51973982E+01  7.59869910E+00  7.59869910E+00
 -1.51973982E+01  7.59869910E+00  7.59869910E+00 -1.51973982E+01  7.59869910E+00
  7.59869910E+00 -1.51973982E+01  7.59869910E+00  7.59869910E+00 -1.51973982E+01
  7.59869910E+00  7.59869910E+00 -1.51973982E+01  7.59869910E+00  7.59869910E+00
 -1.51973982E+01  7.59869910E+00  7.59869910E+00 -1.51973982E+01  7.59869910E+00
  7.59869910E+00 -1.51973982E+01  7.59869910E+00  7.59869910E+00 -1.51973982E+01
  7.59869910E+00  7.59869910E+00 -1.51973982E+01  7.59869910E+00  7.59869910E+00
 -1.51973982E+01  7.59869910E+00  7.59869910E+00 -1.51973982E+01  7.59869910E+00
  7.59869910E+00 -1.51973982E+01  7.59869910E+00  7.59869910E+00 -1.51973982E+01
  7.59869910E+00  7.59869910E+00 -1.51973982E+01  7.59869910E+00  7.59869910E+00
 -1.51973982E+01  7.59869910E+00  7.59869910E+00 -1.51973982E+01  7.59869910E+00
  7.59869910E+00 -1.51973982E+01  7.59869910E+00  7.59869910E+00 -1.51973982E+01
  7.59869910E+00  7.59869910E+00 -1.51973982E+01  7.59869910E+00  7.59869910E+00
 -1.51973982E+01  7.59869910E+00  7.59869910E+00 -1.51973982E+01  7.59869910E+00
  7.59869910E+00 -1.51973982E+01  7.59869910E+00  7.59869910E+00 -1.51973982E+01
  7.59869910E+00  7.59869910E+00 -1.51973982E+01  7.59869910E+00  7.59869910E+00
 -1.51973982E+01  7.59869910E+00  7.59869910E+00 -1.51973982E+01  7.59869910E+00
  7.59869910E+00 -1.51973982E+01  7.59869910E+00  7.59869910E+00 -1.51973982E+01
  7.59869910E+00  7.59869910E+00 -1.51973982E+01  7.59869910E+00  7.59869910E+00
 -1.51973982E+01  7.59869910E+00  7.59869910E+00 -1.51973982E+01  7.59869910E+00
  7.59869910E+00 -1.51973982E+01  7.59869910E+00  7.59869910E+00 -1.51973982E+01
  7.59869910E+00  7.59869910E+00 -1.51973982E+01  7.59869910E+00  7.59869910E+00
 -1.51973982E+01  7.59869910E+00  7.59869910E+00 -1.51973982E+01  7.59869910E+00
  7.59869910E+00 -1.51973982E+01  7.59869910E+00  7.59869910E+00 -1.51973982E+01
  7.59869910E+00  7.59869910E+00 -1.51973982E+01  7.59869910E+00  7.59869910E+00
 -1.51973982E+01  7.59869910E+00  7.59869910E+00 -1.51973982E+01  7.59869910E+00
  7.59869910E+00 -1.51973982E+01  7.59869910E+00  7.59869910E+00 -1.51973982E+01
  7.59869910E+00  7.59869910E+00 -1.51973982E+01  7.59869910E+00  7.59869910E+00
 -1.51973982E+01  7.59869910E+00  7.59869910E+00 -1.51973982E+01  7.59869910E+00
  7.59869910E+00 -1.51973982E+01  7.59869910E+00  7.59869910E+00 -1.51973982E+01
  7.59869910E+00  7.59869910E+00 -1.51973982E+01  7.59869910E+00  7.59869910E+00
 -1.51973982E+01  7.59869910E+00  7.59869910E+00 -1.51973982E+01  7.59869910E+00
  7.59869910E+00 -1.51973982E+01  7.59869910E+00  7.59869910E+00 -1.51973982E+01
  7.59869910E+00  7.59869910E+00 -1.51973982E+01  7.59869910E+00  7.59869910E+00
 -1.51973982E+01  7.59869910E+00  7.59869910E+00 -1.51973982E+01  7.59869910E+00
  7.59869910E+00 -1.51973982E+01  7.59869910E+00  7.59869910E+00 -1.51973982E+01
  7.59869910E+00  7.59869910E+00 -1.51973982E+01  7.59869910E+00  7.59869910E+00
 -1.51973982E+01  7.59869910E+00  7.59869910E+00 -1.51973982E+01  7.59869910E+00
  7.59869910E+00 -1.51973982E+01  7.59869910E+00  7.59869910E+00 -1.51973982E+01
  7.59869910E+00  7.59869910E+00 -1.51973982E+01  7.59869910E+00  7.59869910E+00
 -1.51973982E+01  7.59869910E+00  7.59869910E+00 -1.51973982E+01  7.59869910E+00
  7.59869910E+00 -1.51973982E+01  7.59869910E+00  7.59869910E+00 -1.51973982E+01
  7.59869910E+00  7.59869910E+00 -1.51973982E+01  7.59869910E+00  7.59869910E+00
 -1.51973982E+01  7.59869910E+00  7.59869910E+00 -1.51973982E+01  7.59869910E+00
  7.59869910E+00 -1.51973982E+01  7.59869910E+00  7.59869910E+00 -1.51973982E+01
  7.59869910E+00  7.59869910E+00 -1.51973982E+01  7.59869910E+00  7.59869910E+00
 -1.51973982E+01  7.59869910E+00  7.59869910E+00 -1.51973982E+01  7.59869910E+00
  7.59869910E+00 -1.51973982E+01  7.59869910E+00  7.59869910E+00 -1.51973982E+01
  7.59869910E+00  7.59869910E+00 -1.51973982E+01  7.59869910E+00  7.59869910E+00
 -1.51973982E+01  7.59869910E+00  7.59869910E+00 -1.51973982E+01  7.59869910E+00
  7.59869910E+00 -1.51973982E+01  7.59869910E+00  7.59869910E+00 -1.51973982E+01
  7.59869910E+00  7.59869910E+00 -1.51973982E+01  7.59869910E+00  7.59869910E+00
 -1.51973982E+01  7.59869910E+00  7.59869910E+00 -1.51973982E+01  7.59869910E+00
  7.59869910E+00 -1.51973982E+01  7.59869910E+00  7.59869910E+00 -1.51973982E+01
  7.59869910E+00  7.59869910E+00 -1.51973982E+01  7.59869910E+00  7.59869910E+00
 -1.51973982E+01  7.59869910E+00  7.59869910E+00 -1.51973982E+01  7.59869910E+00
  7.59869910E+00 -1.51973982E+01  7.59869910E+00  7.59869910E+00 -1.51973982E+01
  7.59869910E+00  7.59869910E+00 -1.51973982E+01  7.59869910E+00  7.59869910E+00
 -1.51973982E+01  7.59869910E+00  7.59869910E+00 -1.51973982E+01  7.59869910E+00
  7.59869910E+00 -1.51973982E+01  7.59869910E+00  7.59869910E+00 -1.51973982E+01
  7.59869910E+00  7.59869910E+00 -1.51973982E+01  7.59869910E+00  7.59869910E+00
 -1.51973982E+01  7.59869910E+00  7.59869910E+00 -1.51973982E+01  7.59869910E+00
  7.59869910E+00 -1.51973982E+01  7.59869910E+00  7.59869910E+00 -1.51973982E+01
  7.59869910E+00  7.59869910E+00 -1.51973982E+01  7.59869910E+00  7.59869910E+00
 -1.51973982E+01  7.59869910E+00  7.59869910E+00 -1.51973982E+01  7.59869910E+00
  7.59869910E+00 -1.51973982E+01  7.59869910E+00  7.59869910E+00 -1.51973982E+01
  7.59869910E+00  7.59869910E+00 -1.51973982E+01  7.59869910E+00  7.59869910E+00
 -1.51973982E+01  7.59869910E+00  7.59869910E+00 -1.51973982E+01  7.59869910E+00
  7.59869910E+00 -1.51973982E+01  7.59869910E+00  7.59869910E+00 -1.51973982E+01
  7.59869910E+00  7.59869910E+00 -1.51973982E+01  7.59869910E+00  7.59869910E+00
 -1.51973982E+01  7.59869910E+00  7.59869910E+00 -1.51973982E+01  7.59869910E+00
  7.59869910E+00 -1.51973982E+01  7.59869910E+00  7.59869910E+00 -1.51973982E+01
  7.59869910E+00  7.59869910E+00 -1.51973982E+01  7.59869910E+00  7.59869910E+00
 -1.51973982E+01  7.59869910E+00  7.59869910E+00 -1.51973982E+01  7.59869910E+00
  7.59869910E+00 -1.51973982E+01  7.59869910E+00  7.59869910E+00 -1.51973982E+01
  7.59869910E+00  7.59869910E+00 -1.51973982E+01  7.59869910E+00  7.59869910E+00
 -1.51973982E+01  7.59869910E+00  7.59869910E+00 -1.51973982E+01  7.59869910E+00
  7.59869910E+00 -1.51973982E+01  7.59869910E+00  7.59869910E+00 -1.51973982E+01
  7.59869910E+00  7.59869910E+00 -1.51973982E+01  7.59869910E+00  7.59869910E+00
 -1.51973982E+01  7.59869910E+00  7.59869910E+00 -1.51973982E+01  7.59869910E+00
  7.59869910E+00 -1.51973982E+01  7.59869910E+00  7.59869910E+00 -1.51973982E+01
  7.59869910E+00  7.59869910E+00 -1.51973982E+01  7.59869910E+00  7.59869910E+00
 -1.51973982E+01  7.59869910E+00  7.59869910E+00 -1.51973982E+01  7.59869910E+00
  7.59869910E+00 -1.51973982E+01  7.59869910E+00  7.59869910E+00 -1.51973982E+01
  7.59869910E+00  7.59869910E+00 -1.51973982E+01  7.59869910E+00  7.59869910E+00
 -1.51973982E+01  7.59869910E+00  7.59869910E+00 -1.51973982E+01  7.59869910E+00
  7.59869910E+00 -1.51973982E+01  7.59869910E+00  7.59869910E+00 -1.51973982E+01
  7.59869910E+00  7.59869910E+00 -1.51973982E+01  7.59869910E+00  7.59869910E+00
 -1.51973982E+01  7.59869910E+00  7.59869910E+00 -1.51973982E+01  7.59869910E+00
  7.59869910E+00 -1.51973982E+01  7.59869910E+00  7.59869910E+00 -1.51973982E+01
  7.59869910E+00  7.59869910E+00 -1.51973982E+01  7.59869910E+00  7.59869910E+00
 -1.51973982E+01  7.59869910E+00  7.59869910E+00 -1.51973982E+01  7.59869910E+00
  7.59869910E+00 -1.51973982E+01  7.59869910E+00  7.59869910E+00 -1.51973982E+01
  7.59869910E+00  7.59869910E+00 -1.51973982E+01  7.59869910E+00  7.59869910E+00
 -1.51973982E+01  7.59869910E+00  7.59869910E+00 -1.51973982E+01  7.59869910E+00
  7.59869910E+00 -1.51973982E+01  7.59869910E+00  7.59869910E+00 -1.51973982E+01
  7.59869910E+00  7.59869910E+00 -1.51973982E+01  7.59869910E+00  7.59869910E+00
 -1.51973982E+01  7.59869910E+00  7.59869910E+00 -1.51973982E+01  7.59869910E+00
  7.59869910E+00 -1.51973982E+01  7.59869910E+00  7.59869910E+00 -1.51973982E+01
  7.59869910E+00  7.59869910E+00 -1.51973982E+01  7.59869910E+00  7.59869910E+00
 -1.51973982E+01  7.59869910E+00  7.59869910E+00 -1.51973982E+01  7.59869910E+00
  7.59869910E+00 -1.51973982E+01  7.59869910E+00  7.59869910E+00 -1.51973982E+01
  7.59869910E+00  7.59869910E+00 -1.51973982E+01  7.59869910E+00  7.59869910E+00
 -1.51973982E+01  7.59869910E+00  7.59869910E+00 -1.51973982E+01  7.59869910E+00
  7.59869910E+00 -1.51973982E+01  7.59869910E+00  7.59869910E+00 -1.51973982E+01
  7.59869910E+00  7.59869910E+00 -1.51973982E+01  7.59869910E+00  7.59869910E+00
 -1.51973982E+01  7.59869910E+00  7.59869910E+00 -1.51973982E+01  7.59869910E+00
  7.59869910E+00 -1.51973982E+01  7.59869910E+00  7.59869910E+00 -1.51973982E+01
  7.59869910E+00  7.59869910E+00 -1.51973982E+01  7.59869910E+00  7.59869910E+00
 -1.51973982E+01  7.59869910E+00  7.59869910E+00 -1.51973982E+01  7.59869910E+00
  7.59869910E+00 -1.51973982E+01  7.59869910E+00  7.59869910E+00 -1.51973982E+01
  7.59869910E+00  7.59869910E+00 -1.51973982E+01  7.59869910E+00  7.59869910E+00
 -1.51973982E+01  7.59869910E+00  7.59869910E+00 -1.51973982E+01  7.59869910E+00
  7.59869910E+00 -1.51973982E+01  7.59869910E+00  7.59869910E+00 -1.51973982E+01
  7.59869910E+00  7.59869910E+00 -1.51973982E+01  7.59869910E+00  7.59869910E+00
 -1.51973982E+01  7.59869910E+00  7.59869910E+00 -1.51973982E+01  7.59869910E+00
  7.59869910E+00 -1.51973982E+01  7.59869910E+00  7.59869910E+00 -1.51973982E+01
  7.59869910E+00  7.59869910E+00 -1.51973982E+01  7.59869910E+00  7.59869910E+00
 -1.51973982E+01  7.59869910E+00  7.59869910E+00 -1.51973982E+01  7.59869910E+00
  7.59869910E+00 -1.51973982E+01  7.59869910E+00  7.59869910E+00 -1.51973982E+01
  7.59869910E+00  7.59869910E+00 -1.51973982E+01  7.59869910E+00  7.59869910E+00
 -1.51973982E+01  7.59869910E+00  7.59869910E+00 -1.51973982E+01  7.59869910E+00
  7.59869910E+00 -1.51973982E+01  7.59869910E+00  7.59869910E+00 -1.51973982E+01
  7.59869910E+00  7.59869910E+00 -1.51973982E+01  7.59869910E+00  7.59869910E+00
 -1.51973982E+01  7.59869910E+00  7.59869910E+00 -1.51973982E+01  7.59869910E+00
  7.59869910E+00 -1.51973982E+01  7.59869910E+00  7.59869910E+00 -1.51973982E+01
  7.59869910E+00  7.59869910E+00 -1.51973982E+01  7.59869910E+00  7.59869910E+00
 -1.51973982E+01  7.59869910E+00  7.59869910E+00 -1.51973982E+01  7.59869910E+00
  7.59869910E+00 -1.51973982E+01  7.59869910E+00  7.59869910E+00 -1.51973982E+01
  7.59869910E+00  7.59869910E+00 -1.51973982E+01  7.59869910E+00  7.59869910E+00
 -1.51973982E+01  7.59869910E+00  7.59869910E+00 -1.51973982E+01  7.59869910E+00
  7.59869910E+00 -1.51973982E+01  7.59869910E+00  7.59869910E+00 -1.51973982E+01
  7.59869910E+00  7.59869910E+00 -1.51973982E+01  7.59869910E+00  7.59869910E+00
 -1.51973982E+01  7.59869910E+00  7.59869910E+00 -1.51973982E+01  7.59869910E+00
  7.59869910E+00 -1.51973982E+01  7.59869910E+00  7.59869910E+00 -1.51973982E+01
  7.59869910E+00  7.59869910E+00 -1.51973982E+01  7.59869910E+00  7.59869910E+00
 -1.51973982E+01  7.59869910E+00  7.59869910E+00 -1.51973982E+01  7.59869910E+00
  7.59869910E+00 -1.51973982E+01  7.59869910E+00  7.59869910E+00 -1.51973982E+01
  7.59869910E+00  7.59869910E+00 -1.51973982E+01  7.59869910E+00  7.59869910E+00
 -1.51973982E+01  7.59869910E+00  7.59869910E+00 -1.51973982E+01  7.59869910E+00
  7.59869910E+00 -1.51973982E+01  7.59869910E+00  7.59869910E+00 -1.51973982E+01
  7.59869910E+00  7.59869910E+00 -1.51973982E+01  7.59869910E+00  7.59869910E+00
 -1.51973982E+01  7.59869910E+00  7.59869910E+00 -1.51973982E+01  7.59869910E+00
  7.59869910E+00 -1.51973982E+01  7.59869910E+00  7.59869910E+00 -1.51973982E+01
  7.59869910E+00  7.59869910E+00 -1.51973982E+01  7.59869910E+00  7.59869910E+00
 -1.51973982E+01  7.59869910E+00  7.59869910E+00 -1.51973982E+01  7.59869910E+00
  7.59869910E+00 -1.51973982E+01  7.59869910E+00  7.59869910E+00 -1.51973982E+01
  7.59869910E+00  7.59869910E+00 -1.51973982E+01  7.59869910E+00  7.59869910E+00
 -1.51973982E+01  7.59869910E+00  7.59869910E+00 -1.51973982E+01  7.59869910E+00
  7.59869910E+00 -1.51973982E+01  7.59869910E+00  7.59869910E+00 -1.51973982E+01
  7.59869910E+00  7.59869910E+00 -1.51973982E+01  7.59869910E+00  7.59869910E+00
 -1.51973982E+01  7.59869910E+00  7.59869910E+00 -1.51973982E+01  7.59869910E+00
  7.59869910E+00 -1.51973982E+01  7.59869910E+00  7.59869910E+00 -1.51973982E+01
  7.59869910E+00  7.59869910E+00 -1.51973982E+01  7.59869910E+00  7.59869910E+00
 -1.51973982E+01  7.59869910E+00  7.59869910E+00 -1.51973982E+01  7.59869910E+00
  7.59869910E+00 -1.51973982E+01  7.59869910E+00  7.59869910E+00 -1.51973982E+01
  7.59869910E+00  7.59869910E+00 -1.51973982E+01  7.59869910E+00  7.59869910E+00
 -1.51973982E+01  7.59869910E+00  7.59869910E+00 -1.51973982E+01  7.59869910E+00
  7.59869910E+00 -1.51973982E+01  7.59869910E+00  7.59869910E+00 -1.51973982E+01
  7.59869910E+00  7.59869910E+00 -1.51973982E+01  7.59869910E+00  7.59869910E+00
 -1.51973982E+01  7.59869910E+00  7.59869910E+00 -1.51973982E+01  7.59869910E+00
  7.59869910E+00 -1.51973982E+01  7.59869910E+00  7.59869910E+00 -1.51973982E+01
  7.59869910E+00  7.59869910E+00 -1.51973982E+01  7.59869910E+00  7.59869910E+00
 -1.51973982E+01  7.59869910E+00  7.59869910E+00 -1.51973982E+01  7.59869910E+00
  7.59869910E+00 -1.51973982E+01  7.59869910E+00  7.59869910E+00 -1.51973982E+01
  7.59869910E+00  7.59869910E+00 -1.51973982E+01  7.59869910E+00  7.59869910E+00
 -1.51973982E+01  7.59869910E+00  7.59869910E+00 -1.51973982E+01  7.59869910E+00
  7.59869910E+00 -1.51973982E+01  7.59869910E+00  7.59869910E+00 -1.51973982E+01
  7.59869910E+00  7.59869910E+00 -1.51973982E+01  7.59869910E+00  7.59869910E+00
 -1.51973982E+01  7.59869910E+00  7.59869910E+00 -1.51973982E+01  7.59869910E+00
  7.59869910E+00 -1.51973982E+01  7.59869910E+00  7.59869910E+00 -1.51973982E+01
  7.59869910E+00  7.59869910E+00 -1.51973982E+01  7.59869910E+00  7.59869910E+00
 -1.51973982E+01  7.59869910E+00  7.59869910E+00 -1.51973982E+01  7.59869910E+00
  7.59869910E+00 -1.51973982E+01  7.59869910E+00  7.59869910E+00 -1.51973982E+01
  7.59869910E+00  7.59869910E+00 -1.51973982E+01  7.59869910E+00  7.59869910E+00
 -1.51973982E+01  7.59869910E+00  7.59869910E+00 -1.51973982E+01  7.59869910E+00
  7.59869910E+00 -1.51973982E+01  7.59869910E+00  7.59869910E+00 -1.51973982E+01
  7.59869910E+00  7.59869910E+00 -1.51973982E+01  7.59869910E+00  7.59869910E+00
 -1.51973982E+01  7.59869910E+00  7.59869910E+00 -1.51973982E+01  7.59869910E+00
  7.59869910E+00 -1.51973982E+01  7.59869910E+00  7.59869910E+00 -1.51973982E+01
  7.59869910E+00  7.59869910E+00 -1.51973982E+01  7.59869910E+00  7.59869910E+00
 -1.51973982E+01  7.59869910E+00  7.59869910E+00 -1.51973982E+01  7.59869910E+00
  7.59869910E+00 -1.51973982E+01  7.59869910E+00  7.59869910E+00 -1.51973982E+01
  7.59869910E+00  7.59869910E+00 -1.51973982E+01  7.59869910E+00  7.59869910E+00
 -1.51973982E+01  7.59869910E+00  7.59869910E+00 -1.51973982E+01  7.59869910E+00
  7.59869910E+00 -1.51973982E+01  7.59869910E+00  7.59869910E+00 -1.51973982E+01
  7.59869910E+00  7.59869910E+00 -1.51973982E+01  7.59869910E+00  7.59869910E+00
 -1.51973982E+01  7.59869910E+00  7.59869910E+00 -1.51973982E+01  7.59869910E+00
  7.59869910E+00 -1.51973982E+01  7.59869910E+00  7.59869910E+00 -1.51973982E+01
  7.59869910E+00  7.59869910E+00 -1.51973982E+01  7.59869910E+00  7.59869910E+00
 -1.51973982E+01  7.59869910E+00  7.59869910E+00 -1.51973982E+01  7.59869910E+00
  7.59869910E+00 -1.51973982E+01  7.59869910E+00  7.59869910E+00 -1.51973982E+01
  7.59869910E+00  7.59869910E+00 -1.51973982E+01  7.59869910E+00  7.59869910E+00
 -1.51973982E+01  7.59869910E+00  7.59869910E+00 -1.51973982E+01  7.59869910E+00
  7.59869910E+00 -1.51973982E+01  7.59869910E+00  7.59869910E+00 -1.51973982E+01
  7.59869910E+00  7.59869910E+00 -1.51973982E+01  7.59869910E+00  7.59869910E+00
 -1.51973982E+01  7.59869910E+00  7.59869910E+00 -1.51973982E+01  7.59869910E+00
  7.59869910E+00 -1.51973982E+01  7.59869910E+00  7.59869910E+00 -1.51973982E+01
  7.59869910E+00  7.59869910E+00 -1.51973982E+01  7.59869910E+00  7.59869910E+00
 -1.51973982E+01  7.59869910E+00  7.59869910E+00 -1.51973982E+01  7.59869910E+00
  7.59869910E+00 -1.51973982E+01  7.59869910E+00  7.59869910E+00 -1.51973982E+01
  7.59869910E+00  7.59869910E+00 -1.51973982E+01  7.59869910E+00  7.59869910E+00
 -1.51973982E+01  7.59869910E+00  7.59869910E+00 -1.51973982E+01  7.59869910E+00
  7.59869910E+00 -1.51973982E+01  7.59869910E+00  7.59869910E+00 -1.51973982E+01
  7.59869910E+00  7.59869910E+00 -1.51973982E+01  7.59869910E+00  7.59869910E+00
 -1.51973982E+01  7.59869910E+00  7.59869910E+00 -1.51973982E+01  7.59869910E+00
  7.59869910E+00 -1.51973982E+01  7.59869910E+00  7.59869910E+00 -1.51973982E+01
  7.59869910E+00  7.59869910E+00 -1.51973982E+01  7.59869910E+00  7.59869910E+00
 -1.51973982E+01  7.59869910E+00  7.59869910E+00 -1.51973982E+01  7.59869910E+00
  7.59869910E+00 -1.51973982E+01  7.59869910E+00  7.59869910E+00 -1.51973982E+01
  7.59869910E+00  7.59869910E+00 -1.51973982E+01  7.59869910E+00  7.59869910E+00
 -1.51973982E+01  7.59869910E+00  7.59869910E+00 -1.51973982E+01  7.59869910E+00
  7.59869910E+00 -1.51973982E+01  7.59869910E+00  7.59869910E+00 -1.51973982E+01
  7.59869910E+00  7.59869910E+00 -1.51973982E+01  7.59869910E+00  7.59869910E+00
 -1.51973982E+01  7.59869910E+00  7.59869910E+00 -1.51973982E+01  7.59869910E+00
  7.59869910E+00 -1.51973982E+01  7.59869910E+00  7.59869910E+00 -1.51973982E+01
  7.59869910E+00  7.59869910E+00 -1.51973982E+01  7.59869910E+00  7.59869910E+00
 -1.51973982E+01  7.59869910E+00  7.59869910E+00 -1.51973982E+01  7.59869910E+00
  7.59869910E+00 -1.51973982E+01  7.59869910E+00  7.59869910E+00 -1.51973982E+01
  7.59869910E+00  7.59869910E+00 -1.51973982E+01  7.59869910E+00  7.59869910E+00
 -1.51973982E+01  7.59869910E+00  7.59869910E+00 -1.51973982E+01  7.59869910E+00
  7.59869910E+00 -1.51973982E+01  7.59869910E+00  7.59869910E+00 -1.51973982E+01
  7.59869910E+00  7.59869910E+00 -1.51973982E+01  7.59869910E+00  7.59869910E+00
 -1.51973982E+01  7.59869910E+00  7.59869910E+00 -1.51973982E+01  7.59869910E+00
  7.59869910E+00 -1.51973982E+01  7.59869910E+00  7.59869910E+00 -1.51973982E+01
  7.59869910E+00  7.59869910E+00 -1.51973982E+01  7.59869910E+00  7.59869910E+00
 -1.51973982E+01  7.59869910E+00  7.59869910E+00 -1.51973982E+01  7.59869910E+00
  7.59869910E+00 -1.51973982E+01  7.59869910E+00  7.59869910E+00 -1.51973982E+01
  7.59869910E+00  7.59869910E+00 -1.51973982E+01  7.59869910E+00  7.59869910E+00
 -1.51973982E+01  7.59869910E+00  7.59869910E+00 -1.51973982E+01  7.59869910E+00
  7.59869910E+00 -1.51973982E+01  7.59869910E+00  7.59869910E+00 -1.51973982E+01
  7.59869910E+00  7.59869910E+00 -1.51973982E+01  7.59869910E+00  7.59869910E+00
 -1.51973982E+01  7.59869910E+00  7.59869910E+00 -1.51973982E+01  7.59869910E+00
  7.59869910E+00 -1.51973982E+01  7.59869910E+00  7.59869910E+00 -1.51973982E+01
  7.59869910E+00  7.59869910E+00 -1.51973982E+01  7.59869910E+00  7.59869910E+00
 -1.51973982E+01  7.59869910E+00  7.59869910E+00 -1.51973982E+01  7.59869910E+00
  7.59869910E+00 -1.51973982E+01  7.59869910E+00  7.59869910E+00 -1.51973982E+01
  7.59869910E+00  7.59869910E+00 -1.51973982E+01  7.59869910E+00  7.59869910E+00
 -1.51973982E+01  7.59869910E+00  7.59869910E+00 -1.51973982E+01  7.59869910E+00
  7.59869910E+00 -1.51973982E+01  7.59869910E+00  7.59869910E+00 -1.51973982E+01
  7.59869910E+00  7.59869910E+00 -1.51973982E+01  7.59869910E+00  7.59869910E+00
 -1.51973982E+01  7.59869910E+00  7.59869910E+00 -1.51973982E+01  7.59869910E+00
  7.59869910E+00 -1.51973982E+01  7.59869910E+00  7.59869910E+00 -1.51973982E+01
  7.59869910E+00  7.59869910E+00 -1.51973982E+01  7.59869910E+00  7.59869910E+00
 -1.51973982E+01  7.59869910E+00  7.59869910E+00 -1.51973982E+01  7.59869910E+00
  7.59869910E+00 -1.51973982E+01  7.59869910E+00  7.59869910E+00 -1.51973982E+01
  7.59869910E+00  7.59869910E+00 -1.51973982E+01  7.59869910E+00  7.59869910E+00
 -1.51973982E+01  7.59869910E+00  7.59869910E+00 -1.51973982E+01  7.59869910E+00
  7.59869910E+00 -1.51973982E+01  7.59869910E+00  7.59869910E+00 -1.51973982E+01
  7.59869910E+00  7.59869910E+00 -1.51973982E+01  7.59869910E+00  7.59869910E+00
 -1.51973982E+01  7.59869910E+00  7.59869910E+00 -1.51973982E+01  7.59869910E+00
  7.59869910E+00 -1.51973982E+01  7.59869910E+00  7.59869910E+00 -1.51973982E+01
  7.59869910E+00  7.59869910E+00 -1.51973982E+01  7.59869910E+00  7.59869910E+00
 -1.51973982E+01  7.59869910E+00  7.59869910E+00 -1.51973982E+01  7.59869910E+00
  7.59869910E+00 -1.51973982E+01  7.59869910E+00  7.59869910E+00 -1.51973982E+01
  7.59869910E+00  7.59869910E+00 -1.51973982E+01  7.59869910E+00  7.59869910E+00
 -1.51973982E+01  7.59869910E+00  7.59869910E+00 -1.51973982E+01  7.59869910E+00
  7.59869910E+00 -1.51973982E+01  7.59869910E+00  7.59869910E+00 -1.51973982E+01
  7.59869910E+00  7.59869910E+00 -1.51973982E+01  7.59869910E+00  7.59869910E+00
 -1.51973982E+01  7.59869910E+00  7.59869910E+00 -1.51973982E+01  7.59869910E+00
  7.59869910E+00 -1.51973982E+01  7.59869910E+00  7.59869910E+00 -1.51973982E+01
  7.59869910E+00  7.59869910E+00 -1.51973982E+01  7.59869910E+00  7.59869910E+00
 -1.51973982E+01  7.59869910E+00  7.59869910E+00 -1.51973982E+01  7.59869910E+00
  7.59869910E+00 -1.51973982E+01  7.59869910E+00  7.59869910E+00 -1.51973982E+01
  7.59869910E+00  7.59869910E+00 -1.51973982E+01  7.59869910E+00  7.59869910E+00
 -1.51973982E+01  7.59869910E+00  7.59869910E+00 -1.51973982E+01  7.59869910E+00
  7.59869910E+00 -1.51973982E+01  7.59869910E+00  7.59869910E+00 -1.51973982E+01
  7.59869910E+00  7.59869910E+00 -1.51973982E+01  7.59869910E+00  7.59869910E+00
 -1.51973982E+01  7.59869910E+00  7.59869910E+00 -1.51973982E+01  7.59869910E+00
  7.59869910E+00 -1.51973982E+01  7.59869910E+00  7.59869910E+00 -1.51973982E+01
  7.59869910E+00  7.59869910E+00 -1.51973982E+01  7.59869910E+00  7.59869910E+00
 -1.51973982E+01  7.59869910E+00  7.59869910E+00 -1.51973982E+01  7.59869910E+00
  7.59869910E+00 -1.51973982E+01  7.59869910E+00  7.59869910E+00 -1.51973982E+01
  7.59869910E+00  7.59869910E+00 -1.51973982E+01  7.59869910E+00  7.59869910E+00
 -1.51973982E+01  7.59869910E+00  7.59869910E+00 -1.51973982E+01  7.59869910E+00
  7.59869910E+00 -1.51973982E+01  7.59869910E+00  7.59869910E+00 -1.51973982E+01
  7.59869910E+00  7.59869910E+00 -1.51973982E+01  7.59869910E+00  7.59869910E+00
 -1.51973982E+01  7.59869910E+00  7.59869910E+00 -1.51973982E+01  7.59869910E+00
  7.59869910E+00 -1.51973982E+01  7.59869910E+00  7.59869910E+00 -1.51973982E+01
  7.59869910E+00  7.59869910E+00 -1.51973982E+01  7.59869910E+00  7.59869910E+00
 -1.51973982E+01  7.59869910E+00  7.59869910E+00 -1.51973982E+01  7.59869910E+00
  7.59869910E+00 -1.51973982E+01  7.59869910E+00  7.59869910E+00 -1.51973982E+01
  7.59869910E+00  7.59869910E+00 -1.51973982E+01  7.59869910E+00  7.59869910E+00
 -1.51973982E+01  7.59869910E+00  7.59869910E+00 -1.51973982E+01  7.59869910E+00
  7.59869910E+00 -1.51973982E+01  7.59869910E+00  7.59869910E+00 -1.51973982E+01
  7.59869910E+00  7.59869910E+00 -1.51973982E+01  7.59869910E+00  7.59869910E+00
 -1.51973982E+01  7.59869910E+00  7.59869910E+00 -1.51973982E+01  7.59869910E+00
  7.59869910E+00 -1.51973982E+01  7.59869910E+00  7.59869910E+00 -1.51973982E+01
  7.59869910E+00  7.59869910E+00 -1.51973982E+01  7.59869910E+00  7.59869910E+00
 -1.51973982E+01  7.59869910E+00  7.59869910E+00 -1.51973982E+01  7.59869910E+00
  7.59869910E+00 -1.51973982E+01  7.59869910E+00  7.59869910E+00 -1.51973982E+01
  7.59869910E+00  7.59869910E+00 -1.51973982E+01  7.59869910E+00  7.59869910E+00
 -1.51973982E+01  7.59869910E+00  7.59869910E+00 -1.51973982E+01  7.59869910E+00
  7.59869910E+00 -1.51973982E+01  7.59869910E+00  7.59869910E+00 -1.51973982E+01
  7.59869910E+00  7.59869910E+00 -1.51973982E+01  7.59869910E+00  7.59869910E+00
 -1.51973982E+01  7.59869910E+00  7.59869910E+00 -1.51973982E+01  7.59869910E+00
  7.59869910E+00 -1.51973982E+01  7.59869910E+00  7.59869910E+00 -1.51973982E+01
  7.59869910E+00  7.59869910E+00 -1.51973982E+01  7.59869910E+00  7.59869910E+00
 -1.51973982E+01  7.59869910E+00  7.59869910E+00 -1.51973982E+01  7.59869910E+00
  7.59869910E+00 -1.51973982E+01  7.59869910E+00  7.59869910E+00 -1.51973982E+01
  7.59869910E+00  7.59869910E+00 -1.51973982E+01  7.59869910E+00  7.59869910E+00
 -1.51973982E+01  7.59869910E+00  7.59869910E+00 -1.51973982E+01  7.59869910E+00
  7.59869910E+00 -1.51973982E+01  7.59869910E+00  7.59869910E+00 -1.51973982E+01
  7.59869910E+00  7.59869910E+00 -1.51973982E+01  7.59869910E+00  7.59869910E+00
 -1.51973982E+01  7.59869910E+00  7.59869910E+00 -1.51973982E+01  7.59869910E+00
  7.59869910E+00 -1.51973982E+01  7.59869910E+00  7.59869910E+00 -1.51973982E+01
  7.59869910E+00  7.59869910E+00 -1.51973982E+01  7.59869910E+00  7.59869910E+00
 -1.51973982E+01  7.59869910E+00  7.59869910E+00 -1.51973982E+01  7.59869910E+00
  7.59869910E+00 -1.51973982E+01  7.59869910E+00  7.59869910E+00 -1.51973982E+01
  7.59869910E+00  7.59869910E+00 -1.51973982E+01  7.59869910E+00  7.59869910E+00
 -1.51973982E+01  7.59869910E+00  7.59869910E+00 -1.51973982E+01  7.59869910E+00
  7.59869910E+00 -1.51973982E+01  7.59869910E+00  7.59869910E+00 -1.51973982E+01
  7.59869910E+00  7.59869910E+00 -1.51973982E+01  7.59869910E+00  7.59869910E+00
 -1.51973982E+01  7.59869910E+00  7.59869910E+00 -1.51973982E+01  7.59869910E+00
  7.59869910E+00 -1.51973982E+01  7.59869910E+00  7.59869910E+00 -1.51973982E+01
  7.59869910E+00  7.59869910E+00 -1.51973982E+01  7.59869910E+00  7.59869910E+00
 -1.51973982E+01  7.59869910E+00  7.59869910E+00 -1.51973982E+01  7.59869910E+00
  7.59869910E+00 -1.51973982E+01  7.59869910E+00  7.59869910E+00 -1.51973982E+01
  7.59869910E+00  7.59869910E+00 -1.51973982E+01  7.59869910E+00  7.59869910E+00
 -1.51973982E+01  7.59869910E+00  7.59869910E+00 -1.51973982E+01  7.59869910E+00
  7.59869910E+00 -1.51973982E+01  7.59869910E+00  7.59869910E+00 -1.51973982E+01
  7.59869910E+00  7.59869910E+00 -1.51973982E+01  7.59869910E+00  7.59869910E+00
 -1.51973982E+01  7.59869910E+00  7.59869910E+00 -1.51973982E+01  7.59869910E+00
  7.59869910E+00 -1.51973982E+01  7.59869910E+00  7.59869910E+00 -1.51973982E+01
  7.59869910E+00  7.59869910E+00 -1.51973982E+01  7.59869910E+00  7.59869910E+00
 -1.51973982E+01  7.59869910E+00  7.59869910E+00 -1.51973982E+01  7.59869910E+00
  7.59869910E+00 -1.51973982E+01  7.59869910E+00  7.59869910E+00 -1.51973982E+01
  7.59869910E+00  7.59869910E+00 -1.51973982E+01  7.59869910E+00  7.59869910E+00
 -1.51973982E+01  7.59869910E+00  7.59869910E+00 -1.51973982E+01  7.59869910E+00
  7.59869910E+00 -1.51973982E+01  7.59869910E+00  7.59869910E+00 -1.51973982E+01
  7.59869910E+00  7.59869910E+00 -1.51973982E+01  7.59869910E+00  7.59869910E+00
 -1.51973982E+01  7.59869910E+00  7.59869910E+00 -1.51973982E+01  7.59869910E+00
  7.59869910E+00 -1.51973982E+01  7.59869910E+00  7.59869910E+00 -1.51973982E+01
  7.59869910E+00  7.59869910E+00 -1.51973982E+01  7.59869910E+00  7.59869910E+00
 -1.51973982E+01  7.59869910E+00  7.59869910E+00 -1.51973982E+01  7.59869910E+00
  7.59869910E+00 -1.51973982E+01  7.59869910E+00  7.59869910E+00 -1.51973982E+01
  7.59869910E+00  7.59869910E+00 -1.51973982E+01  7.59869910E+00  7.59869910E+00
 -1.51973982E+01  7.59869910E+00  7.59869910E+00 -1.51973982E+01  7.59869910E+00
  7.59869910E+00 -1.51973982E+01  7.59869910E+00  7.59869910E+00 -1.51973982E+01
  7.59869910E+00  7.59869910E+00 -1.51973982E+01  7.59869910E+00  7.59869910E+00
 -1.51973982E+01  7.59869910E+00  7.59869910E+00 -1.51973982E+01  7.59869910E+00
  7.59869910E+00 -1.51973982E+01  7.59869910E+00  7.59869910E+00 -1.51973982E+01
  7.59869910E+00  7.59869910E+00 -1.51973982E+01  7.59869910E+00  7.59869910E+00
 -1.51973982E+01  7.59869910E+00  7.59869910E+00 -1.51973982E+01  7.59869910E+00
  7.59869910E+00 -1.51973982E+01  7.59869910E+00  7.59869910E+00 -1.51973982E+01
  7.59869910E+00  7.59869910E+00 -1.51973982E+01  7.59869910E+00  7.59869910E+00
 -1.51973982E+01  7.59869910E+00  7.59869910E+00 -1.51973982E+01  7.59869910E+00
  7.59869910E+00 -1.51973982E+01  7.59869910E+00  7.59869910E+00 -1.51973982E+01
  7.59869910E+00  7.59869910E+00 -1.51973982E+01  7.59869910E+00  7.59869910E+00
 -1.51973982E+01  7.59869910E+00  7.59869910E+00 -1.51973982E+01  7.59869910E+00
  7.59869910E+00 -1.51973982E+01  7.59869910E+00  7.59869910E+00 -1.51973982E+01
  7.59869910E+00  7.59869910E+00 -1.51973982E+01  7.59869910E+00  7.59869910E+00
 -1.51973982E+01  7.59869910E+00  7.59869910E+00 -1.51973982E+01  7.59869910E+00
  7.59869910E+00 -1.51973982E+01  7.59869910E+00  7.59869910E+00 -1.51973982E+01
  7.59869910E+00  7.59869910E+00 -1.51973982E+01  7.59869910E+00  7.59869910E+00
 -1.51973982E+01  7.59869910E+00  7.59869910E+00 -1.51973982E+01  7.59869910E+00
  7.59869910E+00 -1.51973982E+01  7.59869910E+00  7.59869910E+00 -1.51973982E+01
  7.59869910E+00  7.59869910E+00 -1.51973982E+01  7.59869910E+00  7.59869910E+00
 -1.51973982E+01  7.59869910E+00  7.59869910E+00 -1.51973982E+01  7.59869910E+00
  7.59869910E+00 -1.51973982E+01  7.59869910E+00  7.59869910E+00 -1.51973982E+01
  7.59869910E+00  7.59869910E+00 -1.51973982E+01  7.59869910E+00  7.59869910E+00
 -1.51973982E+01  7.59869910E+00  7.59869910E+00 -1.51973982E+01  7.59869910E+00
  7.59869910E+00 -1.51973982E+01  7.59869910E+00  7.59869910E+00 -1.51973982E+01
  7.59869910E+00  7.59869910E+00 -1.51973982E+01  7.59869910E+00  7.59869910E+00
 -1.51973982E+01  7.59869910E+00  7.59869910E+00 -1.51973982E+01  7.59869910E+00
  7.59869910E+00 -1.51973982E+01  7.59869910E+00  7.59869910E+00 -1.51973982E+01
  7.59869910E+00  7.59869910E+00 -1.51973982E+01  7.59869910E+00  7.59869910E+00
 -1.51973982E+01  7.59869910E+00  7.59869910E+00 -1.51973982E+01  7.59869910E+00
  7.59869910E+00 -1.51973982E+01  7.59869910E+00  7.59869910E+00 -1.51973982E+01
  7.59869910E+00  7.59869910E+00 -1.51973982E+01  7.59869910E+00  7.59869910E+00
 -1.51973982E+01  7.59869910E+00  7.59869910E+00 -1.51973982E+01  7.59869910E+00
  7.59869910E+00 -1.51973982E+01  7.59869910E+00  7.59869910E+00 -1.51973982E+01
  7.59869910E+00  7.59869910E+00 -1.51973982E+01  7.59869910E+00  7.59869910E+00
 -1.51973982E+01  7.59869910E+00  7.59869910E+00 -1.51973982E+01  7.59869910E+00
  7.59869910E+00 -1.51973982E+01  7.59869910E+00  7.59869910E+00 -1.51973982E+01
  7.59869910E+00  7.59869910E+00 -1.51973982E+01  7.59869910E+00  7.59869910E+00
 -1.51973982E+01  7.59869910E+00  7.59869910E+00 -1.51973982E+01  7.59869910E+00
  7.59869910E+00 -1.51973982E+01  7.59869910E+00  7.59869910E+00 -1.51973982E+01
  7.59869910E+00  7.59869910E+00 -1.51973982E+01  7.59869910E+00  7.59869910E+00
 -1.51973982E+01  7.59869910E+00  7.59869910E+00 -1.51973982E+01  7.59869910E+00
  7.59869910E+00 -1.51973982E+01  7.59869910E+00  7.59869910E+00 -1.51973982E+01
  7.59869910E+00  7.59869910E+00 -1.51973982E+01  7.59869910E+00  7.59869910E+00
 -1.51973982E+01  7.59869910E+00  7.59869910E+00 -1.51973982E+01  7.59869910E+00
  7.59869910E+00 -1.51973982E+01  7.59869910E+00  7.59869910E+00 -1.51973982E+01
  7.59869910E+00  7.59869910E+00 -1.51973982E+01  7.59869910E+00  7.59869910E+00
 -1.51973982E+01  7.59869910E+00  7.59869910E+00 -1.51973982E+01  7.59869910E+00
  7.59869910E+00 -1.51973982E+01  7.59869910E+00  7.59869910E+00 -1.51973982E+01
  7.59869910E+00  7.59869910E+00 -1.51973982E+01  7.59869910E+00  7.59869910E+00
 -1.51973982E+01  7.59869910E+00  7.59869910E+00 -1.51973982E+01  7.59869910E+00
  7.59869910E+00 -1.51973982E+01  7.59869910E+00  7.59869910E+00 -1.51973982E+01
  7.59869910E+00  7.59869910E+00 -1.51973982E+01  7.59869910E+00  7.59869910E+00
 -1.51973982E+01  7.59869910E+00  7.59869910E+00 -1.51973982E+01  7.59869910E+00
  7.59869910E+00 -1.51973982E+01  7.59869910E+00  7.59869910E+00 -1.51973982E+01
  7.59869910E+00  7.59869910E+00 -1.51973982E+01  7.59869910E+00  7.59869910E+00
 -1.51973982E+01  7.59869910E+00  7.59869910E+00 -1.51973982E+01  7.59869910E+00
  7.59869910E+00 -1.51973982E+01  7.59869910E+00  7.59869910E+00 -1.51973982E+01
  7.59869910E+00  7.59869910E+00 -1.51973982E+01  7.59869910E+00  7.59869910E+00
 -1.51973982E+01  7.59869910E+00  7.59869910E+00 -1.51973982E+01  7.59869910E+00
  7.59869910E+00 -1.51973982E+01  7.59869910E+00  7.59869910E+00 -1.51973982E+01
  7.59869910E+00  7.59869910E+00 -1.51973982E+01  7.59869910E+00  7.59869910E+00
 -1.51973982E+01  7.59869910E+00  7.59869910E+00 -1.51973982E+01  7.59869910E+00
  7.59869910E+00 -1.51973982E+01  7.59869910E+00  7.59869910E+00 -1.51973982E+01
  7.59869910E+00  7.59869910E+00 -1.51973982E+01  7.59869910E+00  7.59869910E+00
 -1.51973982E+01  7.59869910E+00  7.59869910E+00 -1.51973982E+01  7.59869910E+00
  7.59869910E+00 -1.51973982E+01  7.59869910E+00  7.59869910E+00 -1.51973982E+01
  7.59869910E+00  7.59869910E+00 -1.51973982E+01  7.59869910E+00  7.59869910E+00
 -1.51973982E+01  7.59869910E+00  7.59869910E+00 -1.51973982E+01  7.59869910E+00
  7.59869910E+00 -1.51973982E+01  7.59869910E+00  7.59869910E+00 -1.51973982E+01
  7.59869910E+00  7.59869910E+00 -1.51973982E+01  7.59869910E+00  7.59869910E+00
 -1.51973982E+01  7.59869910E+00  7.59869910E+00 -1.51973982E+01  7.59869910E+00
  7.59869910E+00 -1.51973982E+01  7.59869910E+00  7.59869910E+00 -1.51973982E+01
  7.59869910E+00  7.59869910E+00 -1.51973982E+01  7.59869910E+00  7.59869910E+00
 -1.51973982E+01  7.59869910E+00  7.59869910E+00 -1.51973982E+01  7.59869910E+00
  7.59869910E+00 -1.51973982E+01  7.59869910E+00  7.59869910E+00 -1.51973982E+01
  7.59869910E+00  7.59869910E+00 -1.51973982E+01  7.59869910E+00  7.59869910E+00
 -1.51973982E+01  7.59869910E+00  7.59869910E+00 -1.51973982E+01  7.59869910E+00
  7.59869910E+00 -1.51973982E+01  7.59869910E+00  7.59869910E+00 -1.51973982E+01
  7.59869910E+00  7.59869910E+00 -1.51973982E+01  7.59869910E+00  7.59869910E+00
 -1.51973982E+01  7.59869910E+00  7.59869910E+00 -1.51973982E+01  7.59869910E+00
  7.59869910E+00 -1.51973982E+01  7.59869910E+00  7.59869910E+00 -1.51973982E+01
  7.59869910E+00  7.59869910E+00 -1.51973982E+01  7.59869910E+00  7.59869910E+00
 -1.51973982E+01  7.59869910E+00  7.59869910E+00 -1.51973982E+01  7.59869910E+00
  7.59869910E+00 -1.51973982E+01  7.59869910E+00  7.59869910E+00 -1.51973982E+01
  7.59869910E+00  7.59869910E+00 -1.51973982E+01  7.59869910E+00  7.59869910E+00
 -1.51973982E+01  7.59869910E+00  7.59869910E+00 -1.51973982E+01  7.59869910E+00
  7.59869910E+00 -1.51973982E+01  7.59869910E+00  7.59869910E+00 -1.51973982E+01
  7.59869910E+00  7.59869910E+00 -1.51973982E+01  7.59869910E+00  7.59869910E+00
 -1.51973982E+01  7.59869910E+00  7.59869910E+00 -1.51973982E+01  7.59869910E+00
  7.59869910E+00 -1.51973982E+01  7.59869910E+00  7.59869910E+00 -1.51973982E+01
  7.59869910E+00  7.59869910E+00 -1.51973982E+01  7.59869910E+00  7.59869910E+00
 -1.51973982E+01  7.59869910E+00  7.59869910E+00 -1.51973982E+01  7.59869910E+00
  7.59869910E+00 -1.51973982E+01  7.59869910E+00  7.59869910E+00 -1.51973982E+01
  7.59869910E+00  7.59869910E+00 -1.51973982E+01  7.59869910E+00  7.59869910E+00
 -1.51973982E+01  7.59869910E+00  7.59869910E+00 -1.51973982E+01  7.59869910E+00
  7.59869910E+00 -1.51973982E+01  7.59869910E+00  7.59869910E+00 -1.51973982E+01
  7.59869910E+00  7.59869910E+00 -1.51973982E+01  7.59869910E+00  7.59869910E+00
 -1.51973982E+01  7.59869910E+00  7.59869910E+00 -1.51973982E+01  7.59869910E+00
  7.59869910E+00 -1.51973982E+01  7.59869910E+00  7.59869910E+00 -1.51973982E+01
  7.59869910E+00  7.59869910E+00 -1.51973982E+01  7.59869910E+00  7.59869910E+00
 -1.51973982E+01  7.59869910E+00  7.59869910E+00 -1.51973982E+01  7.59869910E+00
  7.59869910E+00 -1.51973982E+01  7.59869910E+00  7.59869910E+00 -1.51973982E+01
  7.59869910E+00  7.59869910E+00 -1.51973982E+01  7.59869910E+00  7.59869910E+00
 -1.51973982E+01  7.59869910E+00  7.59869910E+00 -1.51973982E+01  7.59869910E+00
  7.59869910E+00 -1.51973982E+01  7.59869910E+00  7.59869910E+00 -1.51973982E+01
  7.59869910E+00  7.59869910E+00 -1.51973982E+01  7.59869910E+00  7.59869910E+00
 -1.51973982E+01  7.59869910E+00  7.59869910E+00 -1.51973982E+01  7.59869910E+00
  7.59869910E+00 -1.51973982E+01  7.59869910E+00  7.59869910E+00 -1.51973982E+01
  7.59869910E+00  7.59869910E+00 -1.51973982E+01  7.59869910E+00  7.59869910E+00
 -1.51973982E+01  7.59869910E+00  7.59869910E+00 -1.51973982E+01  7.59869910E+00
  7.59869910E+00 -1.51973982E+01  7.59869910E+00  7.59869910E+00 -1.51973982E+01
  7.59869910E+00  7.59869910E+00 -1.51973982E+01  7.59869910E+00  7.59869910E+00
 -1.51973982E+01  7.59869910E+00  7.59869910E+00 -1.51973982E+01  7.59869910E+00
  7.59869910E+00 -1.51973982E+01  7.59869910E+00  7.59869910E+00 -1.51973982E+01
  7.59869910E+00  7.59869910E+00 -1.51973982E+01  7.59869910E+00  7.59869910E+00
 -1.51973982E+01  7.59869910E+00  7.59869910E+00 -1.51973982E+01  7.59869910E+00
  7.59869910E+00 -1.51973982E+01  7.59869910E+00  7.59869910E+00 -1.51973982E+01
  7.59869910E+00  7.59869910E+00 -1.51973982E+01  7.59869910E+00  7.59869910E+00
 -1.51973982E+01  7.59869910E+00  7.59869910E+00 -1.51973982E+01  7.59869910E+00
  7.59869910E+00 -1.51973982E+01  7.59869910E+00  7.59869910E+00 -1.51973982E+01
  7.59869910E+00  7.59869910E+00 -1.51973982E+01  7.59869910E+00  7.59869910E+00
 -1.51973982E+01  7.59869910E+00  7.59869910E+00 -1.51973982E+01  7.59869910E+00
  7.59869910E+00 -1.51973982E+01  7.59869910E+00  7.59869910E+00 -1.51973982E+01
  7.59869910E+00  7.59869910E+00 -1.51973982E+01  7.59869910E+00  7.59869910E+00
 -1.51973982E+01  7.59869910E+00  7.59869910E+00 -1.51973982E+01  7.59869910E+00
  7.59869910E+00 -1.51973982E+01  7.59869910E+00  7.59869910E+00 -1.51973982E+01
  7.59869910E+00  7.59869910E+00 -1.51973982E+01  7.59869910E+00  7.59869910E+00
 -1.51973982E+01  7.59869910E+00  7.59869910E+00 -1.51973982E+01  7.59869910E+00
  7.59869910E+00 -1.51973982E+01  7.59869910E+00  7.59869910E+00 -1.51973982E+01
  7.59869910E+00  7.59869910E+00 -1.51973982E+01  7.59869910E+00  7.59869910E+00
 -1.51973982E+01  7.59869910E+00  7.59869910E+00 -1.51973982E+01  7.59869910E+00
  7.59869910E+00 -1.51973982E+01  7.59869910E+00  7.59869910E+00 -1.51973982E+01
  7.59869910E+00  7.59869910E+00 -1.51973982E+01  7.59869910E+00  7.59869910E+00
 -1.51973982E+01  7.59869910E+00  7.59869910E+00 -1.51973982E+01  7.59869910E+00
  7.59869910E+00 -1.51973982E+01  7.59869910E+00  7.59869910E+00 -1.51973982E+01
  7.59869910E+00  7.59869910E+00 -1.51973982E+01  7.59869910E+00  7.59869910E+00
 -1.51973982E+01  7.59869910E+00  7.59869910E+00 -1.51973982E+01  7.59869910E+00
  7.59869910E+00 -1.51973982E+01  7.59869910E+00  7.59869910E+00 -1.51973982E+01
  7.59869910E+00  7.59869910E+00 -1.51973982E+01  7.59869910E+00  7.59869910E+00
 -1.51973982E+01  7.59869910E+00  7.59869910E+00 -1.51973982E+01  7.59869910E+00
  7.59869910E+00 -1.51973982E+01  7.59869910E+00  7.59869910E+00 -1.51973982E+01
  7.59869910E+00  7.59869910E+00 -1.51973982E+01  7.59869910E+00  7.59869910E+00
 -1.51973982E+01  7.59869910E+00  7.59869910E+00 -1.51973982E+01  7.59869910E+00
  7.59869910E+00 -1.51973982E+01  7.59869910E+00  7.59869910E+00 -1.51973982E+01
  7.59869910E+00  7.59869910E+00 -1.51973982E+01  7.59869910E+00  7.59869910E+00
 -1.51973982E+01  7.59869910E+00  7.59869910E+00 -1.51973982E+01  7.59869910E+00
  7.59869910E+00 -1.51973982E+01  7.59869910E+00  7.59869910E+00 -1.51973982E+01
  7.59869910E+00  7.59869910E+00 -1.51973982E+01  7.59869910E+00  7.59869910E+00
 -1.51973982E+01  7.59869910E+00  7.59869910E+00 -1.51973982E+01  7.59869910E+00
  7.59869910E+00 -1.51973982E+01  7.59869910E+00  7.59869910E+00 -1.51973982E+01
  7.59869910E+00  7.59869910E+00 -1.51973982E+01  7.59869910E+00  7.59869910E+00
 -1.51973982E+01  7.59869910E+00  7.59869910E+00 -1.51973982E+01  7.59869910E+00
  7.59869910E+00 -1.51973982E+01  7.59869910E+00  7.59869910E+00 -1.51973982E+01
  7.59869910E+00  7.59869910E+00 -1.51973982E+01  7.59869910E+00  7.59869910E+00
 -1.51973982E+01  7.59869910E+00  7.59869910E+00 -1.51973982E+01  7.59869910E+00
  7.59869910E+00 -1.51973982E+01  7.59869910E+00  7.59869910E+00 -1.51973982E+01
  7.59869910E+00  7.59869910E+00 -1.51973982E+01  7.59869910E+00  7.59869910E+00
 -1.51973982E+01  7.59869910E+00  7.59869910E+00 -1.51973982E+01  7.59869910E+00
  7.59869910E+00 -1.51973982E+01  7.59869910E+00  7.59869910E+00 -1.51973982E+01
  7.59869910E+00  7.59869910E+00 -1.51973982E+01  7.59869910E+00  7.59869910E+00
 -1.51973982E+01  7.59869910E+00  7.59869910E+00 -1.51973982E+01  7.59869910E+00
  7.59869910E+00 -1.51973982E+01  7.59869910E+00  7.59869910E+00 -1.51973982E+01
  7.59869910E+00  7.59869910E+00 -1.51973982E+01  7.59869910E+00  7.59869910E+00
 -1.51973982E+01  7.59869910E+00  7.59869910E+00 -1.51973982E+01  7.59869910E+00
  7.59869910E+00 -1.51973982E+01  7.59869910E+00  7.59869910E+00 -1.51973982E+01
  7.59869910E+00  7.59869910E+00 -1.51973982E+01  7.59869910E+00  7.59869910E+00
 -1.51973982E+01  7.59869910E+00  7.59869910E+00 -1.51973982E+01  7.59869910E+00
  7.59869910E+00 -1.51973982E+01  7.59869910E+00  7.59869910E+00 -1.51973982E+01
  7.59869910E+00  7.59869910E+00 -1.51973982E+01  7.59869910E+00  7.59869910E+00
 -1.51973982E+01  7.59869910E+00  7.59869910E+00 -1.51973982E+01  7.59869910E+00
  7.59869910E+00 -1.51973982E+01  7.59869910E+00  7.59869910E+00 -1.51973982E+01
  7.59869910E+00  7.59869910E+00 -1.51973982E+01  7.59869910E+00  7.59869910E+00
 -1.51973982E+01  7.59869910E+00  7.59869910E+00 -1.51973982E+01  7.59869910E+00
  7.59869910E+00 -1.51973982E+01  7.59869910E+00  7.59869910E+00 -1.51973982E+01
  7.59869910E+00  7.59869910E+00 -1.51973982E+01  7.59869910E+00  7.59869910E+00
 -1.51973982E+01  7.59869910E+00  7.59869910E+00 -1.51973982E+01  7.59869910E+00
  7.59869910E+00 -1.51973982E+01  7.59869910E+00  7.59869910E+00 -1.51973982E+01
  7.59869910E+00  7.59869910E+00 -1.51973982E+01  7.59869910E+00  7.59869910E+00
 -1.51973982E+01  7.59869910E+00  7.59869910E+00 -1.51973982E+01  7.59869910E+00
  7.59869910E+00 -1.51973982E+01  7.59869910E+00  7.59869910E+00 -1.51973982E+01
  7.59869910E+00  7.59869910E+00 -1.51973982E+01  7.59869910E+00  7.59869910E+00
 -1.51973982E+01  7.59869910E+00  7.59869910E+00 -1.51973982E+01  7.59869910E+00
  7.59869910E+00 -1.51973982E+01  7.59869910E+00  7.59869910E+00 -1.51973982E+01
  7.59869910E+00  7.59869910E+00 -1.51973982E+01  7.59869910E+00  7.59869910E+00
 -1.51973982E+01  7.59869910E+00  7.59869910E+00 -1.51973982E+01  7.59869910E+00
  7.59869910E+00 -1.51973982E+01  7.59869910E+00  7.59869910E+00 -1.51973982E+01
  7.59869910E+00  7.59869910E+00 -1.51973982E+01  7.59869910E+00  7.59869910E+00
 -1.51973982E+01  7.59869910E+00  7.59869910E+00 -1.51973982E+01  7.59869910E+00
  7.59869910E+00 -1.51973982E+01  7.59869910E+00  7.59869910E+00 -1.51973982E+01
  7.59869910E+00  7.59869910E+00 -1.51973982E+01  7.59869910E+00  7.59869910E+00
 -1.51973982E+01  7.59869910E+00  7.59869910E+00 -1.51973982E+01  7.59869910E+00
  7.59869910E+00 -1.51973982E+01  7.59869910E+00  7.59869910E+00 -1.51973982E+01
  7.59869910E+00  7.59869910E+00 -1.51973982E+01  7.59869910E+00  7.59869910E+00
 -1.51973982E+01  7.59869910E+00  7.59869910E+00 -1.51973982E+01  7.59869910E+00
  7.59869910E+00 -1.51973982E+01  7.59869910E+00  7.59869910E+00 -1.51973982E+01
  7.59869910E+00  7.59869910E+00 -1.51973982E+01  7.59869910E+00  7.59869910E+00
 -1.51973982E+01  7.59869910E+00  7.59869910E+00 -1.51973982E+01  7.59869910E+00
  7.59869910E+00 -1.51973982E+01  7.59869910E+00  7.59869910E+00 -1.51973982E+01
  7.59869910E+00  7.59869910E+00 -1.51973982E+01  7.59869910E+00  7.59869910E+00
 -1.51973982E+01  7.59869910E+00  7.59869910E+00 -1.51973982E+01  7.59869910E+00
  7.59869910E+00 -1.51973982E+01  7.59869910E+00  7.59869910E+00 -1.51973982E+01
  7.59869910E+00  7.59869910E+00 -1.51973982E+01  7.59869910E+00  7.59869910E+00
 -1.51973982E+01  7.59869910E+00  7.59869910E+00 -1.51973982E+01  7.59869910E+00
  7.59869910E+00 -1.51973982E+01  7.59869910E+00  7.59869910E+00 -1.51973982E+01
  7.59869910E+00  7.59869910E+00 -1.51973982E+01  7.59869910E+00  7.59869910E+00
 -1.51973982E+01  7.59869910E+00  7.59869910E+00 -1.51973982E+01  7.59869910E+00
  7.59869910E+00 -1.51973982E+01  7.59869910E+00  7.59869910E+00 -1.51973982E+01
  7.59869910E+00  7.59869910E+00 -1.51973982E+01  7.59869910E+00  7.59869910E+00
 -1.51973982E+01  7.59869910E+00  7.59869910E+00 -1.51973982E+01  7.59869910E+00
  7.59869910E+00 -1.51973982E+01  7.59869910E+00  7.59869910E+00 -1.51973982E+01
  7.59869910E+00  7.59869910E+00 -1.51973982E+01  7.59869910E+00  7.59869910E+00
 -1.51973982E+01  7.59869910E+00  7.59869910E+00 -1.51973982E+01  7.59869910E+00
  7.59869910E+00 -1.51973982E+01  7.59869910E+00  7.59869910E+00 -1.51973982E+01
  7.59869910E+00  7.59869910E+00 -1.51973982E+01  7.59869910E+00  7.59869910E+00
 -1.51973982E+01  7.59869910E+00  7.59869910E+00 -1.51973982E+01  7.59869910E+00
  7.59869910E+00 -1.51973982E+01  7.59869910E+00  7.59869910E+00 -1.51973982E+01
  7.59869910E+00  7.59869910E+00 -1.51973982E+01  7.59869910E+00  7.59869910E+00
 -1.51973982E+01  7.59869910E+00  7.59869910E+00 -1.51973982E+01  7.59869910E+00
  7.59869910E+00 -1.51973982E+01  7.59869910E+00  7.59869910E+00 -1.51973982E+01
  7.59869910E+00  7.59869910E+00 -1.51973982E+01  7.59869910E+00  7.59869910E+00
 -1.51973982E+01  7.59869910E+00  7.59869910E+00 -1.51973982E+01  7.59869910E+00
  7.59869910E+00 -1.51973982E+01  7.59869910E+00  7.59869910E+00 -1.51973982E+01
  7.59869910E+00  7.59869910E+00 -1.51973982E+01  7.59869910E+00  7.59869910E+00
 -1.51973982E+01  7.59869910E+00  7.59869910E+00 -1.51973982E+01  7.59869910E+00
  7.59869910E+00 -1.51973982E+01  7.59869910E+00  7.59869910E+00 -1.51973982E+01
  7.59869910E+00  7.59869910E+00 -1.51973982E+01  7.59869910E+00  7.59869910E+00
 -1.51973982E+01  7.59869910E+00  7.59869910E+00 -1.51973982E+01  7.59869910E+00
  7.59869910E+00 -1.51973982E+01  7.59869910E+00  7.59869910E+00 -1.51973982E+01
  7.59869910E+00  7.59869910E+00 -1.51973982E+01  7.59869910E+00  7.59869910E+00
 -1.51973982E+01  7.59869910E+00  7.59869910E+00 -1.51973982E+01  7.59869910E+00
  7.59869910E+00 -1.51973982E+01  7.59869910E+00  7.59869910E+00 -1.51973982E+01
  7.59869910E+00  7.59869910E+00 -1.51973982E+01  7.59869910E+00  7.59869910E+00
 -1.51973982E+01  7.59869910E+00  7.59869910E+00 -1.51973982E+01  7.59869910E+00
  7.59869910E+00 -1.51973982E+01  7.59869910E+00  7.59869910E+00 -1.51973982E+01
  7.59869910E+00  7.59869910E+00 -1.51973982E+01  7.59869910E+00  7.59869910E+00
 -1.51973982E+01  7.59869910E+00  7.59869910E+00 -1.51973982E+01  7.59869910E+00
  7.59869910E+00 -1.51973982E+01  7.59869910E+00  7.59869910E+00 -1.51973982E+01
  7.59869910E+00  7.59869910E+00 -1.51973982E+01  7.59869910E+00  7.59869910E+00
 -1.51973982E+01  7.59869910E+00  7.59869910E+00 -1.51973982E+01  7.59869910E+00
  7.59869910E+00 -1.51973982E+01  7.59869910E+00  7.59869910E+00 -1.51973982E+01
  7.59869910E+00  7.59869910E+00 -1.51973982E+01  7.59869910E+00  7.59869910E+00
 -1.51973982E+01  7.59869910E+00  7.59869910E+00 -1.51973982E+01  7.59869910E+00
  7.59869910E+00 -1.51973982E+01  7.59869910E+00  7.59869910E+00 -1.51973982E+01
  7.59869910E+00  7.59869910E+00 -1.51973982E+01  7.59869910E+00  7.59869910E+00
 -1.51973982E+01  7.59869910E+00  7.59869910E+00 -1.51973982E+01  7.59869910E+00
  7.59869910E+00 -1.51973982E+01  7.59869910E+00  7.59869910E+00 -1.51973982E+01
  7.59869910E+00  7.59869910E+00 -1.51973982E+01  7.59869910E+00  7.59869910E+00
 -1.51973982E+01  7.59869910E+00  7.59869910E+00 -1.51973982E+01  7.59869910E+00
  7.59869910E+00 -1.51973982E+01  7.59869910E+00  7.59869910E+00 -1.51973982E+01
  7.59869910E+00  7.59869910E+00 -1.51973982E+01  7.59869910E+00  7.59869910E+00
 -1.51973982E+01  7.59869910E+00  7.59869910E+00 -1.51973982E+01  7.59869910E+00
  7.59869910E+00 -1.51973982E+01  7.59869910E+00  7.59869910E+00 -1.51973982E+01
  7.59869910E+00  7.59869910E+00 -1.51973982E+01  7.59869910E+00  7.59869910E+00
 -1.51973982E+01  7.59869910E+00  7.59869910E+00 -1.51973982E+01  7.59869910E+00
  7.59869910E+00 -1.51973982E+01  7.59869910E+00  7.59869910E+00 -1.51973982E+01
  7.59869910E+00  7.59869910E+00 -1.51973982E+01  7.59869910E+00  7.59869910E+00
 -1.51973982E+01  7.59869910E+00  7.59869910E+00 -1.51973982E+01  7.59869910E+00
  7.59869910E+00 -1.51973982E+01  7.59869910E+00  7.59869910E+00 -1.51973982E+01
  7.59869910E+00  7.59869910E+00 -1.51973982E+01  7.59869910E+00  7.59869910E+00
 -1.51973982E+01  7.59869910E+00  7.59869910E+00 -1.51973982E+01  7.59869910E+00
  7.59869910E+00 -1.51973982E+01  7.59869910E+00  7.59869910E+00 -1.51973982E+01
  7.59869910E+00  7.59869910E+00 -1.51973982E+01  7.59869910E+00  7.59869910E+00
 -1.51973982E+01  7.59869910E+00  7.59869910E+00 -1.51973982E+01  7.59869910E+00
  7.59869910E+00 -1.51973982E+01  7.59869910E+00  7.59869910E+00 -1.51973982E+01
  7.59869910E+00  7.59869910E+00 -1.51973982E+01  7.59869910E+00  7.59869910E+00
 -1.51973982E+01  7.59869910E+00  7.59869910E+00 -1.51973982E+01  7.59869910E+00
  7.59869910E+00 -1.51973982E+01  7.59869910E+00  7.59869910E+00 -1.51973982E+01
  7.59869910E+00  7.59869910E+00 -1.51973982E+01  7.59869910E+00  7.59869910E+00
 -1.51973982E+01  7.59869910E+00  7.59869910E+00 -1.51973982E+01  7.59869910E+00
  7.59869910E+00 -1.51973982E+01  7.59869910E+00  7.59869910E+00 -1.51973982E+01
  7.59869910E+00  7.59869910E+00 -1.51973982E+01  7.59869910E+00  7.59869910E+00
 -1.51973982E+01  7.59869910E+00  7.59869910E+00 -1.51973982E+01  7.59869910E+00
  7.59869910E+00 -1.51973982E+01  7.59869910E+00  7.59869910E+00 -1.51973982E+01
  7.59869910E+00  7.59869910E+00 -1.51973982E+01  7.59869910E+00  7.59869910E+00
 -1.51973982E+01  7.59869910E+00  7.59869910E+00 -1.51973982E+01  7.59869910E+00
  7.59869910E+00 -1.51973982E+01  7.59869910E+00  7.59869910E+00 -1.51973982E+01
  7.59869910E+00  7.59869910E+00 -1.51973982E+01  7.59869910E+00  7.59869910E+00
 -1.51973982E+01  7.59869910E+00  7.59869910E+00 -1.51973982E+01  7.59869910E+00
  7.59869910E+00 -1.51973982E+01  7.59869910E+00  7.59869910E+00 -1.51973982E+01
  7.59869910E+00  7.59869910E+00 -1.51973982E+01  7.59869910E+00  7.59869910E+00
 -1.51973982E+01  7.59869910E+00  7.59869910E+00 -1.51973982E+01  7.59869910E+00
  7.59869910E+00 -1.51973982E+01  7.59869910E+00  7.59869910E+00 -1.51973982E+01
  7.59869910E+00  7.59869910E+00 -1.51973982E+01  7.59869910E+00  7.59869910E+00
 -1.51973982E+01  7.59869910E+00  7.59869910E+00 -1.51973982E+01  7.59869910E+00
  7.59869910E+00 -1.51973982E+01  7.59869910E+00  7.59869910E+00 -1.51973982E+01
  7.59869910E+00  7.59869910E+00 -1.51973982E+01  7.59869910E+00  7.59869910E+00
 -1.51973982E+01  7.59869910E+00  7.59869910E+00 -1.51973982E+01  7.59869910E+00
  7.59869910E+00 -1.51973982E+01  7.59869910E+00  7.59869910E+00 -1.51973982E+01
  7.59869910E+00  7.59869910E+00 -1.51973982E+01  7.59869910E+00  7.59869910E+00
 -1.51973982E+01  7.59869910E+00  7.59869910E+00 -1.51973982E+01  7.59869910E+00
  7.59869910E+00 -1.51973982E+01  7.59869910E+00  7.59869910E+00 -1.51973982E+01
  7.59869910E+00  7.59869910E+00 -1.51973982E+01  7.59869910E+00  7.59869910E+00
 -1.51973982E+01  7.59869910E+00  7.59869910E+00 -1.51973982E+01  7.59869910E+00
  7.59869910E+00 -1.51973982E+01  7.59869910E+00  7.59869910E+00 -1.51973982E+01
  7.59869910E+00  7.59869910E+00 -1.51973982E+01  7.59869910E+00  7.59869910E+00
 -1.51973982E+01  7.59869910E+00  7.59869910E+00 -1.51973982E+01  7.59869910E+00
  7.59869910E+00 -1.51973982E+01  7.59869910E+00  7.59869910E+00 -1.51973982E+01
  7.59869910E+00  7.59869910E+00 -1.51973982E+01  7.59869910E+00  7.59869910E+00
 -1.51973982E+01  7.59869910E+00  7.59869910E+00 -1.51973982E+01  7.59869910E+00
  7.59869910E+00 -1.51973982E+01  7.59869910E+00  7.59869910E+00 -1.51973982E+01
  7.59869910E+00  7.59869910E+00 -1.51973982E+01  7.59869910E+00  7.59869910E+00
 -1.51973982E+01  7.59869910E+00  7.59869910E+00 -1.51973982E+01  7.59869910E+00
  7.59869910E+00 -1.51973982E+01  7.59869910E+00  7.59869910E+00 -1.51973982E+01
  7.59869910E+00  7.59869910E+00 -1.51973982E+01  7.59869910E+00  7.59869910E+00
 -1.51973982E+01  7.59869910E+00  7.59869910E+00 -1.51973982E+01  7.59869910E+00
  7.59869910E+00 -1.51973982E+01  7.59869910E+00  7.59869910E+00 -1.51973982E+01
  7.59869910E+00  7.59869910E+00 -1.51973982E+01  7.59869910E+00  7.59869910E+00
 -1.51973982E+01  7.59869910E+00  7.59869910E+00 -1.51973982E+01  7.59869910E+00
  7.59869910E+00 -1.51973982E+01  7.59869910E+00  7.59869910E+00 -1.51973982E+01
  7.59869910E+00  7.59869910E+00 -1.51973982E+01  7.59869910E+00  7.59869910E+00
 -1.51973982E+01  7.59869910E+00  7.59869910E+00 -1.51973982E+01  7.59869910E+00
  7.59869910E+00 -1.51973982E+01  7.59869910E+00  7.59869910E+00 -1.51973982E+01
  7.59869910E+00  7.59869910E+00 -1.51973982E+01  7.59869910E+00  7.59869910E+00
 -1.51973982E+01  7.59869910E+00  7.59869910E+00 -1.51973982E+01  7.59869910E+00
  7.59869910E+00 -1.51973982E+01  7.59869910E+00  7.59869910E+00 -1.51973982E+01
  7.59869910E+00  7.59869910E+00 -1.51973982E+01  7.59869910E+00  7.59869910E+00
 -1.51973982E+01  7.59869910E+00  7.59869910E+00 -1.51973982E+01  7.59869910E+00
  7.59869910E+00 -1.51973982E+01  7.59869910E+00  7.59869910E+00 -1.51973982E+01
  7.59869910E+00  7.59869910E+00 -1.51973982E+01  7.59869910E+00  7.59869910E+00
 -1.51973982E+01  7.59869910E+00  7.59869910E+00 -1.51973982E+01  7.59869910E+00
  7.59869910E+00 -1.51973982E+01  7.59869910E+00  7.59869910E+00 -1.51973982E+01
  7.59869910E+00  7.59869910E+00 -1.51973982E+01  7.59869910E+00  7.59869910E+00
 -1.51973982E+01  7.59869910E+00  7.59869910E+00 -1.51973982E+01  7.59869910E+00
  7.59869910E+00 -1.51973982E+01  7.59869910E+00  7.59869910E+00 -1.51973982E+01
  7.59869910E+00  7.59869910E+00 -1.51973982E+01  7.59869910E+00  7.59869910E+00
 -1.51973982E+01  7.59869910E+00  7.59869910E+00 -1.51973982E+01  7.59869910E+00
  7.59869910E+00 -1.51973982E+01  7.59869910E+00  7.59869910E+00 -1.51973982E+01
  7.59869910E+00  7.59869910E+00 -1.51973982E+01  7.59869910E+00  7.59869910E+00
 -1.51973982E+01  7.59869910E+00  7.59869910E+00 -1.51973982E+01  7.59869910E+00
  7.59869910E+00 -1.51973982E+01  7.59869910E+00  7.59869910E+00 -1.51973982E+01
  7.59869910E+00  7.59869910E+00 -1.51973982E+01  7.59869910E+00  7.59869910E+00
 -1.51973982E+01  7.59869910E+00  7.59869910E+00 -1.51973982E+01  7.59869910E+00
  7.59869910E+00 -1.51973982E+01  7.59869910E+00  7.59869910E+00 -1.51973982E+01
  7.59869910E+00  7.59869910E+00 -1.51973982E+01  7.59869910E+00  7.59869910E+00
 -1.51973982E+01  7.59869910E+00  7.59869910E+00 -1.51973982E+01  7.59869910E+00
  7.59869910E+00 -1.51973982E+01  7.59869910E+00  7.59869910E+00 -1.51973982E+01
  7.59869910E+00  7.59869910E+00 -1.51973982E+01  7.59869910E+00  7.59869910E+00
 -1.51973982E+01  7.59869910E+00  7.59869910E+00 -1.51973982E+01  7.59869910E+00
  7.59869910E+00 -1.51973982E+01  7.59869910E+00  7.59869910E+00 -1.51973982E+01
  7.59869910E+00  7.59869910E+00 -1.51973982E+01  7.59869910E+00  7.59869910E+00
 -1.51973982E+01  7.59869910E+00  7.59869910E+00 -1.51973982E+01  7.59869910E+00
  7.59869910E+00 -1.51973982E+01  7.59869910E+00  7.59869910E+00 -1.51973982E+01
  7.59869910E+00  7.59869910E+00 -1.51973982E+01  7.59869910E+00  7.59869910E+00
 -1.51973982E+01  7.59869910E+00  7.59869910E+00 -1.51973982E+01  7.59869910E+00
  7.59869910E+00 -1.51973982E+01  7.59869910E+00  7.59869910E+00 -1.51973982E+01
  7.59869910E+00  7.59869910E+00 -1.51973982E+01  7.59869910E+00  7.59869910E+00
 -1.51973982E+01  7.59869910E+00  7.59869910E+00 -1.51973982E+01  7.59869910E+00
  7.59869910E+00 -1.51973982E+01  7.59869910E+00  7.59869910E+00 -1.51973982E+01
  7.59869910E+00  7.59869910E+00 -1.51973982E+01  7.59869910E+00  7.59869910E+00
 -1.51973982E+01  7.59869910E+00  7.59869910E+00 -1.51973982E+01  7.59869910E+00
  7.59869910E+00 -1.51973982E+01  7.59869910E+00  7.59869910E+00 -1.51973982E+01
  7.59869910E+00  7.59869910E+00 -1.51973982E+01  7.59869910E+00  7.59869910E+00
 -1.51973982E+01  7.59869910E+00  7.59869910E+00 -1.51973982E+01  7.59869910E+00
  7.59869910E+00 -1.51973982E+01  7.59869910E+00  7.59869910E+00 -1.51973982E+01
  7.59869910E+00  7.59869910E+00 -1.51973982E+01  7.59869910E+00  7.59869910E+00
 -1.51973982E+01  7.59869910E+00  7.59869910E+00 -1.51973982E+01  7.59869910E+00
  7.59869910E+00 -1.51973982E+01  7.59869910E+00  7.59869910E+00 -1.51973982E+01
  7.59869910E+00  7.59869910E+00 -1.51973982E+01  7.59869910E+00  7.59869910E+00
 -1.51973982E+01  7.59869910E+00  7.59869910E+00 -1.51973982E+01  7.59869910E+00
  7.59869910E+00 -1.51973982E+01  7.59869910E+00  7.59869910E+00 -1.51973982E+01
  7.59869910E+00  7.59869910E+00 -1.51973982E+01  7.59869910E+00  7.59869910E+00
 -1.51973982E+01  7.59869910E+00  7.59869910E+00 -1.51973982E+01  7.59869910E+00
  7.59869910E+00 -1.51973982E+01  7.59869910E+00  7.59869910E+00 -1.51973982E+01
  7.59869910E+00  7.59869910E+00 -1.51973982E+01  7.59869910E+00  7.59869910E+00
 -1.51973982E+01  7.59869910E+00  7.59869910E+00 -1.51973982E+01  7.59869910E+00
  7.59869910E+00 -1.51973982E+01  7.59869910E+00  7.59869910E+00 -1.51973982E+01
  7.59869910E+00  7.59869910E+00 -1.51973982E+01  7.59869910E+00  7.59869910E+00
 -1.51973982E+01  7.59869910E+00  7.59869910E+00 -1.51973982E+01  7.59869910E+00
  7.59869910E+00 -1.51973982E+01  7.59869910E+00  7.59869910E+00 -1.51973982E+01
  7.59869910E+00  7.59869910E+00 -1.51973982E+01  7.59869910E+00  7.59869910E+00
 -1.51973982E+01  7.59869910E+00  7.59869910E+00 -1.51973982E+01  7.59869910E+00
  7.59869910E+00 -1.51973982E+01  7.59869910E+00  7.59869910E+00 -1.51973982E+01
  7.59869910E+00  7.59869910E+00 -1.51973982E+01  7.59869910E+00  7.59869910E+00
 -1.51973982E+01  7.59869910E+00  7.59869910E+00 -1.51973982E+01  7.59869910E+00
  7.59869910E+00 -1.51973982E+01  7.59869910E+00  7.59869910E+00 -1.51973982E+01
  7.59869910E+00  7.59869910E+00 -1.51973982E+01  7.59869910E+00  7.59869910E+00
 -1.51973982E+01  7.59869910E+00  7.59869910E+00 -1.51973982E+01  7.59869910E+00
  7.59869910E+00 -1.51973982E+01  7.59869910E+00  7.59869910E+00 -1.51973982E+01
  7.59869910E+00  7.59869910E+00 -1.51973982E+01  7.59869910E+00  7.59869910E+00
 -1.51973982E+01  7.59869910E+00  7.59869910E+00 -1.51973982E+01  7.59869910E+00
  7.59869910E+00 -1.51973982E+01  7.59869910E+00  7.59869910E+00 -1.51973982E+01
  7.59869910E+00  7.59869910E+00 -1.51973982E+01  7.59869910E+00  7.59869910E+00
 -1.51973982E+01  7.59869910E+00  7.59869910E+00 -1.51973982E+01  7.59869910E+00
  7.59869910E+00 -1.51973982E+01  7.59869910E+00  7.59869910E+00 -1.51973982E+01
  7.59869910E+00  7.59869910E+00 -1.51973982E+01  7.59869910E+00  7.59869910E+00
 -1.51973982E+01  7.59869910E+00  7.59869910E+00 -1.51973982E+01  7.59869910E+00
  7.59869910E+00 -1.51973982E+01  7.59869910E+00  7.59869910E+00 -1.51973982E+01
  7.59869910E+00  7.59869910E+00 -1.51973982E+01  7.59869910E+00  7.59869910E+00
 -1.51973982E+01  7.59869910E+00  7.59869910E+00 -1.51973982E+01  7.59869910E+00
  7.59869910E+00 -1.51973982E+01  7.59869910E+00  7.59869910E+00 -1.51973982E+01
  7.59869910E+00  7.59869910E+00 -1.51973982E+01  7.59869910E+00  7.59869910E+00
 -1.51973982E+01  7.59869910E+00  7.59869910E+00 -1.51973982E+01  7.59869910E+00
  7.59869910E+00 -1.51973982E+01  7.59869910E+00  7.59869910E+00 -1.51973982E+01
  7.59869910E+00  7.59869910E+00 -1.51973982E+01  7.59869910E+00  7.59869910E+00
 -1.51973982E+01  7.59869910E+00  7.59869910E+00 -1.51973982E+01  7.59869910E+00
  7.59869910E+00 -1.51973982E+01  7.59869910E+00  7.59869910E+00 -1.51973982E+01
  7.59869910E+00  7.59869910E+00 -1.51973982E+01  7.59869910E+00  7.59869910E+00
 -1.51973982E+01  7.59869910E+00  7.59869910E+00 -1.51973982E+01  7.59869910E+00
  7.59869910E+00 -1.51973982E+01  7.59869910E+00  7.59869910E+00 -1.51973982E+01
  7.59869910E+00  7.59869910E+00 -1.51973982E+01  7.59869910E+00  7.59869910E+00
 -1.51973982E+01  7.59869910E+00  7.59869910E+00 -1.51973982E+01  7.59869910E+00
  7.59869910E+00 -1.51973982E+01  7.59869910E+00  7.59869910E+00 -1.51973982E+01
  7.59869910E+00  7.59869910E+00 -1.51973982E+01  7.59869910E+00  7.59869910E+00
 -1.51973982E+01  7.59869910E+00  7.59869910E+00 -1.51973982E+01  7.59869910E+00
  7.59869910E+00 -1.51973982E+01  7.59869910E+00  7.59869910E+00 -1.51973982E+01
  7.59869910E+00  7.59869910E+00 -1.51973982E+01  7.59869910E+00  7.59869910E+00
 -1.51973982E+01  7.59869910E+00  7.59869910E+00 -1.51973982E+01  7.59869910E+00
  7.59869910E+00 -1.51973982E+01  7.59869910E+00  7.59869910E+00 -1.51973982E+01
  7.59869910E+00  7.59869910E+00 -1.51973982E+01  7.59869910E+00  7.59869910E+00
 -1.51973982E+01  7.59869910E+00  7.59869910E+00 -1.51973982E+01  7.59869910E+00
  7.59869910E+00 -1.51973982E+01  7.59869910E+00  7.59869910E+00 -1.51973982E+01
  7.59869910E+00  7.59869910E+00 -1.51973982E+01  7.59869910E+00  7.59869910E+00
 -1.51973982E+01  7.59869910E+00  7.59869910E+00 -1.51973982E+01  7.59869910E+00
  7.59869910E+00 -1.51973982E+01  7.59869910E+00  7.59869910E+00 -1.51973982E+01
  7.59869910E+00  7.59869910E+00 -1.51973982E+01  7.59869910E+00  7.59869910E+00
 -1.51973982E+01  7.59869910E+00  7.59869910E+00 -1.51973982E+01  7.59869910E+00
  7.59869910E+00 -1.51973982E+01  7.59869910E+00  7.59869910E+00 -1.51973982E+01
  7.59869910E+00  7.59869910E+00 -1.51973982E+01  7.59869910E+00  7.59869910E+00
 -1.51973982E+01  7.59869910E+00  7.59869910E+00 -1.51973982E+01  7.59869910E+00
  7.59869910E+00 -1.51973982E+01  7.59869910E+00  7.59869910E+00 -1.51973982E+01
  7.59869910E+00  7.59869910E+00 -1.51973982E+01  7.59869910E+00  7.59869910E+00
 -1.51973982E+01  7.59869910E+00  7.59869910E+00 -1.51973982E+01  7.59869910E+00
  7.59869910E+00 -1.51973982E+01  7.59869910E+00  7.59869910E+00 -1.51973982E+01
  7.59869910E+00  7.59869910E+00 -1.51973982E+01  7.59869910E+00  7.59869910E+00
 -1.51973982E+01  7.59869910E+00  7.59869910E+00 -1.51973982E+01  7.59869910E+00
  7.59869910E+00 -1.51973982E+01  7.59869910E+00  7.59869910E+00 -1.51973982E+01
  7.59869910E+00  7.59869910E+00 -1.51973982E+01  7.59869910E+00  7.59869910E+00
 -1.51973982E+01  7.59869910E+00  7.59869910E+00 -1.51973982E+01  7.59869910E+00
  7.59869910E+00 -1.51973982E+01  7.59869910E+00  7.59869910E+00 -1.51973982E+01
  7.59869910E+00  7.59869910E+00 -1.51973982E+01  7.59869910E+00  7.59869910E+00
 -1.51973982E+01  7.59869910E+00  7.59869910E+00 -1.51973982E+01  7.59869910E+00
  7.59869910E+00 -1.51973982E+01  7.59869910E+00  7.59869910E+00 -1.51973982E+01
  7.59869910E+00  7.59869910E+00 -1.51973982E+01  7.59869910E+00  7.59869910E+00
 -1.51973982E+01  7.59869910E+00  7.59869910E+00 -1.51973982E+01  7.59869910E+00
  7.59869910E+00 -1.51973982E+01  7.59869910E+00  7.59869910E+00 -1.51973982E+01
  7.59869910E+00  7.59869910E+00 -1.51973982E+01  7.59869910E+00  7.59869910E+00
 -1.51973982E+01  7.59869910E+00  7.59869910E+00 -1.51973982E+01  7.59869910E+00
  7.59869910E+00 -1.51973982E+01  7.59869910E+00  7.59869910E+00 -1.51973982E+01
  7.59869910E+00  7.59869910E+00 -1.51973982E+01  7.59869910E+00  7.59869910E+00
 -1.51973982E+01  7.59869910E+00  7.59869910E+00 -1.51973982E+01  7.59869910E+00
  7.59869910E+00 -1.51973982E+01  7.59869910E+00  7.59869910E+00 -1.51973982E+01
  7.59869910E+00  7.59869910E+00 -1.51973982E+01  7.59869910E+00  7.59869910E+00
 -1.51973982E+01  7.59869910E+00  7.59869910E+00 -1.51973982E+01  7.59869910E+00
  7.59869910E+00 -1.51973982E+01  7.59869910E+00  7.59869910E+00 -1.51973982E+01
  7.59869910E+00  7.59869910E+00 -1.51973982E+01  7.59869910E+00  7.59869910E+00
 -1.51973982E+01  7.59869910E+00  7.59869910E+00 -1.51973982E+01  7.59869910E+00
  7.59869910E+00 -1.51973982E+01  7.59869910E+00  7.59869910E+00 -1.51973982E+01
  7.59869910E+00  7.59869910E+00 -1.51973982E+01  7.59869910E+00  7.59869910E+00
 -1.51973982E+01  7.59869910E+00  7.59869910E+00 -1.51973982E+01  7.59869910E+00
  7.59869910E+00 -1.51973982E+01  7.59869910E+00  7.59869910E+00 -1.51973982E+01
  7.59869910E+00  7.59869910E+00 -1.51973982E+01  7.59869910E+00  7.59869910E+00
 -1.51973982E+01  7.59869910E+00  7.59869910E+00 -1.51973982E+01  7.59869910E+00
  7.59869910E+00 -1.51973982E+01  7.59869910E+00  7.59869910E+00 -1.51973982E+01
  7.59869910E+00  7.59869910E+00 -1.51973982E+01  7.59869910E+00  7.59869910E+00
 -1.51973982E+01  7.59869910E+00  7.59869910E+00 -1.51973982E+01  7.59869910E+00
  7.59869910E+00 -1.51973982E+01  7.59869910E+00  7.59869910E+00 -1.51973982E+01
  7.59869910E+00  7.59869910E+00 -1.51973982E+01  7.59869910E+00  7.59869910E+00
 -1.51973982E+01  7.59869910E+00  7.59869910E+00 -1.51973982E+01  7.59869910E+00
  7.59869910E+00 -1.51973982E+01  7.59869910E+00  7.59869910E+00 -1.51973982E+01
  7.59869910E+00  7.59869910E+00 -1.51973982E+01  7.59869910E+00  7.59869910E+00
 -1.51973982E+01  7.59869910E+00  7.59869910E+00 -1.51973982E+01  7.59869910E+00
  7.59869910E+00 -1.51973982E+01  7.59869910E+00  7.59869910E+00 -1.51973982E+01
  7.59869910E+00  7.59869910E+00 -1.51973982E+01  7.59869910E+00  7.59869910E+00
 -1.51973982E+01  7.59869910E+00  7.59869910E+00 -1.51973982E+01  7.59869910E+00
  7.59869910E+00 -1.51973982E+01  7.59869910E+00  7.59869910E+00 -1.51973982E+01
  7.59869910E+00  7.59869910E+00 -1.51973982E+01  7.59869910E+00  7.59869910E+00
 -1.51973982E+01  7.59869910E+00  7.59869910E+00 -1.51973982E+01  7.59869910E+00
  7.59869910E+00 -1.51973982E+01  7.59869910E+00  7.59869910E+00 -1.51973982E+01
  7.59869910E+00  7.59869910E+00 -1.51973982E+01  7.59869910E+00  7.59869910E+00
 -1.51973982E+01  7.59869910E+00  7.59869910E+00 -1.51973982E+01  7.59869910E+00
  7.59869910E+00 -1.51973982E+01  7.59869910E+00  7.59869910E+00 -1.51973982E+01
  7.59869910E+00  7.59869910E+00 -1.51973982E+01  7.59869910E+00  7.59869910E+00
 -1.51973982E+01  7.59869910E+00  7.59869910E+00 -1.51973982E+01  7.59869910E+00
  7.59869910E+00 -1.51973982E+01  7.59869910E+00  7.59869910E+00 -1.51973982E+01
  7.59869910E+00  7.59869910E+00 -1.51973982E+01  7.59869910E+00  7.59869910E+00
 -1.51973982E+01  7.59869910E+00  7.59869910E+00 -1.51973982E+01  7.59869910E+00
  7.59869910E+00 -1.51973982E+01  7.59869910E+00  7.59869910E+00 -1.51973982E+01
  7.59869910E+00  7.59869910E+00 -1.51973982E+01  7.59869910E+00  7.59869910E+00
 -1.51973982E+01  7.59869910E+00  7.59869910E+00 -1.51973982E+01  7.59869910E+00
  7.59869910E+00 -1.51973982E+01  7.59869910E+00  7.59869910E+00 -1.51973982E+01
  7.59869910E+00  7.59869910E+00 -1.51973982E+01  7.59869910E+00  7.59869910E+00
 -1.51973982E+01  7.59869910E+00  7.59869910E+00 -1.51973982E+01  7.59869910E+00
  7.59869910E+00 -1.51973982E+01  7.59869910E+00  7.59869910E+00 -1.51973982E+01
  7.59869910E+00  7.59869910E+00 -1.51973982E+01  7.59869910E+00  7.59869910E+00
 -1.51973982E+01  7.59869910E+00  7.59869910E+00 -1.51973982E+01  7.59869910E+00
  7.59869910E+00 -1.51973982E+01  7.59869910E+00  7.59869910E+00 -1.51973982E+01
  7.59869910E+00  7.59869910E+00 -1.51973982E+01  7.59869910E+00  7.59869910E+00
 -1.51973982E+01  7.59869910E+00  7.59869910E+00 -1.51973982E+01  7.59869910E+00
  7.59869910E+00 -1.51973982E+01  7.59869910E+00  7.59869910E+00 -1.51973982E+01
  7.59869910E+00  7.59869910E+00 -1.51973982E+01  7.59869910E+00  7.59869910E+00
 -1.51973982E+01  7.59869910E+00  7.59869910E+00 -1.51973982E+01  7.59869910E+00
  7.59869910E+00 -1.51973982E+01  7.59869910E+00  7.59869910E+00 -1.51973982E+01
  7.59869910E+00  7.59869910E+00 -1.51973982E+01  7.59869910E+00  7.59869910E+00
 -1.51973982E+01  7.59869910E+00  7.59869910E+00 -1.51973982E+01  7.59869910E+00
  7.59869910E+00 -1.51973982E+01  7.59869910E+00  7.59869910E+00 -1.51973982E+01
  7.59869910E+00  7.59869910E+00 -1.51973982E+01  7.59869910E+00  7.59869910E+00
 -1.51973982E+01  7.59869910E+00  7.59869910E+00 -1.51973982E+01  7.59869910E+00
  7.59869910E+00 -1.51973982E+01  7.59869910E+00  7.59869910E+00 -1.51973982E+01
  7.59869910E+00  7.59869910E+00 -1.51973982E+01  7.59869910E+00  7.59869910E+00
 -1.51973982E+01  7.59869910E+00  7.59869910E+00 -1.51973982E+01  7.59869910E+00
  7.59869910E+00 -1.51973982E+01  7.59869910E+00  7.59869910E+00 -1.51973982E+01
  7.59869910E+00  7.59869910E+00 -1.51973982E+01  7.59869910E+00  7.59869910E+00
 -1.51973982E+01  7.59869910E+00  7.59869910E+00 -1.51973982E+01  7.59869910E+00
  7.59869910E+00 -1.51973982E+01  7.59869910E+00  7.59869910E+00 -1.51973982E+01
  7.59869910E+00  7.59869910E+00 -1.51973982E+01  7.59869910E+00  7.59869910E+00
 -1.51973982E+01  7.59869910E+00  7.59869910E+00 -1.51973982E+01  7.59869910E+00
  7.59869910E+00 -1.51973982E+01  7.59869910E+00  7.59869910E+00 -1.51973982E+01
  7.59869910E+00  7.59869910E+00 -1.51973982E+01  7.59869910E+00  7.59869910E+00
 -1.51973982E+01  7.59869910E+00  7.59869910E+00 -1.51973982E+01  7.59869910E+00
  7.59869910E+00 -1.51973982E+01  7.59869910E+00  7.59869910E+00 -1.51973982E+01
  7.59869910E+00  7.59869910E+00 -1.51973982E+01  7.59869910E+00  7.59869910E+00
 -1.51973982E+01  7.59869910E+00  7.59869910E+00 -1.51973982E+01  7.59869910E+00
  7.59869910E+00 -1.51973982E+01  7.59869910E+00  7.59869910E+00 -1.51973982E+01
  7.59869910E+00  7.59869910E+00 -1.51973982E+01  7.59869910E+00  7.59869910E+00
 -1.51973982E+01  7.59869910E+00  7.59869910E+00 -1.51973982E+01  7.59869910E+00
  7.59869910E+00 -1.51973982E+01  7.59869910E+00  7.59869910E+00 -1.51973982E+01
  7.59869910E+00  7.59869910E+00 -1.51973982E+01  7.59869910E+00  7.59869910E+00
 -1.51973982E+01  7.59869910E+00  7.59869910E+00 -1.51973982E+01  7.59869910E+00
  7.59869910E+00 -1.51973982E+01  7.59869910E+00  7.59869910E+00 -1.51973982E+01
  7.59869910E+00  7.59869910E+00 -1.51973982E+01  7.59869910E+00  7.59869910E+00
 -1.51973982E+01  7.59869910E+00  7.59869910E+00 -1.51973982E+01  7.59869910E+00
  7.59869910E+00 -1.51973982E+01  7.59869910E+00  7.59869910E+00 -1.51973982E+01
  7.59869910E+00  7.59869910E+00 -1.51973982E+01  7.59869910E+00  7.59869910E+00
 -1.51973982E+01  7.59869910E+00  7.59869910E+00 -1.51973982E+01  7.59869910E+00
  7.59869910E+00 -1.51973982E+01  7.59869910E+00  7.59869910E+00 -1.51973982E+01
  7.59869910E+00  7.59869910E+00 -1.51973982E+01  7.59869910E+00  7.59869910E+00
 -1.51973982E+01  7.59869910E+00  7.59869910E+00 -1.51973982E+01  7.59869910E+00
  7.59869910E+00 -1.51973982E+01  7.59869910E+00  7.59869910E+00 -1.51973982E+01
  7.59869910E+00  7.59869910E+00 -1.51973982E+01  7.59869910E+00  7.59869910E+00
 -1.51973982E+01  7.59869910E+00  7.59869910E+00 -1.51973982E+01  7.59869910E+00
  7.59869910E+00 -1.51973982E+01  7.59869910E+00  7.59869910E+00 -1.51973982E+01
  7.59869910E+00  7.59869910E+00 -1.51973982E+01  7.59869910E+00  7.59869910E+00
 -1.51973982E+01  7.59869910E+00  7.59869910E+00 -1.51973982E+01  7.59869910E+00
  7.59869910E+00 -1.51973982E+01  7.59869910E+00  7.59869910E+00 -1.51973982E+01
  7.59869910E+00  7.59869910E+00 -1.51973982E+01  7.59869910E+00  7.59869910E+00
 -1.51973982E+01  7.59869910E+00  7.59869910E+00 -1.51973982E+01  7.59869910E+00
  7.59869910E+00 -1.51973982E+01  7.59869910E+00  7.59869910E+00 -1.51973982E+01
  7.59869910E+00  7.59869910E+00 -1.51973982E+01  7.59869910E+00  7.59869910E+00
 -1.51973982E+01  7.59869910E+00  7.59869910E+00 -1.51973982E+01  7.59869910E+00
  7.59869910E+00 -1.51973982E+01  7.59869910E+00  7.59869910E+00 -1.51973982E+01
  7.59869910E+00  7.59869910E+00 -1.51973982E+01  7.59869910E+00  7.59869910E+00
 -1.51973982E+01  7.59869910E+00  7.59869910E+00 -1.51973982E+01  7.59869910E+00
  7.59869910E+00 -1.51973982E+01  7.59869910E+00  7.59869910E+00 -1.51973982E+01
  7.59869910E+00  7.59869910E+00 -1.51973982E+01  7.59869910E+00  7.59869910E+00
 -1.51973982E+01  7.59869910E+00  7.59869910E+00 -1.51973982E+01  7.59869910E+00
  7.59869910E+00 -1.51973982E+01  7.59869910E+00  7.59869910E+00 -1.51973982E+01
  7.59869910E+00  7.59869910E+00 -1.51973982E+01  7.59869910E+00  7.59869910E+00
 -1.51973982E+01  7.59869910E+00  7.59869910E+00 -1.51973982E+01  7.59869910E+00
  7.59869910E+00 -1.51973982E+01  7.59869910E+00  7.59869910E+00 -1.51973982E+01
  7.59869910E+00  7.59869910E+00 -1.51973982E+01  7.59869910E+00  7.59869910E+00
 -1.51973982E+01  7.59869910E+00  7.59869910E+00 -1.51973982E+01  7.59869910E+00
  7.59869910E+00 -1.51973982E+01  7.59869910E+00  7.59869910E+00 -1.51973982E+01
  7.59869910E+00  7.59869910E+00 -1.51973982E+01  7.59869910E+00  7.59869910E+00
 -1.51973982E+01  7.59869910E+00  7.59869910E+00 -1.51973982E+01  7.59869910E+00
  7.59869910E+00 -1.51973982E+01  7.59869910E+00  7.59869910E+00 -1.51973982E+01
  7.59869910E+00  7.59869910E+00 -1.51973982E+01  7.59869910E+00  7.59869910E+00
 -1.51973982E+01  7.59869910E+00  7.59869910E+00 -1.51973982E+01  7.59869910E+00
  7.59869910E+00 -1.51973982E+01  7.59869910E+00  7.59869910E+00 -1.51973982E+01
  7.59869910E+00  7.59869910E+00 -1.51973982E+01  7.59869910E+00  7.59869910E+00
 -1.51973982E+01  7.59869910E+00  7.59869910E+00 -1.51973982E+01  7.59869910E+00
  7.59869910E+00 -1.51973982E+01  7.59869910E+00  7.59869910E+00 -1.51973982E+01
  7.59869910E+00  7.59869910E+00 -1.51973982E+01  7.59869910E+00  7.59869910E+00
 -1.51973982E+01  7.59869910E+00  7.59869910E+00 -1.51973982E+01  7.59869910E+00
  7.59869910E+00 -1.51973982E+01  7.59869910E+00  7.59869910E+00 -1.51973982E+01
  7.59869910E+00  7.59869910E+00 -1.51973982E+01  7.59869910E+00  7.59869910E+00
 -1.51973982E+01  7.59869910E+00  7.59869910E+00 -1.51973982E+01  7.59869910E+00
  7.59869910E+00 -1.51973982E+01  7.59869910E+00  7.59869910E+00 -1.51973982E+01
  7.59869910E+00  7.59869910E+00 -1.51973982E+01  7.59869910E+00  7.59869910E+00
 -1.51973982E+01  7.59869910E+00  7.59869910E+00 -1.51973982E+01  7.59869910E+00
  7.59869910E+00 -1.51973982E+01  7.59869910E+00  7.59869910E+00 -1.51973982E+01
  7.59869910E+00  7.59869910E+00 -1.51973982E+01  7.59869910E+00  7.59869910E+00
 -1.51973982E+01  7.59869910E+00  7.59869910E+00 -1.51973982E+01  7.59869910E+00
  7.59869910E+00 -1.51973982E+01  7.59869910E+00  7.59869910E+00 -1.51973982E+01
  7.59869910E+00  7.59869910E+00 -1.51973982E+01  7.59869910E+00  7.59869910E+00
 -1.51973982E+01  7.59869910E+00  7.59869910E+00 -1.51973982E+01  7.59869910E+00
  7.59869910E+00 -1.51973982E+01  7.59869910E+00  7.59869910E+00 -1.51973982E+01
  7.59869910E+00  7.59869910E+00 -1.51973982E+01  7.59869910E+00  7.59869910E+00
 -1.51973982E+01  7.59869910E+00  7.59869910E+00 -1.51973982E+01  7.59869910E+00
  7.59869910E+00 -1.51973982E+01  7.59869910E+00  7.59869910E+00 -1.51973982E+01
  7.59869910E+00  7.59869910E+00 -1.51973982E+01  7.59869910E+00  7.59869910E+00
 -1.51973982E+01  7.59869910E+00  7.59869910E+00 -1.51973982E+01  7.59869910E+00
  7.59869910E+00 -1.51973982E+01  7.59869910E+00  7.59869910E+00 -1.51973982E+01
  7.59869910E+00  7.59869910E+00 -1.51973982E+01  7.59869910E+00  7.59869910E+00
 -1.51973982E+01  7.59869910E+00  7.59869910E+00 -1.51973982E+01  7.59869910E+00
  7.59869910E+00 -1.51973982E+01  7.59869910E+00  7.59869910E+00 -1.51973982E+01
  7.59869910E+00  7.59869910E+00 -1.51973982E+01  7.59869910E+00  7.59869910E+00
 -1.51973982E+01  7.59869910E+00  7.59869910E+00 -1.51973982E+01  7.59869910E+00
  7.59869910E+00 -1.51973982E+01  7.59869910E+00  7.59869910E+00 -1.51973982E+01
  7.59869910E+00  7.59869910E+00 -1.51973982E+01  7.59869910E+00  7.59869910E+00
 -1.51973982E+01  7.59869910E+00  7.59869910E+00 -1.51973982E+01  7.59869910E+00
  7.59869910E+00 -1.51973982E+01  7.59869910E+00  7.59869910E+00 -1.51973982E+01
  7.59869910E+00  7.59869910E+00 -1.51973982E+01  7.59869910E+00  7.59869910E+00
 -1.51973982E+01  7.59869910E+00  7.59869910E+00 -1.51973982E+01  7.59869910E+00
  7.59869910E+00 -1.51973982E+01  7.59869910E+00  7.59869910E+00 -1.51973982E+01
  7.59869910E+00  7.59869910E+00 -1.51973982E+01  7.59869910E+00  7.59869910E+00
 -1.51973982E+01  7.59869910E+00  7.59869910E+00 -1.51973982E+01  7.59869910E+00
  7.59869910E+00 -1.51973982E+01  7.59869910E+00  7.59869910E+00 -1.51973982E+01
  7.59869910E+00  7.59869910E+00 -1.51973982E+01  7.59869910E+00  7.59869910E+00
 -1.51973982E+01  7.59869910E+00  7.59869910E+00 -1.51973982E+01  7.59869910E+00
  7.59869910E+00 -1.51973982E+01  7.59869910E+00  7.59869910E+00 -1.51973982E+01
  7.59869910E+00  7.59869910E+00 -1.51973982E+01  7.59869910E+00  7.59869910E+00
 -1.51973982E+01  7.59869910E+00  7.59869910E+00 -1.51973982E+01  7.59869910E+00
  7.59869910E+00 -1.51973982E+01  7.59869910E+00  7.59869910E+00 -1.51973982E+01
  7.59869910E+00  7.59869910E+00 -1.51973982E+01  7.59869910E+00  7.59869910E+00
 -1.51973982E+01  7.59869910E+00  7.59869910E+00 -1.51973982E+01  7.59869910E+00
  7.59869910E+00 -1.51973982E+01  7.59869910E+00  7.59869910E+00 -1.51973982E+01
  7.59869910E+00  7.59869910E+00 -1.51973982E+01  7.59869910E+00  7.59869910E+00
 -1.51973982E+01  7.59869910E+00  7.59869910E+00 -1.51973982E+01  7.59869910E+00
  7.59869910E+00 -1.51973982E+01  7.59869910E+00  7.59869910E+00 -1.51973982E+01
  7.59869910E+00  7.59869910E+00 -1.51973982E+01  7.59869910E+00  7.59869910E+00
 -1.51973982E+01  7.59869910E+00  7.59869910E+00 -1.51973982E+01  7.59869910E+00
  7.59869910E+00 -1.51973982E+01  7.59869910E+00  7.59869910E+00 -1.51973982E+01
  7.59869910E+00  7.59869910E+00 -1.51973982E+01  7.59869910E+00  7.59869910E+00
 -1.51973982E+01  7.59869910E+00  7.59869910E+00 -1.51973982E+01  7.59869910E+00
  7.59869910E+00 -1.51973982E+01  7.59869910E+00  7.59869910E+00 -1.51973982E+01
  7.59869910E+00  7.59869910E+00 -1.51973982E+01  7.59869910E+00  7.59869910E+00
 -1.51973982E+01  7.59869910E+00  7.59869910E+00 -1.51973982E+01  7.59869910E+00
  7.59869910E+00 -1.51973982E+01  7.59869910E+00  7.59869910E+00 -1.51973982E+01
  7.59869910E+00  7.59869910E+00 -1.51973982E+01  7.59869910E+00  7.59869910E+00
 -1.51973982E+01  7.59869910E+00  7.59869910E+00 -1.51973982E+01  7.59869910E+00
  7.59869910E+00 -1.51973982E+01  7.59869910E+00  7.59869910E+00 -1.51973982E+01
  7.59869910E+00  7.59869910E+00 -1.51973982E+01  7.59869910E+00  7.59869910E+00
 -1.51973982E+01  7.59869910E+00  7.59869910E+00 -1.51973982E+01  7.59869910E+00
  7.59869910E+00 -1.51973982E+01  7.59869910E+00  7.59869910E+00 -1.51973982E+01
  7.59869910E+00  7.59869910E+00 -1.51973982E+01  7.59869910E+00  7.59869910E+00
 -1.51973982E+01  7.59869910E+00  7.59869910E+00 -1.51973982E+01  7.59869910E+00
  7.59869910E+00 -1.51973982E+01  7.59869910E+00  7.59869910E+00 -1.51973982E+01
  7.59869910E+00  7.59869910E+00 -1.51973982E+01  7.59869910E+00  7.59869910E+00
 -1.51973982E+01  7.59869910E+00  7.59869910E+00 -1.51973982E+01  7.59869910E+00
  7.59869910E+00 -1.51973982E+01  7.59869910E+00  7.59869910E+00 -1.51973982E+01
  7.59869910E+00  7.59869910E+00 -1.51973982E+01  7.59869910E+00  7.59869910E+00
 -1.51973982E+01  7.59869910E+00  7.59869910E+00 -1.51973982E+01  7.59869910E+00
  7.59869910E+00 -1.51973982E+01  7.59869910E+00  7.59869910E+00 -1.51973982E+01
  7.59869910E+00  7.59869910E+00 -1.51973982E+01  7.59869910E+00  7.59869910E+00
 -1.51973982E+01  7.59869910E+00  7.59869910E+00 -1.51973982E+01  7.59869910E+00
  7.59869910E+00 -1.51973982E+01  7.59869910E+00  7.59869910E+00 -1.51973982E+01
  7.59869910E+00  7.59869910E+00 -1.51973982E+01  7.59869910E+00  7.59869910E+00
 -1.51973982E+01  7.59869910E+00  7.59869910E+00 -1.51973982E+01  7.59869910E+00
  7.59869910E+00 -1.51973982E+01  7.59869910E+00  7.59869910E+00 -1.51973982E+01
  7.59869910E+00  7.59869910E+00 -1.51973982E+01  7.59869910E+00  7.59869910E+00
 -1.51973982E+01  7.59869910E+00  7.59869910E+00 -1.51973982E+01  7.59869910E+00
  7.59869910E+00 -1.51973982E+01  7.59869910E+00  7.59869910E+00 -1.51973982E+01
  7.59869910E+00  7.59869910E+00 -1.51973982E+01  7.59869910E+00  7.59869910E+00
 -1.51973982E+01  7.59869910E+00  7.59869910E+00 -1.51973982E+01  7.59869910E+00
  7.59869910E+00 -1.51973982E+01  7.59869910E+00  7.59869910E+00 -1.51973982E+01
  7.59869910E+00  7.59869910E+00 -1.51973982E+01  7.59869910E+00  7.59869910E+00
 -1.51973982E+01  7.59869910E+00  7.59869910E+00 -1.51973982E+01  7.59869910E+00
  7.59869910E+00 -1.51973982E+01  7.59869910E+00  7.59869910E+00 -1.51973982E+01
  7.59869910E+00  7.59869910E+00 -1.51973982E+01  7.59869910E+00  7.59869910E+00
 -1.51973982E+01  7.59869910E+00  7.59869910E+00 -1.51973982E+01  7.59869910E+00
  7.59869910E+00 -1.51973982E+01  7.59869910E+00  7.59869910E+00 -1.51973982E+01
  7.59869910E+00  7.59869910E+00 -1.51973982E+01  7.59869910E+00  7.59869910E+00
 -1.51973982E+01  7.59869910E+00  7.59869910E+00 -1.51973982E+01  7.59869910E+00
  7.59869910E+00 -1.51973982E+01  7.59869910E+00  7.59869910E+00 -1.51973982E+01
  7.59869910E+00  7.59869910E+00 -1.51973982E+01  7.59869910E+00  7.59869910E+00
 -1.51973982E+01  7.59869910E+00  7.59869910E+00 -1.51973982E+01  7.59869910E+00
  7.59869910E+00 -1.51973982E+01  7.59869910E+00  7.59869910E+00 -1.51973982E+01
  7.59869910E+00  7.59869910E+00 -1.51973982E+01  7.59869910E+00  7.59869910E+00
 -1.51973982E+01  7.59869910E+00  7.59869910E+00 -1.51973982E+01  7.59869910E+00
  7.59869910E+00 -1.51973982E+01  7.59869910E+00  7.59869910E+00 -1.51973982E+01
  7.59869910E+00  7.59869910E+00 -1.51973982E+01  7.59869910E+00  7.59869910E+00
 -1.51973982E+01  7.59869910E+00  7.59869910E+00 -1.51973982E+01  7.59869910E+00
  7.59869910E+00 -1.51973982E+01  7.59869910E+00  7.59869910E+00 -1.51973982E+01
  7.59869910E+00  7.59869910E+00 -1.51973982E+01  7.59869910E+00  7.59869910E+00
 -1.51973982E+01  7.59869910E+00  7.59869910E+00 -1.51973982E+01  7.59869910E+00
  7.59869910E+00 -1.51973982E+01  7.59869910E+00  7.59869910E+00 -1.51973982E+01
  7.59869910E+00  7.59869910E+00 -1.51973982E+01  7.59869910E+00  7.59869910E+00
 -1.51973982E+01  7.59869910E+00  7.59869910E+00 -1.51973982E+01  7.59869910E+00
  7.59869910E+00 -1.51973982E+01  7.59869910E+00  7.59869910E+00 -1.51973982E+01
  7.59869910E+00  7.59869910E+00 -1.51973982E+01  7.59869910E+00  7.59869910E+00
 -1.51973982E+01  7.59869910E+00  7.59869910E+00 -1.51973982E+01  7.59869910E+00
  7.59869910E+00 -1.51973982E+01  7.59869910E+00  7.59869910E+00 -1.51973982E+01
  7.59869910E+00  7.59869910E+00 -1.51973982E+01  7.59869910E+00  7.59869910E+00
 -1.51973982E+01  7.59869910E+00  7.59869910E+00 -1.51973982E+01  7.59869910E+00
  7.59869910E+00 -1.51973982E+01  7.59869910E+00  7.59869910E+00 -1.51973982E+01
  7.59869910E+00  7.59869910E+00 -1.51973982E+01  7.59869910E+00  7.59869910E+00
 -1.51973982E+01  7.59869910E+00  7.59869910E+00 -1.51973982E+01  7.59869910E+00
  7.59869910E+00 -1.51973982E+01  7.59869910E+00  7.59869910E+00 -1.51973982E+01
  7.59869910E+00  7.59869910E+00 -1.51973982E+01  7.59869910E+00  7.59869910E+00
 -1.51973982E+01  7.59869910E+00  7.59869910E+00 -1.51973982E+01  7.59869910E+00
  7.59869910E+00 -1.51973982E+01  7.59869910E+00  7.59869910E+00 -1.51973982E+01
  7.59869910E+00  7.59869910E+00 -1.51973982E+01  7.59869910E+00  7.59869910E+00
 -1.51973982E+01  7.59869910E+00  7.59869910E+00 -1.51973982E+01  7.59869910E+00
  7.59869910E+00 -1.51973982E+01  7.59869910E+00  7.59869910E+00 -1.51973982E+01
  7.59869910E+00  7.59869910E+00 -1.51973982E+01  7.59869910E+00  7.59869910E+00
 -1.51973982E+01  7.59869910E+00  7.59869910E+00 -1.51973982E+01  7.59869910E+00
  7.59869910E+00 -1.51973982E+01  7.59869910E+00  7.59869910E+00 -1.51973982E+01
  7.59869910E+00  7.59869910E+00 -1.51973982E+01  7.59869910E+00  7.59869910E+00
 -1.51973982E+01  7.59869910E+00  7.59869910E+00 -1.51973982E+01  7.59869910E+00
  7.59869910E+00 -1.51973982E+01  7.59869910E+00  7.59869910E+00 -1.51973982E+01
  7.59869910E+00  7.59869910E+00 -1.51973982E+01  7.59869910E+00  7.59869910E+00
 -1.51973982E+01  7.59869910E+00  7.59869910E+00 -1.51973982E+01  7.59869910E+00
  7.59869910E+00 -1.51973982E+01  7.59869910E+00  7.59869910E+00 -1.51973982E+01
  7.59869910E+00  7.59869910E+00 -1.51973982E+01  7.59869910E+00  7.59869910E+00
 -1.51973982E+01  7.59869910E+00  7.59869910E+00 -1.51973982E+01  7.59869910E+00
  7.59869910E+00 -1.51973982E+01  7.59869910E+00  7.59869910E+00 -1.51973982E+01
  7.59869910E+00  7.59869910E+00 -1.51973982E+01  7.59869910E+00  7.59869910E+00
 -1.51973982E+01  7.59869910E+00  7.59869910E+00 -1.51973982E+01  7.59869910E+00
  7.59869910E+00 -1.51973982E+01  7.59869910E+00  7.59869910E+00 -1.51973982E+01
  7.59869910E+00  7.59869910E+00 -1.51973982E+01  7.59869910E+00  7.59869910E+00
 -1.51973982E+01  7.59869910E+00  7.59869910E+00 -1.51973982E+01  7.59869910E+00
  7.59869910E+00 -1.51973982E+01  7.59869910E+00  7.59869910E+00 -1.51973982E+01
  7.59869910E+00  7.59869910E+00 -1.51973982E+01  7.59869910E+00  7.59869910E+00
 -1.51973982E+01  7.59869910E+00  7.59869910E+00 -1.51973982E+01  7.59869910E+00
  7.59869910E+00 -1.51973982E+01  7.59869910E+00  7.59869910E+00 -1.51973982E+01
  7.59869910E+00  7.59869910E+00 -1.51973982E+01  7.59869910E+00  7.59869910E+00
 -1.51973982E+01  7.59869910E+00  7.59869910E+00 -1.51973982E+01  7.59869910E+00
  7.59869910E+00 -1.51973982E+01  7.59869910E+00  7.59869910E+00 -1.51973982E+01
  7.59869910E+00  7.59869910E+00 -1.51973982E+01  7.59869910E+00  7.59869910E+00
 -1.51973982E+01  7.59869910E+00  7.59869910E+00 -1.51973982E+01  7.59869910E+00
  7.59869910E+00 -1.51973982E+01  7.59869910E+00  7.59869910E+00 -1.51973982E+01
  7.59869910E+00  7.59869910E+00 -1.51973982E+01  7.59869910E+00  7.59869910E+00
 -1.51973982E+01  7.59869910E+00  7.59869910E+00 -1.51973982E+01  7.59869910E+00
  7.59869910E+00 -1.51973982E+01  7.59869910E+00  7.59869910E+00 -1.51973982E+01
  7.59869910E+00  7.59869910E+00 -1.51973982E+01  7.59869910E+00  7.59869910E+00
 -1.51973982E+01  7.59869910E+00  7.59869910E+00 -1.51973982E+01  7.59869910E+00
  7.59869910E+00 -1.51973982E+01  7.59869910E+00  7.59869910E+00 -1.51973982E+01
  7.59869910E+00  7.59869910E+00 -1.51973982E+01  7.59869910E+00  7.59869910E+00
 -1.51973982E+01  7.59869910E+00  7.59869910E+00 -1.51973982E+01  7.59869910E+00
  7.59869910E+00 -1.51973982E+01  7.59869910E+00  7.59869910E+00 -1.51973982E+01
  7.59869910E+00  7.59869910E+00 -1.51973982E+01  7.59869910E+00  7.59869910E+00
 -1.51973982E+01  7.59869910E+00  7.59869910E+00 -1.51973982E+01  7.59869910E+00
  7.59869910E+00 -1.51973982E+01  7.59869910E+00  7.59869910E+00 -1.51973982E+01
  7.59869910E+00  7.59869910E+00 -1.51973982E+01  7.59869910E+00  7.59869910E+00
 -1.51973982E+01  7.59869910E+00  7.59869910E+00 -1.51973982E+01  7.59869910E+00
  7.59869910E+00 -1.51973982E+01  7.59869910E+00  7.59869910E+00 -1.51973982E+01
  7.59869910E+00  7.59869910E+00 -1.51973982E+01  7.59869910E+00  7.59869910E+00
 -1.51973982E+01  7.59869910E+00  7.59869910E+00 -1.51973982E+01  7.59869910E+00
  7.59869910E+00 -1.51973982E+01  7.59869910E+00  7.59869910E+00 -1.51973982E+01
  7.59869910E+00  7.59869910E+00 -1.51973982E+01  7.59869910E+00  7.59869910E+00
 -1.51973982E+01  7.59869910E+00  7.59869910E+00 -1.51973982E+01  7.59869910E+00
  7.59869910E+00 -1.51973982E+01  7.59869910E+00  7.59869910E+00 -1.51973982E+01
  7.59869910E+00  7.59869910E+00 -1.51973982E+01  7.59869910E+00  7.59869910E+00
 -1.51973982E+01  7.59869910E+00  7.59869910E+00 -1.51973982E+01  7.59869910E+00
  7.59869910E+00 -1.51973982E+01  7.59869910E+00  7.59869910E+00 -1.51973982E+01
  7.59869910E+00  7.59869910E+00 -1.51973982E+01  7.59869910E+00  7.59869910E+00
 -1.51973982E+01  7.59869910E+00  7.59869910E+00 -1.51973982E+01  7.59869910E+00
  7.59869910E+00 -1.51973982E+01  7.59869910E+00  7.59869910E+00 -1.51973982E+01
  7.59869910E+00  7.59869910E+00 -1.51973982E+01  7.59869910E+00  7.59869910E+00
 -1.51973982E+01  7.59869910E+00  7.59869910E+00 -1.51973982E+01  7.59869910E+00
  7.59869910E+00 -1.51973982E+01  7.59869910E+00  7.59869910E+00 -1.51973982E+01
  7.59869910E+00  7.59869910E+00 -1.51973982E+01  7.59869910E+00  7.59869910E+00
 -1.51973982E+01  7.59869910E+00  7.59869910E+00 -1.51973982E+01  7.59869910E+00
  7.59869910E+00 -1.51973982E+01  7.59869910E+00  7.59869910E+00 -1.51973982E+01
  7.59869910E+00  7.59869910E+00 -1.51973982E+01  7.59869910E+00  7.59869910E+00
 -1.51973982E+01  7.59869910E+00  7.59869910E+00 -1.51973982E+01  7.59869910E+00
  7.59869910E+00 -1.51973982E+01  7.59869910E+00  7.59869910E+00 -1.51973982E+01
  7.59869910E+00  7.59869910E+00 -1.51973982E+01  7.59869910E+00  7.59869910E+00
 -1.51973982E+01  7.59869910E+00  7.59869910E+00 -1.51973982E+01  7.59869910E+00
  7.59869910E+00 -1.51973982E+01  7.59869910E+00  7.59869910E+00 -1.51973982E+01
  7.59869910E+00  7.59869910E+00 -1.51973982E+01  7.59869910E+00  7.59869910E+00
 -1.51973982E+01  7.59869910E+00  7.59869910E+00 -1.51973982E+01  7.59869910E+00
  7.59869910E+00 -1.51973982E+01  7.59869910E+00  7.59869910E+00 -1.51973982E+01
  7.59869910E+00  7.59869910E+00 -1.51973982E+01  7.59869910E+00  7.59869910E+00
 -1.51973982E+01  7.59869910E+00  7.59869910E+00 -1.51973982E+01  7.59869910E+00
  7.59869910E+00 -1.51973982E+01  7.59869910E+00  7.59869910E+00 -1.51973982E+01
  7.59869910E+00  7.59869910E+00 -1.51973982E+01  7.59869910E+00  7.59869910E+00
 -1.51973982E+01  7.59869910E+00  7.59869910E+00 -1.51973982E+01  7.59869910E+00
  7.59869910E+00 -1.51973982E+01  7.59869910E+00  7.59869910E+00 -1.51973982E+01
  7.59869910E+00  7.59869910E+00 -1.51973982E+01  7.59869910E+00  7.59869910E+00
 -1.51973982E+01  7.59869910E+00  7.59869910E+00 -1.51973982E+01  7.59869910E+00
  7.59869910E+00 -1.51973982E+01  7.59869910E+00  7.59869910E+00 -1.51973982E+01
  7.59869910E+00  7.59869910E+00 -1.51973982E+01  7.59869910E+00  7.59869910E+00
 -1.51973982E+01  7.59869910E+00  7.59869910E+00 -1.51973982E+01  7.59869910E+00
  7.59869910E+00 -1.51973982E+01  7.59869910E+00  7.59869910E+00 -1.51973982E+01
  7.59869910E+00  7.59869910E+00 -1.51973982E+01  7.59869910E+00  7.59869910E+00
 -1.51973982E+01  7.59869910E+00  7.59869910E+00 -1.51973982E+01  7.59869910E+00
  7.59869910E+00 -1.51973982E+01  7.59869910E+00  7.59869910E+00 -1.51973982E+01
  7.59869910E+00  7.59869910E+00 -1.51973982E+01  7.59869910E+00  7.59869910E+00
 -1.51973982E+01  7.59869910E+00  7.59869910E+00 -1.51973982E+01  7.59869910E+00
  7.59869910E+00 -1.51973982E+01  7.59869910E+00  7.59869910E+00 -1.51973982E+01
  7.59869910E+00  7.59869910E+00 -1.51973982E+01  7.59869910E+00  7.59869910E+00
 -1.51973982E+01  7.59869910E+00  7.59869910E+00 -1.51973982E+01  7.59869910E+00
  7.59869910E+00 -1.51973982E+01  7.59869910E+00  7.59869910E+00 -1.51973982E+01
  7.59869910E+00  7.59869910E+00 -1.51973982E+01  7.59869910E+00  7.59869910E+00
 -1.51973982E+01  7.59869910E+00  7.59869910E+00 -1.51973982E+01  7.59869910E+00
  7.59869910E+00 -1.51973982E+01  7.59869910E+00  7.59869910E+00 -1.51973982E+01
  7.59869910E+00  7.59869910E+00 -1.51973982E+01  7.59869910E+00  7.59869910E+00
 -1.51973982E+01  7.59869910E+00  7.59869910E+00 -1.51973982E+01  7.59869910E+00
  7.59869910E+00 -1.51973982E+01  7.59869910E+00  7.59869910E+00 -1.51973982E+01
  7.59869910E+00  7.59869910E+00 -1.51973982E+01  7.59869910E+00  7.59869910E+00
 -1.51973982E+01  7.59869910E+00  7.59869910E+00 -1.51973982E+01  7.59869910E+00
  7.59869910E+00 -1.51973982E+01  7.59869910E+00  7.59869910E+00 -1.51973982E+01
  7.59869910E+00  7.59869910E+00 -1.51973982E+01  7.59869910E+00  7.59869910E+00
 -1.51973982E+01  7.59869910E+00  7.59869910E+00 -1.51973982E+01  7.59869910E+00
  7.59869910E+00 -1.51973982E+01  7.59869910E+00  7.59869910E+00 -1.51973982E+01
  7.59869910E+00  7.59869910E+00 -1.51973982E+01  7.59869910E+00  7.59869910E+00
 -1.51973982E+01  7.59869910E+00  7.59869910E+00 -1.51973982E+01  7.59869910E+00
  7.59869910E+00 -1.51973982E+01  7.59869910E+00  7.59869910E+00 -1.51973982E+01
  7.59869910E+00  7.59869910E+00 -1.51973982E+01  7.59869910E+00  7.59869910E+00
 -1.51973982E+01  7.59869910E+00  7.59869910E+00 -1.51973982E+01  7.59869910E+00
  7.59869910E+00 -1.51973982E+01  7.59869910E+00  7.59869910E+00 -1.51973982E+01
  7.59869910E+00  7.59869910E+00 -1.51973982E+01  7.59869910E+00  7.59869910E+00
 -1.51973982E+01  7.59869910E+00  7.59869910E+00 -1.51973982E+01  7.59869910E+00
  7.59869910E+00 -1.51973982E+01  7.59869910E+00  7.59869910E+00 -1.51973982E+01
  7.59869910E+00  7.59869910E+00 -1.51973982E+01  7.59869910E+00  7.59869910E+00
 -1.51973982E+01  7.59869910E+00  7.59869910E+00 -1.51973982E+01  7.59869910E+00
  7.59869910E+00 -1.51973982E+01  7.59869910E+00  7.59869910E+00 -1.51973982E+01
  7.59869910E+00  7.59869910E+00 -1.51973982E+01  7.59869910E+00  7.59869910E+00
 -1.51973982E+01  7.59869910E+00  7.59869910E+00 -1.51973982E+01  7.59869910E+00
  7.59869910E+00 -1.51973982E+01  7.59869910E+00  7.59869910E+00 -1.51973982E+01
  7.59869910E+00  7.59869910E+00 -1.51973982E+01  7.59869910E+00  7.59869910E+00
 -1.51973982E+01  7.59869910E+00  7.59869910E+00 -1.51973982E+01  7.59869910E+00
  7.59869910E+00 -1.51973982E+01  7.59869910E+00  7.59869910E+00 -1.51973982E+01
  7.59869910E+00  7.59869910E+00 -1.51973982E+01  7.59869910E+00  7.59869910E+00
 -1.51973982E+01  7.59869910E+00  7.59869910E+00 -1.51973982E+01  7.59869910E+00
  7.59869910E+00 -1.51973982E+01  7.59869910E+00  7.59869910E+00 -1.51973982E+01
  7.59869910E+00  7.59869910E+00 -1.51973982E+01  7.59869910E+00  7.59869910E+00
 -1.51973982E+01  7.59869910E+00  7.59869910E+00 -1.51973982E+01  7.59869910E+00
  7.59869910E+00 -1.51973982E+01  7.59869910E+00  7.59869910E+00 -1.51973982E+01
  7.59869910E+00  7.59869910E+00 -1.51973982E+01  7.59869910E+00  7.59869910E+00
 -1.51973982E+01  7.59869910E+00  7.59869910E+00 -1.51973982E+01  7.59869910E+00
  7.59869910E+00 -1.51973982E+01  7.59869910E+00  7.59869910E+00 -1.51973982E+01
  7.59869910E+00  7.59869910E+00 -1.51973982E+01  7.59869910E+00  7.59869910E+00
 -1.51973982E+01  7.59869910E+00  7.59869910E+00 -1.51973982E+01  7.59869910E+00
  7.59869910E+00 -1.51973982E+01  7.59869910E+00  7.59869910E+00 -1.51973982E+01
  7.59869910E+00  7.59869910E+00 -1.51973982E+01  7.59869910E+00  7.59869910E+00
 -1.51973982E+01  7.59869910E+00  7.59869910E+00 -1.51973982E+01  7.59869910E+00
  7.59869910E+00 -1.51973982E+01  7.59869910E+00  7.59869910E+00 -1.51973982E+01
  7.59869910E+00  7.59869910E+00 -1.51973982E+01  7.59869910E+00  7.59869910E+00
 -1.51973982E+01  7.59869910E+00  7.59869910E+00 -1.51973982E+01  7.59869910E+00
  7.59869910E+00 -1.51973982E+01  7.59869910E+00  7.59869910E+00 -1.51973982E+01
  7.59869910E+00  7.59869910E+00 -1.51973982E+01  7.59869910E+00  7.59869910E+00
 -1.51973982E+01  7.59869910E+00  7.59869910E+00 -1.51973982E+01  7.59869910E+00
  7.59869910E+00 -1.51973982E+01  7.59869910E+00  7.59869910E+00 -1.51973982E+01
  7.59869910E+00  7.59869910E+00 -1.51973982E+01  7.59869910E+00  7.59869910E+00
 -1.51973982E+01  7.59869910E+00  7.59869910E+00 -1.51973982E+01  7.59869910E+00
  7.59869910E+00 -1.51973982E+01  7.59869910E+00  7.59869910E+00 -1.51973982E+01
  7.59869910E+00  7.59869910E+00 -1.51973982E+01  7.59869910E+00  7.59869910E+00
 -1.51973982E+01  7.59869910E+00  7.59869910E+00 -1.51973982E+01  7.59869910E+00
  7.59869910E+00 -1.51973982E+01  7.59869910E+00  7.59869910E+00 -1.51973982E+01
  7.59869910E+00  7.59869910E+00 -1.51973982E+01  7.59869910E+00  7.59869910E+00
 -1.51973982E+01  7.59869910E+00  7.59869910E+00 -1.51973982E+01  7.59869910E+00
  7.59869910E+00 -1.51973982E+01  7.59869910E+00  7.59869910E+00 -1.51973982E+01
  7.59869910E+00  7.59869910E+00 -1.51973982E+01  7.59869910E+00  7.59869910E+00
 -1.51973982E+01  7.59869910E+00  7.59869910E+00 -1.51973982E+01  7.59869910E+00
  7.59869910E+00 -1.51973982E+01  7.59869910E+00  7.59869910E+00 -1.51973982E+01
  7.59869910E+00  7.59869910E+00 -1.51973982E+01  7.59869910E+00  7.59869910E+00
 -1.51973982E+01  7.59869910E+00  7.59869910E+00 -1.51973982E+01  7.59869910E+00
  7.59869910E+00 -1.51973982E+01  7.59869910E+00  7.59869910E+00 -1.51973982E+01
  7.59869910E+00  7.59869910E+00 -1.51973982E+01  7.59869910E+00  7.59869910E+00
 -1.51973982E+01  7.59869910E+00  7.59869910E+00 -1.51973982E+01  7.59869910E+00
  7.59869910E+00 -1.51973982E+01  7.59869910E+00  7.59869910E+00 -1.51973982E+01
  7.59869910E+00  7.59869910E+00 -1.51973982E+01  7.59869910E+00  7.59869910E+00
 -1.51973982E+01  7.59869910E+00  7.59869910E+00 -1.51973982E+01  7.59869910E+00
  7.59869910E+00 -1.51973982E+01  7.59869910E+00  7.59869910E+00 -1.51973982E+01
  7.59869910E+00  7.59869910E+00 -1.51973982E+01  7.59869910E+00  7.59869910E+00
 -1.51973982E+01  7.59869910E+00  7.59869910E+00 -1.51973982E+01  7.59869910E+00
  7.59869910E+00 -1.51973982E+01  7.59869910E+00  7.59869910E+00 -1.51973982E+01
  7.59869910E+00  7.59869910E+00 -1.51973982E+01  7.59869910E+00  7.59869910E+00
 -1.51973982E+01  7.59869910E+00  7.59869910E+00 -1.51973982E+01  7.59869910E+00
  7.59869910E+00 -1.51973982E+01  7.59869910E+00  7.59869910E+00 -1.51973982E+01
  7.59869910E+00  7.59869910E+00 -1.51973982E+01  7.59869910E+00  7.59869910E+00
 -1.51973982E+01  7.59869910E+00  7.59869910E+00 -1.51973982E+01  7.59869910E+00
  7.59869910E+00 -1.51973982E+01  7.59869910E+00  7.59869910E+00 -1.51973982E+01
  7.59869910E+00  7.59869910E+00 -1.51973982E+01  7.59869910E+00  7.59869910E+00
 -1.51973982E+01  7.59869910E+00  7.59869910E+00 -1.51973982E+01  7.59869910E+00
  7.59869910E+00 -1.51973982E+01  7.59869910E+00  7.59869910E+00 -1.51973982E+01
  7.59869910E+00  7.59869910E+00 -1.51973982E+01  7.59869910E+00  7.59869910E+00
 -1.51973982E+01  7.59869910E+00  7.59869910E+00 -1.51973982E+01  7.59869910E+00
  7.59869910E+00 -1.51973982E+01  7.59869910E+00  7.59869910E+00 -1.51973982E+01
  7.59869910E+00  7.59869910E+00 -1.51973982E+01  7.59869910E+00  7.59869910E+00
 -1.51973982E+01  7.59869910E+00  7.59869910E+00 -1.51973982E+01  7.59869910E+00
  7.59869910E+00 -1.51973982E+01  7.59869910E+00  7.59869910E+00 -1.51973982E+01
  7.59869910E+00  7.59869910E+00 -1.51973982E+01  7.59869910E+00  7.59869910E+00
 -1.51973982E+01  7.59869910E+00  7.59869910E+00 -1.51973982E+01  7.59869910E+00
  7.59869910E+00 -1.51973982E+01  7.59869910E+00  7.59869910E+00 -1.51973982E+01
  7.59869910E+00  7.59869910E+00 -1.51973982E+01  7.59869910E+00  7.59869910E+00
 -1.51973982E+01  7.59869910E+00  7.59869910E+00 -1.51973982E+01  7.59869910E+00
  7.59869910E+00 -1.51973982E+01  7.59869910E+00  7.59869910E+00 -1.51973982E+01
  7.59869910E+00  7.59869910E+00 -1.51973982E+01  7.59869910E+00  7.59869910E+00
 -1.51973982E+01  7.59869910E+00  7.59869910E+00 -1.51973982E+01  7.59869910E+00
  7.59869910E+00 -1.51973982E+01  7.59869910E+00  7.59869910E+00 -1.51973982E+01
  7.59869910E+00  7.59869910E+00 -1.51973982E+01  7.59869910E+00  7.59869910E+00
 -1.51973982E+01  7.59869910E+00  7.59869910E+00 -1.51973982E+01  7.59869910E+00
  7.59869910E+00 -1.51973982E+01  7.59869910E+00  7.59869910E+00 -1.51973982E+01
  7.59869910E+00  7.59869910E+00 -1.51973982E+01  7.59869910E+00  7.59869910E+00
 -1.51973982E+01  7.59869910E+00  7.59869910E+00 -1.51973982E+01  7.59869910E+00
  7.59869910E+00 -1.51973982E+01  7.59869910E+00  7.59869910E+00 -1.51973982E+01
  7.59869910E+00  7.59869910E+00 -1.51973982E+01  7.59869910E+00  7.59869910E+00
 -1.51973982E+01  7.59869910E+00  7.59869910E+00 -1.51973982E+01  7.59869910E+00
  7.59869910E+00 -1.51973982E+01  7.59869910E+00  7.59869910E+00 -1.51973982E+01
  7.59869910E+00  7.59869910E+00 -1.51973982E+01  7.59869910E+00  7.59869910E+00
 -1.51973982E+01  7.59869910E+00  7.59869910E+00 -1.51973982E+01  7.59869910E+00
  7.59869910E+00 -1.51973982E+01  7.59869910E+00  7.59869910E+00 -1.51973982E+01
  7.59869910E+00  7.59869910E+00 -1.51973982E+01  7.59869910E+00  7.59869910E+00
 -1.51973982E+01  7.59869910E+00  7.59869910E+00 -1.51973982E+01  7.59869910E+00
  7.59869910E+00 -1.51973982E+01  7.59869910E+00  7.59869910E+00 -1.51973982E+01
  7.59869910E+00  7.59869910E+00 -1.51973982E+01  7.59869910E+00  7.59869910E+00
 -1.51973982E+01  7.59869910E+00  7.59869910E+00 -1.51973982E+01  7.59869910E+00
  7.59869910E+00 -1.51973982E+01  7.59869910E+00  7.59869910E+00 -1.51973982E+01
  7.59869910E+00  7.59869910E+00 -1.51973982E+01  7.59869910E+00  7.59869910E+00
 -1.51973982E+01  7.59869910E+00  7.59869910E+00 -1.51973982E+01  7.59869910E+00
  7.59869910E+00 -1.51973982E+01  7.59869910E+00  7.59869910E+00 -1.51973982E+01
  7.59869910E+00  7.59869910E+00 -1.51973982E+01  7.59869910E+00  7.59869910E+00
 -1.51973982E+01  7.59869910E+00  7.59869910E+00 -1.51973982E+01  7.59869910E+00
  7.59869910E+00 -1.51973982E+01  7.59869910E+00  7.59869910E+00 -1.51973982E+01
  7.59869910E+00  7.59869910E+00 -1.51973982E+01  7.59869910E+00  7.59869910E+00
 -1.51973982E+01  7.59869910E+00  7.59869910E+00 -1.51973982E+01  7.59869910E+00
  7.59869910E+00 -1.51973982E+01  7.59869910E+00  7.59869910E+00 -1.51973982E+01
  7.59869910E+00  7.59869910E+00 -1.51973982E+01  7.59869910E+00  7.59869910E+00
 -1.51973982E+01  7.59869910E+00  7.59869910E+00 -1.51973982E+01  7.59869910E+00
  7.59869910E+00 -1.51973982E+01  7.59869910E+00  7.59869910E+00 -1.51973982E+01
  7.59869910E+00  7.59869910E+00 -1.51973982E+01  7.59869910E+00  7.59869910E+00
 -1.51973982E+01  7.59869910E+00  7.59869910E+00 -1.51973982E+01  7.59869910E+00
  7.59869910E+00 -1.51973982E+01  7.59869910E+00  7.59869910E+00 -1.51973982E+01
  7.59869910E+00  7.59869910E+00 -1.51973982E+01  7.59869910E+00  7.59869910E+00
 -1.51973982E+01  7.59869910E+00  7.59869910E+00 -1.51973982E+01  7.59869910E+00
  7.59869910E+00 -1.51973982E+01  7.59869910E+00  7.59869910E+00 -1.51973982E+01
  7.59869910E+00  7.59869910E+00 -1.51973982E+01  7.59869910E+00  7.59869910E+00
 -1.51973982E+01  7.59869910E+00  7.59869910E+00 -1.51973982E+01  7.59869910E+00
  7.59869910E+00 -1.51973982E+01  7.59869910E+00  7.59869910E+00 -1.51973982E+01
  7.59869910E+00  7.59869910E+00 -1.51973982E+01  7.59869910E+00  7.59869910E+00
 -1.51973982E+01  7.59869910E+00  7.59869910E+00 -1.51973982E+01  7.59869910E+00
  7.59869910E+00 -1.51973982E+01  7.59869910E+00  7.59869910E+00 -1.51973982E+01
  7.59869910E+00  7.59869910E+00 -1.51973982E+01  7.59869910E+00  7.59869910E+00
 -1.51973982E+01  7.59869910E+00  7.59869910E+00 -1.51973982E+01  7.59869910E+00
  7.59869910E+00 -1.51973982E+01  7.59869910E+00  7.59869910E+00 -1.51973982E+01
  7.59869910E+00  7.59869910E+00 -1.51973982E+01  7.59869910E+00  7.59869910E+00
 -1.51973982E+01  7.59869910E+00  7.59869910E+00 -1.51973982E+01  7.59869910E+00
  7.59869910E+00 -1.51973982E+01  7.59869910E+00  7.59869910E+00 -1.51973982E+01
  7.59869910E+00  7.59869910E+00 -1.51973982E+01  7.59869910E+00  7.59869910E+00
 -1.51973982E+01  7.59869910E+00  7.59869910E+00 -1.51973982E+01  7.59869910E+00
  7.59869910E+00 -1.51973982E+01  7.59869910E+00  7.59869910E+00 -1.51973982E+01
  7.59869910E+00  7.59869910E+00 -1.51973982E+01  7.59869910E+00  7.59869910E+00
 -1.51973982E+01  7.59869910E+00  7.59869910E+00 -1.51973982E+01  7.59869910E+00
  7.59869910E+00 -1.51973982E+01  7.59869910E+00  7.59869910E+00 -1.51973982E+01
  7.59869910E+00  7.59869910E+00 -1.51973982E+01  7.59869910E+00  7.59869910E+00
 -1.51973982E+01  7.59869910E+00  7.59869910E+00 -1.51973982E+01  7.59869910E+00
  7.59869910E+00 -1.51973982E+01  7.59869910E+00  7.59869910E+00 -1.51973982E+01
  7.59869910E+00  7.59869910E+00 -1.51973982E+01  7.59869910E+00  7.59869910E+00
 -1.51973982E+01  7.59869910E+00  7.59869910E+00 -1.51973982E+01  7.59869910E+00
  7.59869910E+00 -1.51973982E+01  7.59869910E+00  7.59869910E+00 -1.51973982E+01
  7.59869910E+00  7.59869910E+00 -1.51973982E+01  7.59869910E+00  7.59869910E+00
 -1.51973982E+01  7.59869910E+00  7.59869910E+00 -1.51973982E+01  7.59869910E+00
  7.59869910E+00 -1.51973982E+01  7.59869910E+00  7.59869910E+00 -1.51973982E+01
  7.59869910E+00  7.59869910E+00 -1.51973982E+01  7.59869910E+00  7.59869910E+00
 -1.51973982E+01  7.59869910E+00  7.59869910E+00 -1.51973982E+01  7.59869910E+00
  7.59869910E+00 -1.51973982E+01  7.59869910E+00  7.59869910E+00 -1.51973982E+01
  7.59869910E+00  7.59869910E+00 -1.51973982E+01  7.59869910E+00  7.59869910E+00
 -1.51973982E+01  7.59869910E+00  7.59869910E+00 -1.51973982E+01  7.59869910E+00
  7.59869910E+00 -1.51973982E+01  7.59869910E+00  7.59869910E+00 -1.51973982E+01
  7.59869910E+00  7.59869910E+00 -1.51973982E+01  7.59869910E+00  7.59869910E+00
 -1.51973982E+01  7.59869910E+00  7.59869910E+00 -1.51973982E+01  7.59869910E+00
  7.59869910E+00 -1.51973982E+01  7.59869910E+00  7.59869910E+00 -1.51973982E+01
  7.59869910E+00  7.59869910E+00 -1.51973982E+01  7.59869910E+00  7.59869910E+00
 -1.51973982E+01  7.59869910E+00  7.59869910E+00 -1.51973982E+01  7.59869910E+00
  7.59869910E+00 -1.51973982E+01  7.59869910E+00  7.59869910E+00 -1.51973982E+01
  7.59869910E+00  7.59869910E+00 -1.51973982E+01  7.59869910E+00  7.59869910E+00
 -1.51973982E+01  7.59869910E+00  7.59869910E+00 -1.51973982E+01  7.59869910E+00
  7.59869910E+00 -1.51973982E+01  7.59869910E+00  7.59869910E+00 -1.51973982E+01
  7.59869910E+00  7.59869910E+00 -1.51973982E+01  7.59869910E+00  7.59869910E+00
 -1.51973982E+01  7.59869910E+00  7.59869910E+00 -1.51973982E+01  7.59869910E+00
  7.59869910E+00 -1.51973982E+01  7.59869910E+00  7.59869910E+00 -1.51973982E+01
  7.59869910E+00  7.59869910E+00 -1.51973982E+01  7.59869910E+00  7.59869910E+00
 -1.51973982E+01  7.59869910E+00  7.59869910E+00 -1.51973982E+01  7.59869910E+00
  7.59869910E+00 -1.51973982E+01  7.59869910E+00  7.59869910E+00 -1.51973982E+01
  7.59869910E+00  7.59869910E+00 -1.51973982E+01  7.59869910E+00  7.59869910E+00
 -1.51973982E+01  7.59869910E+00  7.59869910E+00 -1.51973982E+01  7.59869910E+00
  7.59869910E+00 -1.51973982E+01  7.59869910E+00  7.59869910E+00 -1.51973982E+01
  7.59869910E+00  7.59869910E+00 -1.51973982E+01  7.59869910E+00  7.59869910E+00
 -1.51973982E+01  7.59869910E+00  7.59869910E+00 -1.51973982E+01  7.59869910E+00
  7.59869910E+00 -1.51973982E+01  7.59869910E+00  7.59869910E+00 -1.51973982E+01
  7.59869910E+00  7.59869910E+00 -1.51973982E+01  7.59869910E+00  7.59869910E+00
 -1.51973982E+01  7.59869910E+00  7.59869910E+00 -1.51973982E+01  7.59869910E+00
  7.59869910E+00 -1.51973982E+01  7.59869910E+00  7.59869910E+00 -1.51973982E+01
  7.59869910E+00  7.59869910E+00 -1.51973982E+01  7.59869910E+00  7.59869910E+00
 -1.51973982E+01  7.59869910E+00  7.59869910E+00 -1.51973982E+01  7.59869910E+00
  7.59869910E+00 -1.51973982E+01  7.59869910E+00  7.59869910E+00 -1.51973982E+01
  7.59869910E+00  7.59869910E+00 -1.51973982E+01  7.59869910E+00  7.59869910E+00
 -1.51973982E+01  7.59869910E+00  7.59869910E+00 -1.51973982E+01  7.59869910E+00
  7.59869910E+00 -1.51973982E+01  7.59869910E+00  7.59869910E+00 -1.51973982E+01
  7.59869910E+00  7.59869910E+00 -1.51973982E+01  7.59869910E+00  7.59869910E+00
 -1.51973982E+01  7.59869910E+00  7.59869910E+00 -1.51973982E+01  7.59869910E+00
  7.59869910E+00 -1.51973982E+01  7.59869910E+00  7.59869910E+00 -1.51973982E+01
  7.59869910E+00  7.59869910E+00 -1.51973982E+01  7.59869910E+00  7.59869910E+00
 -1.51973982E+01  7.59869910E+00  7.59869910E+00 -1.51973982E+01  7.59869910E+00
  7.59869910E+00 -1.51973982E+01  7.59869910E+00  7.59869910E+00 -1.51973982E+01
  7.59869910E+00  7.59869910E+00 -1.51973982E+01  7.59869910E+00  7.59869910E+00
 -1.51973982E+01  7.59869910E+00  7.59869910E+00 -1.51973982E+01  7.59869910E+00
  7.59869910E+00 -1.51973982E+01  7.59869910E+00  7.59869910E+00 -1.51973982E+01
  7.59869910E+00  7.59869910E+00 -1.51973982E+01  7.59869910E+00  7.59869910E+00
 -1.51973982E+01  7.59869910E+00  7.59869910E+00 -1.51973982E+01  7.59869910E+00
  7.59869910E+00 -1.51973982E+01  7.59869910E+00  7.59869910E+00 -1.51973982E+01
  7.59869910E+00  7.59869910E+00 -1.51973982E+01  7.59869910E+00  7.59869910E+00
 -1.51973982E+01  7.59869910E+00  7.59869910E+00 -1.51973982E+01  7.59869910E+00
  7.59869910E+00 -1.51973982E+01  7.59869910E+00  7.59869910E+00 -1.51973982E+01
  7.59869910E+00  7.59869910E+00 -1.51973982E+01  7.59869910E+00  7.59869910E+00
 -1.51973982E+01  7.59869910E+00  7.59869910E+00 -1.51973982E+01  7.59869910E+00
  7.59869910E+00 -1.51973982E+01  7.59869910E+00  7.59869910E+00 -1.51973982E+01
  7.59869910E+00  7.59869910E+00 -1.51973982E+01  7.59869910E+00  7.59869910E+00
 -1.51973982E+01  7.59869910E+00  7.59869910E+00 -1.51973982E+01  7.59869910E+00
  7.59869910E+00 -1.51973982E+01  7.59869910E+00  7.59869910E+00 -1.51973982E+01
  7.59869910E+00  7.59869910E+00 -1.51973982E+01  7.59869910E+00  7.59869910E+00
 -1.51973982E+01  7.59869910E+00  7.59869910E+00 -1.51973982E+01  7.59869910E+00
  7.59869910E+00 -1.51973982E+01  7.59869910E+00  7.59869910E+00 -1.51973982E+01
  7.59869910E+00  7.59869910E+00 -1.51973982E+01  7.59869910E+00  7.59869910E+00
 -1.51973982E+01  7.59869910E+00  7.59869910E+00 -1.51973982E+01  7.59869910E+00
  7.59869910E+00 -1.51973982E+01  7.59869910E+00  7.59869910E+00 -1.51973982E+01
  7.59869910E+00  7.59869910E+00 -1.51973982E+01  7.59869910E+00  7.59869910E+00
 -1.51973982E+01  7.59869910E+00  7.59869910E+00 -1.51973982E+01  7.59869910E+00
  7.59869910E+00 -1.51973982E+01  7.59869910E+00  7.59869910E+00 -1.51973982E+01
  7.59869910E+00  7.59869910E+00 -1.51973982E+01  7.59869910E+00  7.59869910E+00
 -1.51973982E+01  7.59869910E+00  7.59869910E+00 -1.51973982E+01  7.59869910E+00
  7.59869910E+00 -1.51973982E+01  7.59869910E+00  7.59869910E+00 -1.51973982E+01
  7.59869910E+00  7.59869910E+00 -1.51973982E+01  7.59869910E+00  7.59869910E+00
 -1.51973982E+01  7.59869910E+00  7.59869910E+00 -1.51973982E+01  7.59869910E+00
  7.59869910E+00 -1.51973982E+01  7.59869910E+00  7.59869910E+00 -1.51973982E+01
  7.59869910E+00  7.59869910E+00 -1.51973982E+01  7.59869910E+00  7.59869910E+00
 -1.51973982E+01  7.59869910E+00  7.59869910E+00 -1.51973982E+01  7.59869910E+00
  7.59869910E+00 -1.51973982E+01  7.59869910E+00  7.59869910E+00 -1.51973982E+01
  7.59869910E+00  7.59869910E+00 -1.51973982E+01  7.59869910E+00  7.59869910E+00
 -1.51973982E+01  7.59869910E+00  7.59869910E+00 -1.51973982E+01  7.59869910E+00
  7.59869910E+00 -1.51973982E+01  7.59869910E+00  7.59869910E+00 -1.51973982E+01
  7.59869910E+00  7.59869910E+00 -1.51973982E+01  7.59869910E+00  7.59869910E+00
 -1.51973982E+01  7.59869910E+00  7.59869910E+00 -1.51973982E+01  7.59869910E+00
  7.59869910E+00 -1.51973982E+01  7.59869910E+00  7.59869910E+00 -1.51973982E+01
  7.59869910E+00  7.59869910E+00 -1.51973982E+01  7.59869910E+00  7.59869910E+00
 -1.51973982E+01  7.59869910E+00  7.59869910E+00 -1.51973982E+01  7.59869910E+00
  7.59869910E+00 -1.51973982E+01  7.59869910E+00  7.59869910E+00 -1.51973982E+01
  7.59869910E+00  7.59869910E+00 -1.51973982E+01  7.59869910E+00  7.59869910E+00
 -1.51973982E+01  7.59869910E+00  7.59869910E+00 -1.51973982E+01  7.59869910E+00
  7.59869910E+00 -1.51973982E+01  7.59869910E+00  7.59869910E+00 -1.51973982E+01
  7.59869910E+00  7.59869910E+00 -1.51973982E+01  7.59869910E+00  7.59869910E+00
 -1.51973982E+01  7.59869910E+00  7.59869910E+00 -1.51973982E+01  7.59869910E+00
  7.59869910E+00 -1.51973982E+01  7.59869910E+00  7.59869910E+00 -1.51973982E+01
  7.59869910E+00  7.59869910E+00 -1.51973982E+01  7.59869910E+00  7.59869910E+00
 -1.51973982E+01  7.59869910E+00  7.59869910E+00 -1.51973982E+01  7.59869910E+00
  7.59869910E+00 -1.51973982E+01  7.59869910E+00  7.59869910E+00 -1.51973982E+01
  7.59869910E+00  7.59869910E+00 -1.51973982E+01  7.59869910E+00  7.59869910E+00
 -1.51973982E+01  7.59869910E+00  7.59869910E+00 -1.51973982E+01  7.59869910E+00
  7.59869910E+00 -1.51973982E+01  7.59869910E+00  7.59869910E+00 -1.51973982E+01
  7.59869910E+00  7.59869910E+00 -1.51973982E+01  7.59869910E+00  7.59869910E+00
 -1.51973982E+01  7.59869910E+00  7.59869910E+00 -1.51973982E+01  7.59869910E+00
  7.59869910E+00 -1.51973982E+01  7.59869910E+00  7.59869910E+00 -1.51973982E+01
  7.59869910E+00  7.59869910E+00 -1.51973982E+01  7.59869910E+00  7.59869910E+00
 -1.51973982E+01  7.59869910E+00  7.59869910E+00 -1.51973982E+01  7.59869910E+00
  7.59869910E+00 -1.51973982E+01  7.59869910E+00  7.59869910E+00 -1.51973982E+01
  7.59869910E+00  7.59869910E+00 -1.51973982E+01  7.59869910E+00  7.59869910E+00
 -1.51973982E+01  7.59869910E+00  7.59869910E+00 -1.51973982E+01  7.59869910E+00
  7.59869910E+00 -1.51973982E+01  7.59869910E+00  7.59869910E+00 -1.51973982E+01
  7.59869910E+00  7.59869910E+00 -1.51973982E+01  7.59869910E+00  7.59869910E+00
 -1.51973982E+01  7.59869910E+00  7.59869910E+00 -1.51973982E+01  7.59869910E+00
  7.59869910E+00 -1.51973982E+01  7.59869910E+00  7.59869910E+00 -1.51973982E+01
  7.59869910E+00  7.59869910E+00 -1.51973982E+01  7.59869910E+00  7.59869910E+00
 -1.51973982E+01  7.59869910E+00  7.59869910E+00 -1.51973982E+01  7.59869910E+00
  7.59869910E+00 -1.51973982E+01  7.59869910E+00  7.59869910E+00 -1.51973982E+01
  7.59869910E+00  7.59869910E+00 -1.51973982E+01  7.59869910E+00  7.59869910E+00
 -1.51973982E+01  7.59869910E+00  7.59869910E+00 -1.51973982E+01  7.59869910E+00
  7.59869910E+00 -1.51973982E+01  7.59869910E+00  7.59869910E+00 -1.51973982E+01
  7.59869910E+00  7.59869910E+00 -1.51973982E+01  7.59869910E+00  7.59869910E+00
 -1.51973982E+01  7.59869910E+00  7.59869910E+00 -1.51973982E+01  7.59869910E+00
  7.59869910E+00 -1.51973982E+01  7.59869910E+00  7.59869910E+00 -1.51973982E+01
  7.59869910E+00  7.59869910E+00 -1.51973982E+01  7.59869910E+00  7.59869910E+00
 -1.51973982E+01  7.59869910E+00  7.59869910E+00 -1.51973982E+01  7.59869910E+00
  7.59869910E+00 -1.51973982E+01  7.59869910E+00  7.59869910E+00 -1.51973982E+01
  7.59869910E+00  7.59869910E+00 -1.51973982E+01  7.59869910E+00  7.59869910E+00
 -1.51973982E+01  7.59869910E+00  7.59869910E+00 -1.51973982E+01  7.59869910E+00
  7.59869910E+00 -1.51973982E+01  7.59869910E+00  7.59869910E+00 -1.51973982E+01
  7.59869910E+00  7.59869910E+00 -1.51973982E+01  7.59869910E+00  7.59869910E+00
 -1.51973982E+01  7.59869910E+00  7.59869910E+00 -1.51973982E+01  7.59869910E+00
  7.59869910E+00 -1.51973982E+01  7.59869910E+00  7.59869910E+00 -1.51973982E+01
  7.59869910E+00  7.59869910E+00 -1.51973982E+01  7.59869910E+00  7.59869910E+00
 -1.51973982E+01  7.59869910E+00  7.59869910E+00 -1.51973982E+01  7.59869910E+00
  7.59869910E+00 -1.51973982E+01  7.59869910E+00  7.59869910E+00 -1.51973982E+01
  7.59869910E+00  7.59869910E+00 -1.51973982E+01  7.59869910E+00  7.59869910E+00
 -1.51973982E+01  7.59869910E+00  7.59869910E+00 -1.51973982E+01  7.59869910E+00
  7.59869910E+00 -1.51973982E+01  7.59869910E+00  7.59869910E+00 -1.51973982E+01
  7.59869910E+00  7.59869910E+00 -1.51973982E+01  7.59869910E+00  7.59869910E+00
 -1.51973982E+01  7.59869910E+00  7.59869910E+00 -1.51973982E+01  7.59869910E+00
  7.59869910E+00 -1.51973982E+01  7.59869910E+00  7.59869910E+00 -1.51973982E+01
  7.59869910E+00  7.59869910E+00 -1.51973982E+01  7.59869910E+00  7.59869910E+00
 -1.51973982E+01  7.59869910E+00  7.59869910E+00 -1.51973982E+01  7.59869910E+00
  7.59869910E+00 -1.51973982E+01  7.59869910E+00  7.59869910E+00 -1.51973982E+01
  7.59869910E+00  7.59869910E+00 -1.51973982E+01  7.59869910E+00  7.59869910E+00
 -1.51973982E+01  7.59869910E+00  7.59869910E+00 -1.51973982E+01  7.59869910E+00
  7.59869910E+00 -1.51973982E+01  7.59869910E+00  7.59869910E+00 -1.51973982E+01
  7.59869910E+00  7.59869910E+00 -1.51973982E+01  7.59869910E+00  7.59869910E+00
 -1.51973982E+01  7.59869910E+00  7.59869910E+00 -1.51973982E+01  7.59869910E+00
  7.59869910E+00 -1.51973982E+01  7.59869910E+00  7.59869910E+00 -1.51973982E+01
  7.59869910E+00  7.59869910E+00 -1.51973982E+01  7.59869910E+00  7.59869910E+00
 -1.51973982E+01  7.59869910E+00  7.59869910E+00 -1.51973982E+01  7.59869910E+00
  7.59869910E+00 -1.51973982E+01  7.59869910E+00  7.59869910E+00 -1.51973982E+01
  7.59869910E+00  7.59869910E+00 -1.51973982E+01  7.59869910E+00  7.59869910E+00
 -1.51973982E+01  7.59869910E+00  7.59869910E+00 -1.51973982E+01  7.59869910E+00
  7.59869910E+00 -1.51973982E+01  7.59869910E+00  7.59869910E+00 -1.51973982E+01
  7.59869910E+00  7.59869910E+00 -1.51973982E+01  7.59869910E+00  7.59869910E+00
 -1.51973982E+01  7.59869910E+00  7.59869910E+00 -1.51973982E+01  7.59869910E+00
  7.59869910E+00 -1.51973982E+01  7.59869910E+00  7.59869910E+00 -1.51973982E+01
  7.59869910E+00  7.59869910E+00 -1.51973982E+01  7.59869910E+00  7.59869910E+00
 -1.51973982E+01  7.59869910E+00  7.59869910E+00 -1.51973982E+01  7.59869910E+00
  7.59869910E+00 -1.51973982E+01  7.59869910E+00  7.59869910E+00 -1.51973982E+01
  7.59869910E+00  7.59869910E+00 -1.51973982E+01  7.59869910E+00  7.59869910E+00
 -1.51973982E+01  7.59869910E+00  7.59869910E+00 -1.51973982E+01  7.59869910E+00
  7.59869910E+00 -1.51973982E+01  7.59869910E+00  7.59869910E+00 -1.51973982E+01
  7.59869910E+00  7.59869910E+00 -1.51973982E+01  7.59869910E+00  7.59869910E+00
 -1.51973982E+01  7.59869910E+00  7.59869910E+00 -1.51973982E+01  7.59869910E+00
  7.59869910E+00 -1.51973982E+01  7.59869910E+00  7.59869910E+00 -1.51973982E+01
  7.59869910E+00  7.59869910E+00 -1.51973982E+01  7.59869910E+00  7.59869910E+00
 -1.51973982E+01  7.59869910E+00  7.59869910E+00 -1.51973982E+01  7.59869910E+00
  7.59869910E+00 -1.51973982E+01  7.59869910E+00  7.59869910E+00 -1.51973982E+01
  7.59869910E+00  7.59869910E+00 -1.51973982E+01  7.59869910E+00  7.59869910E+00
 -1.51973982E+01  7.59869910E+00  7.59869910E+00 -1.51973982E+01  7.59869910E+00
  7.59869910E+00 -1.51973982E+01  7.59869910E+00  7.59869910E+00 -1.51973982E+01
  7.59869910E+00  7.59869910E+00 -1.51973982E+01  7.59869910E+00  7.59869910E+00
 -1.51973982E+01  7.59869910E+00  7.59869910E+00 -1.51973982E+01  7.59869910E+00
  7.59869910E+00 -1.51973982E+01  7.59869910E+00  7.59869910E+00 -1.51973982E+01
  7.59869910E+00  7.59869910E+00 -1.51973982E+01  7.59869910E+00  7.59869910E+00
 -1.51973982E+01  7.59869910E+00  7.59869910E+00 -1.51973982E+01  7.59869910E+00
  7.59869910E+00 -1.51973982E+01  7.59869910E+00  7.59869910E+00 -1.51973982E+01
  7.59869910E+00  7.59869910E+00 -1.51973982E+01  7.59869910E+00  7.59869910E+00
 -1.51973982E+01  7.59869910E+00  7.59869910E+00 -1.51973982E+01  7.59869910E+00
  7.59869910E+00 -1.51973982E+01  7.59869910E+00  7.59869910E+00 -1.51973982E+01
  7.59869910E+00  7.59869910E+00 -1.51973982E+01  7.59869910E+00  7.59869910E+00
 -1.51973982E+01  7.59869910E+00  7.59869910E+00 -1.51973982E+01  7.59869910E+00
  7.59869910E+00 -1.51973982E+01  7.59869910E+00  7.59869910E+00 -1.51973982E+01
  7.59869910E+00  7.59869910E+00 -1.51973982E+01  7.59869910E+00  7.59869910E+00
 -1.51973982E+01  7.59869910E+00  7.59869910E+00 -1.51973982E+01  7.59869910E+00
  7.59869910E+00 -1.51973982E+01  7.59869910E+00  7.59869910E+00 -1.51973982E+01
  7.59869910E+00  7.59869910E+00 -1.51973982E+01  7.59869910E+00  7.59869910E+00
 -1.51973982E+01  7.59869910E+00  7.59869910E+00 -1.51973982E+01  7.59869910E+00
  7.59869910E+00 -1.51973982E+01  7.59869910E+00  7.59869910E+00 -1.51973982E+01
  7.59869910E+00  7.59869910E+00 -1.51973982E+01  7.59869910E+00  7.59869910E+00
 -1.51973982E+01  7.59869910E+00  7.59869910E+00 -1.51973982E+01  7.59869910E+00
  7.59869910E+00 -1.51973982E+01  7.59869910E+00  7.59869910E+00 -1.51973982E+01
  7.59869910E+00  7.59869910E+00 -1.51973982E+01  7.59869910E+00  7.59869910E+00
 -1.51973982E+01  7.59869910E+00  7.59869910E+00 -1.51973982E+01  7.59869910E+00
  7.59869910E+00 -1.51973982E+01  7.59869910E+00  7.59869910E+00 -1.51973982E+01
  7.59869910E+00  7.59869910E+00 -1.51973982E+01  7.59869910E+00  7.59869910E+00
 -1.51973982E+01  7.59869910E+00  7.59869910E+00 -1.51973982E+01  7.59869910E+00
  7.59869910E+00 -1.51973982E+01  7.59869910E+00  7.59869910E+00 -1.51973982E+01
  7.59869910E+00  7.59869910E+00 -1.51973982E+01  7.59869910E+00  7.59869910E+00
 -1.51973982E+01  7.59869910E+00  7.59869910E+00 -1.51973982E+01  7.59869910E+00
  7.59869910E+00 -1.51973982E+01  7.59869910E+00  7.59869910E+00 -1.51973982E+01
  7.59869910E+00  7.59869910E+00 -1.51973982E+01  7.59869910E+00  7.59869910E+00
 -1.51973982E+01  7.59869910E+00  7.59869910E+00 -1.51973982E+01  7.59869910E+00
  7.59869910E+00 -1.51973982E+01  7.59869910E+00  7.59869910E+00 -1.51973982E+01
  7.59869910E+00  7.59869910E+00 -1.51973982E+01  7.59869910E+00  7.59869910E+00
 -1.51973982E+01  7.59869910E+00  7.59869910E+00 -1.51973982E+01  7.59869910E+00
  7.59869910E+00 -1.51973982E+01  7.59869910E+00  7.59869910E+00 -1.51973982E+01
  7.59869910E+00  7.59869910E+00 -1.51973982E+01  7.59869910E+00  7.59869910E+00
 -1.51973982E+01  7.59869910E+00  7.59869910E+00 -1.51973982E+01  7.59869910E+00
  7.59869910E+00 -1.51973982E+01  7.59869910E+00  7.59869910E+00 -1.51973982E+01
  7.59869910E+00  7.59869910E+00 -1.51973982E+01  7.59869910E+00  7.59869910E+00
 -1.51973982E+01  7.59869910E+00  7.59869910E+00 -1.51973982E+01  7.59869910E+00
  7.59869910E+00 -1.51973982E+01  7.59869910E+00  7.59869910E+00 -1.51973982E+01
  7.59869910E+00  7.59869910E+00 -1.51973982E+01  7.59869910E+00  7.59869910E+00
 -1.51973982E+01  7.59869910E+00  7.59869910E+00 -1.51973982E+01  7.59869910E+00
  7.59869910E+00 -1.51973982E+01  7.59869910E+00  7.59869910E+00 -1.51973982E+01
  7.59869910E+00  7.59869910E+00 -1.51973982E+01  7.59869910E+00  7.59869910E+00
 -1.51973982E+01  7.59869910E+00  7.59869910E+00 -1.51973982E+01  7.59869910E+00
  7.59869910E+00 -1.51973982E+01  7.59869910E+00  7.59869910E+00 -1.51973982E+01
  7.59869910E+00  7.59869910E+00 -1.51973982E+01  7.59869910E+00  7.59869910E+00
 -1.51973982E+01  7.59869910E+00  7.59869910E+00 -1.51973982E+01  7.59869910E+00
  7.59869910E+00 -1.51973982E+01  7.59869910E+00  7.59869910E+00 -1.51973982E+01
  7.59869910E+00  7.59869910E+00 -1.51973982E+01  7.59869910E+00  7.59869910E+00
 -1.51973982E+01  7.59869910E+00  7.59869910E+00 -1.51973982E+01  7.59869910E+00
  7.59869910E+00 -1.51973982E+01  7.59869910E+00  7.59869910E+00 -1.51973982E+01
  7.59869910E+00  7.59869910E+00 -1.51973982E+01  7.59869910E+00  7.59869910E+00
 -1.51973982E+01  7.59869910E+00  7.59869910E+00 -1.51973982E+01  7.59869910E+00
  7.59869910E+00 -1.51973982E+01  7.59869910E+00  7.59869910E+00 -1.51973982E+01
  7.59869910E+00  7.59869910E+00 -1.51973982E+01  7.59869910E+00  7.59869910E+00
 -1.51973982E+01  7.59869910E+00  7.59869910E+00 -1.51973982E+01  7.59869910E+00
  7.59869910E+00 -1.51973982E+01  7.59869910E+00  7.59869910E+00 -1.51973982E+01
  7.59869910E+00  7.59869910E+00 -1.51973982E+01  7.59869910E+00  7.59869910E+00
 -1.51973982E+01  7.59869910E+00  7.59869910E+00 -1.51973982E+01  7.59869910E+00
  7.59869910E+00 -1.51973982E+01  7.59869910E+00  7.59869910E+00 -1.51973982E+01
  7.59869910E+00  7.59869910E+00 -1.51973982E+01  7.59869910E+00  7.59869910E+00
 -1.51973982E+01  7.59869910E+00  7.59869910E+00 -1.51973982E+01  7.59869910E+00
  7.59869910E+00 -1.51973982E+01  7.59869910E+00  7.59869910E+00 -1.51973982E+01
  7.59869910E+00  7.59869910E+00 -1.51973982E+01  7.59869910E+00  7.59869910E+00
 -1.51973982E+01  7.59869910E+00  7.59869910E+00 -1.51973982E+01  7.59869910E+00
  7.59869910E+00 -1.51973982E+01  7.59869910E+00  7.59869910E+00 -1.51973982E+01
  7.59869910E+00  7.59869910E+00 -1.51973982E+01  7.59869910E+00  7.59869910E+00
 -1.51973982E+01  7.59869910E+00  7.59869910E+00 -1.51973982E+01  7.59869910E+00
  7.59869910E+00 -1.51973982E+01  7.59869910E+00  7.59869910E+00 -1.51973982E+01
  7.59869910E+00  7.59869910E+00 -1.51973982E+01  7.59869910E+00  7.59869910E+00
 -1.51973982E+01  7.59869910E+00  7.59869910E+00 -1.51973982E+01  7.59869910E+00
  7.59869910E+00 -1.51973982E+01  7.59869910E+00  7.59869910E+00 -1.51973982E+01
  7.59869910E+00  7.59869910E+00 -1.51973982E+01  7.59869910E+00  7.59869910E+00
 -1.51973982E+01  7.59869910E+00  7.59869910E+00 -1.51973982E+01  7.59869910E+00
  7.59869910E+00 -1.51973982E+01  7.59869910E+00  7.59869910E+00 -1.51973982E+01
  7.59869910E+00  7.59869910E+00 -1.51973982E+01  7.59869910E+00  7.59869910E+00
 -1.51973982E+01  7.59869910E+00  7.59869910E+00 -1.51973982E+01  7.59869910E+00
  7.59869910E+00 -1.51973982E+01  7.59869910E+00  7.59869910E+00 -1.51973982E+01
  7.59869910E+00  7.59869910E+00 -1.51973982E+01  7.59869910E+00  7.59869910E+00
 -1.51973982E+01  7.59869910E+00  7.59869910E+00 -1.51973982E+01  7.59869910E+00
  7.59869910E+00 -1.51973982E+01  7.59869910E+00  7.59869910E+00 -1.51973982E+01
  7.59869910E+00  7.59869910E+00 -1.51973982E+01  7.59869910E+00  7.59869910E+00
 -1.51973982E+01  7.59869910E+00  7.59869910E+00 -1.51973982E+01  7.59869910E+00
  7.59869910E+00 -1.51973982E+01  7.59869910E+00  7.59869910E+00 -1.51973982E+01
  7.59869910E+00  7.59869910E+00 -1.51973982E+01  7.59869910E+00  7.59869910E+00
 -1.51973982E+01  7.59869910E+00  7.59869910E+00 -1.51973982E+01  7.59869910E+00
  7.59869910E+00 -1.51973982E+01  7.59869910E+00  7.59869910E+00 -1.51973982E+01
  7.59869910E+00  7.59869910E+00 -1.51973982E+01  7.59869910E+00  7.59869910E+00
 -1.51973982E+01  7.59869910E+00  7.59869910E+00 -1.51973982E+01  7.59869910E+00
  7.59869910E+00 -1.51973982E+01  7.59869910E+00  7.59869910E+00 -1.51973982E+01
  7.59869910E+00  7.59869910E+00 -1.51973982E+01  7.59869910E+00  7.59869910E+00
 -1.51973982E+01  7.59869910E+00  7.59869910E+00 -1.51973982E+01  7.59869910E+00
  7.59869910E+00 -1.51973982E+01  7.59869910E+00  7.59869910E+00 -1.51973982E+01
  7.59869910E+00  7.59869910E+00 -1.51973982E+01  7.59869910E+00  7.59869910E+00
 -1.51973982E+01  7.59869910E+00  7.59869910E+00 -1.51973982E+01  7.59869910E+00
  7.59869910E+00 -1.51973982E+01  7.59869910E+00  7.59869910E+00 -1.51973982E+01
  7.59869910E+00  7.59869910E+00 -1.51973982E+01  7.59869910E+00  7.59869910E+00
 -1.51973982E+01  7.59869910E+00  7.59869910E+00 -1.51973982E+01  7.59869910E+00
  7.59869910E+00 -1.51973982E+01  7.59869910E+00  7.59869910E+00 -1.51973982E+01
  7.59869910E+00  7.59869910E+00 -1.51973982E+01  7.59869910E+00  7.59869910E+00
 -1.51973982E+01  7.59869910E+00  7.59869910E+00 -1.51973982E+01  7.59869910E+00
  7.59869910E+00 -1.51973982E+01  7.59869910E+00  7.59869910E+00 -1.51973982E+01
  7.59869910E+00  7.59869910E+00 -1.51973982E+01  7.59869910E+00  7.59869910E+00
 -1.51973982E+01  7.59869910E+00  7.59869910E+00 -1.51973982E+01  7.59869910E+00
  7.59869910E+00 -1.51973982E+01  7.59869910E+00  7.59869910E+00 -1.51973982E+01
  7.59869910E+00  7.59869910E+00 -1.51973982E+01  7.59869910E+00  7.59869910E+00
 -1.51973982E+01  7.59869910E+00  7.59869910E+00 -1.51973982E+01  7.59869910E+00
  7.59869910E+00 -1.51973982E+01  7.59869910E+00  7.59869910E+00 -1.51973982E+01
  7.59869910E+00  7.59869910E+00 -1.51973982E+01  7.59869910E+00  7.59869910E+00
 -1.51973982E+01  7.59869910E+00  7.59869910E+00 -1.51973982E+01  7.59869910E+00
  7.59869910E+00 -1.51973982E+01  7.59869910E+00  7.59869910E+00 -1.51973982E+01
  7.59869910E+00  7.59869910E+00 -1.51973982E+01  7.59869910E+00  7.59869910E+00
 -1.51973982E+01  7.59869910E+00  7.59869910E+00 -1.51973982E+01  7.59869910E+00
  7.59869910E+00 -1.51973982E+01  7.59869910E+00  7.59869910E+00 -1.51973982E+01
  7.59869910E+00  7.59869910E+00 -1.51973982E+01  7.59869910E+00  7.59869910E+00
 -1.51973982E+01  7.59869910E+00  7.59869910E+00 -1.51973982E+01  7.59869910E+00
  7.59869910E+00 -1.51973982E+01  7.59869910E+00  7.59869910E+00 -1.51973982E+01
  7.59869910E+00  7.59869910E+00 -1.51973982E+01  7.59869910E+00  7.59869910E+00
 -1.51973982E+01  7.59869910E+00  7.59869910E+00 -1.51973982E+01  7.59869910E+00
  7.59869910E+00 -1.51973982E+01  7.59869910E+00  7.59869910E+00 -1.51973982E+01
  7.59869910E+00  7.59869910E+00 -1.51973982E+01  7.59869910E+00  7.59869910E+00
 -1.51973982E+01  7.59869910E+00  7.59869910E+00 -1.51973982E+01  7.59869910E+00
  7.59869910E+00 -1.51973982E+01  7.59869910E+00  7.59869910E+00 -1.51973982E+01
  7.59869910E+00  7.59869910E+00 -1.51973982E+01  7.59869910E+00  7.59869910E+00
 -1.51973982E+01  7.59869910E+00  7.59869910E+00 -1.51973982E+01  7.59869910E+00
  7.59869910E+00 -1.51973982E+01  7.59869910E+00  7.59869910E+00 -1.51973982E+01
  7.59869910E+00  7.59869910E+00 -1.51973982E+01  7.59869910E+00  7.59869910E+00
 -1.51973982E+01  7.59869910E+00  7.59869910E+00 -1.51973982E+01  7.59869910E+00
  7.59869910E+00 -1.51973982E+01  7.59869910E+00  7.59869910E+00 -1.51973982E+01
  7.59869910E+00  7.59869910E+00 -1.51973982E+01  7.59869910E+00  7.59869910E+00
 -1.51973982E+01  7.59869910E+00  7.59869910E+00 -1.51973982E+01  7.59869910E+00
  7.59869910E+00 -1.51973982E+01  7.59869910E+00  7.59869910E+00 -1.51973982E+01
  7.59869910E+00  7.59869910E+00 -1.51973982E+01  7.59869910E+00  7.59869910E+00
 -1.51973982E+01  7.59869910E+00  7.59869910E+00 -1.51973982E+01  7.59869910E+00
  7.59869910E+00 -1.51973982E+01  7.59869910E+00  7.59869910E+00 -1.51973982E+01
  7.59869910E+00  7.59869910E+00 -1.51973982E+01  7.59869910E+00  7.59869910E+00
 -1.51973982E+01  7.59869910E+00  7.59869910E+00 -1.51973982E+01  7.59869910E+00
  7.59869910E+00 -1.51973982E+01  7.59869910E+00  7.59869910E+00 -1.51973982E+01
  7.59869910E+00  7.59869910E+00 -1.51973982E+01  7.59869910E+00  7.59869910E+00
 -1.51973982E+01  7.59869910E+00  7.59869910E+00 -1.51973982E+01  7.59869910E+00
  7.59869910E+00 -1.51973982E+01  7.59869910E+00  7.59869910E+00 -1.51973982E+01
  7.59869910E+00  7.59869910E+00 -1.51973982E+01  7.59869910E+00  7.59869910E+00
 -1.51973982E+01  7.59869910E+00  7.59869910E+00 -1.51973982E+01  7.59869910E+00
  7.59869910E+00 -1.51973982E+01  7.59869910E+00  7.59869910E+00 -1.51973982E+01
  7.59869910E+00  7.59869910E+00 -1.51973982E+01  7.59869910E+00  7.59869910E+00
 -1.51973982E+01  7.59869910E+00  7.59869910E+00 -1.51973982E+01  7.59869910E+00
  7.59869910E+00 -1.51973982E+01  7.59869910E+00  7.59869910E+00 -1.51973982E+01
  7.59869910E+00  7.59869910E+00 -1.51973982E+01  7.59869910E+00  7.59869910E+00
 -1.51973982E+01  7.59869910E+00  7.59869910E+00 -1.51973982E+01  7.59869910E+00
  7.59869910E+00 -1.51973982E+01  7.59869910E+00  7.59869910E+00 -1.51973982E+01
  7.59869910E+00  7.59869910E+00 -1.51973982E+01  7.59869910E+00  7.59869910E+00
 -1.51973982E+01  7.59869910E+00  7.59869910E+00 -1.51973982E+01  7.59869910E+00
  7.59869910E+00 -1.51973982E+01  7.59869910E+00  7.59869910E+00 -1.51973982E+01
  7.59869910E+00  7.59869910E+00 -1.51973982E+01  7.59869910E+00  7.59869910E+00
 -1.51973982E+01  7.59869910E+00  7.59869910E+00 -1.51973982E+01  7.59869910E+00
  7.59869910E+00 -1.51973982E+01  7.59869910E+00  7.59869910E+00 -1.51973982E+01
  7.59869910E+00  7.59869910E+00 -1.51973982E+01  7.59869910E+00  7.59869910E+00
 -1.51973982E+01  7.59869910E+00  7.59869910E+00 -1.51973982E+01  7.59869910E+00
  7.59869910E+00 -1.51973982E+01  7.59869910E+00  7.59869910E+00 -1.51973982E+01
  7.59869910E+00  7.59869910E+00 -1.51973982E+01  7.59869910E+00  7.59869910E+00
 -1.51973982E+01  7.59869910E+00  7.59869910E+00 -1.51973982E+01  7.59869910E+00
  7.59869910E+00 -1.51973982E+01  7.59869910E+00  7.59869910E+00 -1.51973982E+01
  7.59869910E+00  7.59869910E+00 -1.51973982E+01  7.59869910E+00  7.59869910E+00
 -1.51973982E+01  7.59869910E+00  7.59869910E+00 -1.51973982E+01  7.59869910E+00
  7.59869910E+00 -1.51973982E+01  7.59869910E+00  7.59869910E+00 -1.51973982E+01
  7.59869910E+00  7.59869910E+00 -1.51973982E+01  7.59869910E+00  7.59869910E+00
 -1.51973982E+01  7.59869910E+00  7.59869910E+00 -1.51973982E+01  7.59869910E+00
  7.59869910E+00 -1.51973982E+01  7.59869910E+00  7.59869910E+00 -1.51973982E+01
  7.59869910E+00  7.59869910E+00 -1.51973982E+01  7.59869910E+00  7.59869910E+00
 -1.51973982E+01  7.59869910E+00  7.59869910E+00 -1.51973982E+01  7.59869910E+00
  7.59869910E+00 -1.51973982E+01  7.59869910E+00  7.59869910E+00 -1.51973982E+01
  7.59869910E+00  7.59869910E+00 -1.51973982E+01  7.59869910E+00  7.59869910E+00
 -1.51973982E+01  7.59869910E+00  7.59869910E+00 -1.51973982E+01  7.59869910E+00
  7.59869910E+00 -1.51973982E+01  7.59869910E+00  7.59869910E+00 -1.51973982E+01
  7.59869910E+00  7.59869910E+00 -1.51973982E+01  7.59869910E+00  7.59869910E+00
 -1.51973982E+01  7.59869910E+00  7.59869910E+00 -1.51973982E+01  7.59869910E+00
  7.59869910E+00 -1.51973982E+01  7.59869910E+00  7.59869910E+00 -1.51973982E+01
  7.59869910E+00  7.59869910E+00 -1.51973982E+01  7.59869910E+00  7.59869910E+00
 -1.51973982E+01  7.59869910E+00  7.59869910E+00 -1.51973982E+01  7.59869910E+00
  7.59869910E+00 -1.51973982E+01  7.59869910E+00  7.59869910E+00 -1.51973982E+01
  7.59869910E+00  7.59869910E+00 -1.51973982E+01  7.59869910E+00  7.59869910E+00
 -1.51973982E+01  7.59869910E+00  7.59869910E+00 -1.51973982E+01  7.59869910E+00
  7.59869910E+00 -1.51973982E+01  7.59869910E+00  7.59869910E+00 -1.51973982E+01
  7.59869910E+00  7.59869910E+00 -1.51973982E+01  7.59869910E+00  7.59869910E+00
 -1.51973982E+01  7.59869910E+00  7.59869910E+00 -1.51973982E+01  7.59869910E+00
  7.59869910E+00 -1.51973982E+01  7.59869910E+00  7.59869910E+00 -1.51973982E+01
  7.59869910E+00  7.59869910E+00 -1.51973982E+01  7.59869910E+00  7.59869910E+00
 -1.51973982E+01  7.59869910E+00  7.59869910E+00 -1.51973982E+01  7.59869910E+00
  7.59869910E+00 -1.51973982E+01  7.59869910E+00  7.59869910E+00 -1.51973982E+01
  7.59869910E+00  7.59869910E+00 -1.51973982E+01  7.59869910E+00  7.59869910E+00
 -1.51973982E+01  7.59869910E+00  7.59869910E+00 -1.51973982E+01  7.59869910E+00
  7.59869910E+00 -1.51973982E+01  7.59869910E+00  7.59869910E+00 -1.51973982E+01
  7.59869910E+00  7.59869910E+00 -1.51973982E+01  7.59869910E+00  7.59869910E+00
 -1.51973982E+01  7.59869910E+00  7.59869910E+00 -1.51973982E+01  7.59869910E+00
  7.59869910E+00 -1.51973982E+01  7.59869910E+00  7.59869910E+00 -1.51973982E+01
  7.59869910E+00  7.59869910E+00 -1.51973982E+01  7.59869910E+00  7.59869910E+00
 -1.51973982E+01  7.59869910E+00  7.59869910E+00 -1.51973982E+01  7.59869910E+00
  7.59869910E+00 -1.51973982E+01  7.59869910E+00  7.59869910E+00 -1.51973982E+01
  7.59869910E+00  7.59869910E+00 -1.51973982E+01  7.59869910E+00  7.59869910E+00
 -1.51973982E+01  7.59869910E+00  7.59869910E+00 -1.51973982E+01  7.59869910E+00
  7.59869910E+00 -1.51973982E+01  7.59869910E+00  7.59869910E+00 -1.51973982E+01
  7.59869910E+00  7.59869910E+00 -1.51973982E+01  7.59869910E+00  7.59869910E+00
 -1.51973982E+01  7.59869910E+00  7.59869910E+00 -1.51973982E+01  7.59869910E+00
  7.59869910E+00 -1.51973982E+01  7.59869910E+00  7.59869910E+00 -1.51973982E+01
  7.59869910E+00  7.59869910E+00 -1.51973982E+01  7.59869910E+00  7.59869910E+00
 -1.51973982E+01  7.59869910E+00  7.59869910E+00 -1.51973982E+01  7.59869910E+00
  7.59869910E+00 -1.51973982E+01  7.59869910E+00  7.59869910E+00 -1.51973982E+01
  7.59869910E+00  7.59869910E+00 -1.51973982E+01  7.59869910E+00  7.59869910E+00
 -1.51973982E+01  7.59869910E+00  7.59869910E+00 -1.51973982E+01  7.59869910E+00
  7.59869910E+00 -1.51973982E+01  7.59869910E+00  7.59869910E+00 -1.51973982E+01
  7.59869910E+00  7.59869910E+00 -1.51973982E+01  7.59869910E+00  7.59869910E+00
 -1.51973982E+01  7.59869910E+00  7.59869910E+00 -1.51973982E+01  7.59869910E+00
  7.59869910E+00 -1.51973982E+01  7.59869910E+00  7.59869910E+00 -1.51973982E+01
  7.59869910E+00  7.59869910E+00 -1.51973982E+01  7.59869910E+00  7.59869910E+00
 -1.51973982E+01  7.59869910E+00  7.59869910E+00 -1.51973982E+01  7.59869910E+00
  7.59869910E+00 -1.51973982E+01  7.59869910E+00  7.59869910E+00 -1.51973982E+01
  7.59869910E+00  7.59869910E+00 -1.51973982E+01  7.59869910E+00  7.59869910E+00
 -1.51973982E+01  7.59869910E+00  7.59869910E+00 -1.51973982E+01  7.59869910E+00
  7.59869910E+00 -1.51973982E+01  7.59869910E+00  7.59869910E+00 -1.51973982E+01
  7.59869910E+00  7.59869910E+00 -1.51973982E+01  7.59869910E+00  7.59869910E+00
 -1.51973982E+01  7.59869910E+00  7.59869910E+00 -1.51973982E+01  7.59869910E+00
  7.59869910E+00 -1.51973982E+01  7.59869910E+00  7.59869910E+00 -1.51973982E+01
  7.59869910E+00  7.59869910E+00 -1.51973982E+01  7.59869910E+00  7.59869910E+00
 -1.51973982E+01  7.59869910E+00  7.59869910E+00 -1.51973982E+01  7.59869910E+00
  7.59869910E+00 -1.51973982E+01  7.59869910E+00  7.59869910E+00 -1.51973982E+01
  7.59869910E+00  7.59869910E+00 -1.51973982E+01  7.59869910E+00  7.59869910E+00
 -1.51973982E+01  7.59869910E+00  7.59869910E+00 -1.51973982E+01  7.59869910E+00
  7.59869910E+00 -1.51973982E+01  7.59869910E+00  7.59869910E+00 -1.51973982E+01
  7.59869910E+00  7.59869910E+00 -1.51973982E+01  7.59869910E+00  7.59869910E+00
 -1.51973982E+01  7.59869910E+00  7.59869910E+00 -1.51973982E+01  7.59869910E+00
  7.59869910E+00 -1.51973982E+01  7.59869910E+00  7.59869910E+00 -1.51973982E+01
  7.59869910E+00  7.59869910E+00 -1.51973982E+01  7.59869910E+00  7.59869910E+00
 -1.51973982E+01  7.59869910E+00  7.59869910E+00 -1.51973982E+01  7.59869910E+00
  7.59869910E+00 -1.51973982E+01  7.59869910E+00  7.59869910E+00 -1.51973982E+01
  7.59869910E+00  7.59869910E+00 -1.51973982E+01  7.59869910E+00  7.59869910E+00
 -1.51973982E+01  7.59869910E+00  7.59869910E+00 -1.51973982E+01  7.59869910E+00
  7.59869910E+00 -1.51973982E+01  7.59869910E+00  7.59869910E+00 -1.51973982E+01
  7.59869910E+00  7.59869910E+00 -1.51973982E+01  7.59869910E+00  7.59869910E+00
 -1.51973982E+01  7.59869910E+00  7.59869910E+00 -1.51973982E+01  7.59869910E+00
  7.59869910E+00 -1.51973982E+01  7.59869910E+00  7.59869910E+00 -1.51973982E+01
  7.59869910E+00  7.59869910E+00 -1.51973982E+01  7.59869910E+00  7.59869910E+00
 -1.51973982E+01  7.59869910E+00  7.59869910E+00 -1.51973982E+01  7.59869910E+00
  7.59869910E+00 -1.51973982E+01  7.59869910E+00  7.59869910E+00 -1.51973982E+01
  7.59869910E+00  7.59869910E+00 -1.51973982E+01  7.59869910E+00  7.59869910E+00
 -1.51973982E+01  7.59869910E+00  7.59869910E+00 -1.51973982E+01  7.59869910E+00
  7.59869910E+00 -1.51973982E+01  7.59869910E+00  7.59869910E+00 -1.51973982E+01
  7.59869910E+00  7.59869910E+00 -1.51973982E+01  7.59869910E+00  7.59869910E+00
 -1.51973982E+01  7.59869910E+00  7.59869910E+00 -1.51973982E+01  7.59869910E+00
  7.59869910E+00 -1.51973982E+01  7.59869910E+00  7.59869910E+00 -1.51973982E+01
  7.59869910E+00  7.59869910E+00 -1.51973982E+01  7.59869910E+00  7.59869910E+00
 -1.51973982E+01  7.59869910E+00  7.59869910E+00 -1.51973982E+01  7.59869910E+00
  7.59869910E+00 -1.51973982E+01  7.59869910E+00  7.59869910E+00 -1.51973982E+01
  7.59869910E+00  7.59869910E+00 -1.51973982E+01  7.59869910E+00  7.59869910E+00
 -1.51973982E+01  7.59869910E+00  7.59869910E+00 -1.51973982E+01  7.59869910E+00
  7.59869910E+00 -1.51973982E+01  7.59869910E+00  7.59869910E+00 -1.51973982E+01
  7.59869910E+00  7.59869910E+00 -1.51973982E+01  7.59869910E+00  7.59869910E+00
 -1.51973982E+01  7.59869910E+00  7.59869910E+00 -1.51973982E+01  7.59869910E+00
  7.59869910E+00 -1.51973982E+01  7.59869910E+00  7.59869910E+00 -1.51973982E+01
  7.59869910E+00  7.59869910E+00 -1.51973982E+01  7.59869910E+00  7.59869910E+00
 -1.51973982E+01  7.59869910E+00  7.59869910E+00 -1.51973982E+01  7.59869910E+00
  7.59869910E+00 -1.51973982E+01  7.59869910E+00  7.59869910E+00 -1.51973982E+01
  7.59869910E+00  7.59869910E+00 -1.51973982E+01  7.59869910E+00  7.59869910E+00
 -1.51973982E+01  7.59869910E+00  7.59869910E+00 -1.51973982E+01  7.59869910E+00
  7.59869910E+00 -1.51973982E+01  7.59869910E+00  7.59869910E+00 -1.51973982E+01
  7.59869910E+00  7.59869910E+00 -1.51973982E+01  7.59869910E+00  7.59869910E+00
 -1.51973982E+01  7.59869910E+00  7.59869910E+00 -1.51973982E+01  7.59869910E+00
  7.59869910E+00 -1.51973982E+01  7.59869910E+00  7.59869910E+00 -1.51973982E+01
  7.59869910E+00  7.59869910E+00 -1.51973982E+01  7.59869910E+00  7.59869910E+00
 -1.51973982E+01  7.59869910E+00  7.59869910E+00 -1.51973982E+01  7.59869910E+00
  7.59869910E+00 -1.51973982E+01  7.59869910E+00  7.59869910E+00 -1.51973982E+01
  7.59869910E+00  7.59869910E+00 -1.51973982E+01  7.59869910E+00  7.59869910E+00
 -1.51973982E+01  7.59869910E+00  7.59869910E+00 -1.51973982E+01  7.59869910E+00
  7.59869910E+00 -1.51973982E+01  7.59869910E+00  7.59869910E+00 -1.51973982E+01
  7.59869910E+00  7.59869910E+00 -1.51973982E+01  7.59869910E+00  7.59869910E+00
 -1.51973982E+01  7.59869910E+00  7.59869910E+00 -1.51973982E+01  7.59869910E+00
  7.59869910E+00 -1.51973982E+01  7.59869910E+00  7.59869910E+00 -1.51973982E+01
  7.59869910E+00  7.59869910E+00 -1.51973982E+01  7.59869910E+00  7.59869910E+00
 -1.51973982E+01  7.59869910E+00  7.59869910E+00 -1.51973982E+01  7.59869910E+00
  7.59869910E+00 -1.51973982E+01  7.59869910E+00  7.59869910E+00 -1.51973982E+01
  7.59869910E+00  7.59869910E+00 -1.51973982E+01  7.59869910E+00  7.59869910E+00
 -1.51973982E+01  7.59869910E+00  7.59869910E+00 -1.51973982E+01  7.59869910E+00
  7.59869910E+00 -1.51973982E+01  7.59869910E+00  7.59869910E+00 -1.51973982E+01
  7.59869910E+00  7.59869910E+00 -1.51973982E+01  7.59869910E+00  7.59869910E+00
 -1.51973982E+01  7.59869910E+00  7.59869910E+00 -1.51973982E+01  7.59869910E+00
  7.59869910E+00 -1.51973982E+01  7.59869910E+00  7.59869910E+00 -1.51973982E+01
  7.59869910E+00  7.59869910E+00 -1.51973982E+01  7.59869910E+00  7.59869910E+00
 -1.51973982E+01  7.59869910E+00  7.59869910E+00 -1.51973982E+01  7.59869910E+00
  7.59869910E+00 -1.51973982E+01  7.59869910E+00  7.59869910E+00 -1.51973982E+01
  7.59869910E+00  7.59869910E+00 -1.51973982E+01  7.59869910E+00  7.59869910E+00
 -1.51973982E+01  7.59869910E+00  7.59869910E+00 -1.51973982E+01  7.59869910E+00
  7.59869910E+00 -1.51973982E+01  7.59869910E+00  7.59869910E+00 -1.51973982E+01
  7.59869910E+00  7.59869910E+00 -1.51973982E+01  7.59869910E+00  7.59869910E+00
 -1.51973982E+01  7.59869910E+00  7.59869910E+00 -1.51973982E+01  7.59869910E+00
  7.59869910E+00 -1.51973982E+01  7.59869910E+00  7.59869910E+00 -1.51973982E+01
  7.59869910E+00  7.59869910E+00 -1.51973982E+01  7.59869910E+00  7.59869910E+00
 -1.51973982E+01  7.59869910E+00  7.59869910E+00 -1.51973982E+01  7.59869910E+00
  7.59869910E+00 -1.51973982E+01  7.59869910E+00  7.59869910E+00 -1.51973982E+01
  7.59869910E+00  7.59869910E+00 -1.51973982E+01  7.59869910E+00  7.59869910E+00
 -1.51973982E+01  7.59869910E+00  7.59869910E+00 -1.51973982E+01  7.59869910E+00
  7.59869910E+00 -1.51973982E+01  7.59869910E+00  7.59869910E+00 -1.51973982E+01
  7.59869910E+00  7.59869910E+00 -1.51973982E+01  7.59869910E+00  7.59869910E+00
 -1.51973982E+01  7.59869910E+00  7.59869910E+00 -1.51973982E+01  7.59869910E+00
  7.59869910E+00 -1.51973982E+01  7.59869910E+00  7.59869910E+00 -1.51973982E+01
  7.59869910E+00  7.59869910E+00 -1.51973982E+01  7.59869910E+00  7.59869910E+00
 -1.51973982E+01  7.59869910E+00  7.59869910E+00 -1.51973982E+01  7.59869910E+00
  7.59869910E+00 -1.51973982E+01  7.59869910E+00  7.59869910E+00 -1.51973982E+01
  7.59869910E+00  7.59869910E+00 -1.51973982E+01  7.59869910E+00  7.59869910E+00
 -1.51973982E+01  7.59869910E+00  7.59869910E+00 -1.51973982E+01  7.59869910E+00
  7.59869910E+00 -1.51973982E+01  7.59869910E+00  7.59869910E+00 -1.51973982E+01
  7.59869910E+00  7.59869910E+00 -1.51973982E+01  7.59869910E+00  7.59869910E+00
 -1.51973982E+01  7.59869910E+00  7.59869910E+00 -1.51973982E+01  7.59869910E+00
  7.59869910E+00 -1.51973982E+01  7.59869910E+00  7.59869910E+00 -1.51973982E+01
  7.59869910E+00  7.59869910E+00 -1.51973982E+01  7.59869910E+00  7.59869910E+00
 -1.51973982E+01  7.59869910E+00  7.59869910E+00 -1.51973982E+01  7.59869910E+00
  7.59869910E+00 -1.51973982E+01  7.59869910E+00  7.59869910E+00 -1.51973982E+01
  7.59869910E+00  7.59869910E+00 -1.51973982E+01  7.59869910E+00  7.59869910E+00
 -1.51973982E+01  7.59869910E+00  7.59869910E+00 -1.51973982E+01  7.59869910E+00
  7.59869910E+00 -1.51973982E+01  7.59869910E+00  7.59869910E+00 -1.51973982E+01
  7.59869910E+00  7.59869910E+00 -1.51973982E+01  7.59869910E+00  7.59869910E+00
 -1.51973982E+01  7.59869910E+00  7.59869910E+00 -1.51973982E+01  7.59869910E+00
  7.59869910E+00 -1.51973982E+01  7.59869910E+00  7.59869910E+00 -1.51973982E+01
  7.59869910E+00  7.59869910E+00 -1.51973982E+01  7.59869910E+00  7.59869910E+00
 -1.51973982E+01  7.59869910E+00  7.59869910E+00 -1.51973982E+01  7.59869910E+00
  7.59869910E+00 -1.51973982E+01  7.59869910E+00  7.59869910E+00 -1.51973982E+01
  7.59869910E+00  7.59869910E+00 -1.51973982E+01  7.59869910E+00  7.59869910E+00
 -1.51973982E+01  7.59869910E+00  7.59869910E+00 -1.51973982E+01  7.59869910E+00
  7.59869910E+00 -1.51973982E+01  7.59869910E+00  7.59869910E+00 -1.51973982E+01
  7.59869910E+00  7.59869910E+00 -1.51973982E+01  7.59869910E+00  7.59869910E+00
 -1.51973982E+01  7.59869910E+00  7.59869910E+00 -1.51973982E+01  7.59869910E+00
  7.59869910E+00 -1.51973982E+01  7.59869910E+00  7.59869910E+00 -1.51973982E+01
  7.59869910E+00  7.59869910E+00 -1.51973982E+01  7.59869910E+00  7.59869910E+00
 -1.51973982E+01  7.59869910E+00  7.59869910E+00 -1.51973982E+01  7.59869910E+00
  7.59869910E+00 -1.51973982E+01  7.59869910E+00  7.59869910E+00 -1.51973982E+01
  7.59869910E+00  7.59869910E+00 -1.51973982E+01  7.59869910E+00  7.59869910E+00
 -1.51973982E+01  7.59869910E+00  7.59869910E+00 -1.51973982E+01  7.59869910E+00
  7.59869910E+00 -1.51973982E+01  7.59869910E+00  7.59869910E+00 -1.51973982E+01
  7.59869910E+00  7.59869910E+00 -1.51973982E+01  7.59869910E+00  7.59869910E+00
 -1.51973982E+01  7.59869910E+00  7.59869910E+00 -1.51973982E+01  7.59869910E+00
  7.59869910E+00 -1.51973982E+01  7.59869910E+00  7.59869910E+00 -1.51973982E+01
  7.59869910E+00  7.59869910E+00 -1.51973982E+01  7.59869910E+00  7.59869910E+00
 -1.51973982E+01  7.59869910E+00  7.59869910E+00 -1.51973982E+01  7.59869910E+00
  7.59869910E+00 -1.51973982E+01  7.59869910E+00  7.59869910E+00 -1.51973982E+01
  7.59869910E+00  7.59869910E+00 -1.51973982E+01  7.59869910E+00  7.59869910E+00
 -1.51973982E+01  7.59869910E+00  7.59869910E+00 -1.51973982E+01  7.59869910E+00
  7.59869910E+00 -1.51973982E+01  7.59869910E+00  7.59869910E+00 -1.51973982E+01
  7.59869910E+00  7.59869910E+00 -1.51973982E+01  7.59869910E+00  7.59869910E+00
 -1.51973982E+01  7.59869910E+00  7.59869910E+00 -1.51973982E+01  7.59869910E+00
  7.59869910E+00 -1.51973982E+01  7.59869910E+00  7.59869910E+00 -1.51973982E+01
  7.59869910E+00  7.59869910E+00 -1.51973982E+01  7.59869910E+00  7.59869910E+00
 -1.51973982E+01  7.59869910E+00  7.59869910E+00 -1.51973982E+01  7.59869910E+00
  7.59869910E+00 -1.51973982E+01  7.59869910E+00  7.59869910E+00 -1.51973982E+01
  7.59869910E+00  7.59869910E+00 -1.51973982E+01  7.59869910E+00  7.59869910E+00
 -1.51973982E+01  7.59869910E+00  7.59869910E+00 -1.51973982E+01  7.59869910E+00
  7.59869910E+00 -1.51973982E+01  7.59869910E+00  7.59869910E+00 -1.51973982E+01
  7.59869910E+00  7.59869910E+00 -1.51973982E+01  7.59869910E+00  7.59869910E+00
 -1.51973982E+01  7.59869910E+00  7.59869910E+00 -1.51973982E+01  7.59869910E+00
  7.59869910E+00 -1.51973982E+01  7.59869910E+00  7.59869910E+00 -1.51973982E+01
  7.59869910E+00  7.59869910E+00 -1.51973982E+01  7.59869910E+00  7.59869910E+00
 -1.51973982E+01  7.59869910E+00  7.59869910E+00 -1.51973982E+01  7.59869910E+00
  7.59869910E+00 -1.51973982E+01  7.59869910E+00  7.59869910E+00 -1.51973982E+01
  7.59869910E+00  7.59869910E+00 -1.51973982E+01  7.59869910E+00  7.59869910E+00
 -1.51973982E+01  7.59869910E+00  7.59869910E+00 -1.51973982E+01  7.59869910E+00
  7.59869910E+00 -1.51973982E+01  7.59869910E+00  7.59869910E+00 -1.51973982E+01
  7.59869910E+00  7.59869910E+00 -1.51973982E+01  7.59869910E+00  7.59869910E+00
 -1.51973982E+01  7.59869910E+00  7.59869910E+00 -1.51973982E+01  7.59869910E+00
  7.59869910E+00 -1.51973982E+01  7.59869910E+00  7.59869910E+00 -1.51973982E+01
  7.59869910E+00  7.59869910E+00 -1.51973982E+01  7.59869910E+00  7.59869910E+00
 -1.51973982E+01  7.59869910E+00  7.59869910E+00 -1.51973982E+01  7.59869910E+00
  7.59869910E+00 -1.51973982E+01  7.59869910E+00  7.59869910E+00 -1.51973982E+01
  7.59869910E+00  7.59869910E+00 -1.51973982E+01  7.59869910E+00  7.59869910E+00
 -1.51973982E+01  7.59869910E+00  7.59869910E+00 -1.51973982E+01  7.59869910E+00
  7.59869910E+00 -1.51973982E+01  7.59869910E+00  7.59869910E+00 -1.51973982E+01
  7.59869910E+00  7.59869910E+00 -1.51973982E+01  7.59869910E+00  7.59869910E+00
 -1.51973982E+01  7.59869910E+00  7.59869910E+00 -1.51973982E+01  7.59869910E+00
  7.59869910E+00 -1.51973982E+01  7.59869910E+00  7.59869910E+00 -1.51973982E+01
  7.59869910E+00  7.59869910E+00 -1.51973982E+01  7.59869910E+00  7.59869910E+00
 -1.51973982E+01  7.59869910E+00  7.59869910E+00 -1.51973982E+01  7.59869910E+00
  7.59869910E+00 -1.51973982E+01  7.59869910E+00  7.59869910E+00 -1.51973982E+01
  7.59869910E+00  7.59869910E+00 -1.51973982E+01  7.59869910E+00  7.59869910E+00
 -1.51973982E+01  7.59869910E+00  7.59869910E+00 -1.51973982E+01  7.59869910E+00
  7.59869910E+00 -1.51973982E+01  7.59869910E+00  7.59869910E+00 -1.51973982E+01
  7.59869910E+00  7.59869910E+00 -1.51973982E+01  7.59869910E+00  7.59869910E+00
 -1.51973982E+01  7.59869910E+00  7.59869910E+00 -1.51973982E+01  7.59869910E+00
  7.59869910E+00 -1.51973982E+01  7.59869910E+00  7.59869910E+00 -1.51973982E+01
  7.59869910E+00  7.59869910E+00 -1.51973982E+01  7.59869910E+00  7.59869910E+00
 -1.51973982E+01  7.59869910E+00  7.59869910E+00 -1.51973982E+01  7.59869910E+00
  7.59869910E+00 -1.51973982E+01  7.59869910E+00  7.59869910E+00 -1.51973982E+01
  7.59869910E+00  7.59869910E+00 -1.51973982E+01  7.59869910E+00  7.59869910E+00
 -1.51973982E+01  7.59869910E+00  7.59869910E+00 -1.51973982E+01  7.59869910E+00
  7.59869910E+00 -1.51973982E+01  7.59869910E+00  7.59869910E+00 -1.51973982E+01
  7.59869910E+00  7.59869910E+00 -1.51973982E+01  7.59869910E+00  7.59869910E+00
 -1.51973982E+01  7.59869910E+00  7.59869910E+00 -1.51973982E+01  7.59869910E+00
  7.59869910E+00 -1.51973982E+01  7.59869910E+00  7.59869910E+00 -1.51973982E+01
  7.59869910E+00  7.59869910E+00 -1.51973982E+01  7.59869910E+00  7.59869910E+00
 -1.51973982E+01  7.59869910E+00  7.59869910E+00 -1.51973982E+01  7.59869910E+00
  7.59869910E+00 -1.51973982E+01  7.59869910E+00  7.59869910E+00 -1.51973982E+01
  7.59869910E+00  7.59869910E+00 -1.51973982E+01  7.59869910E+00  7.59869910E+00
 -1.51973982E+01  7.59869910E+00  7.59869910E+00 -1.51973982E+01  7.59869910E+00
  7.59869910E+00 -1.51973982E+01  7.59869910E+00  7.59869910E+00 -1.51973982E+01
  7.59869910E+00  7.59869910E+00 -1.51973982E+01  7.59869910E+00  7.59869910E+00
 -1.51973982E+01  7.59869910E+00  7.59869910E+00 -1.51973982E+01  7.59869910E+00
  7.59869910E+00 -1.51973982E+01  7.59869910E+00  7.59869910E+00 -1.51973982E+01
  7.59869910E+00  7.59869910E+00 -1.51973982E+01  7.59869910E+00  7.59869910E+00
 -1.51973982E+01  7.59869910E+00  7.59869910E+00 -1.51973982E+01  7.59869910E+00
  7.59869910E+00 -1.51973982E+01  7.59869910E+00  7.59869910E+00 -1.51973982E+01
  7.59869910E+00  7.59869910E+00 -1.51973982E+01  7.59869910E+00  7.59869910E+00
 -1.51973982E+01  7.59869910E+00  7.59869910E+00 -1.51973982E+01  7.59869910E+00
  7.59869910E+00 -1.51973982E+01  7.59869910E+00  7.59869910E+00 -1.51973982E+01
  7.59869910E+00  7.59869910E+00 -1.51973982E+01  7.59869910E+00  7.59869910E+00
 -1.51973982E+01  7.59869910E+00  7.59869910E+00 -1.51973982E+01  7.59869910E+00
  7.59869910E+00 -1.51973982E+01  7.59869910E+00  7.59869910E+00 -1.51973982E+01
  7.59869910E+00  7.59869910E+00 -1.51973982E+01  7.59869910E+00  7.59869910E+00
 -1.51973982E+01  7.59869910E+00  7.59869910E+00 -1.51973982E+01  7.59869910E+00
  7.59869910E+00 -1.51973982E+01  7.59869910E+00  7.59869910E+00 -1.51973982E+01
  7.59869910E+00  7.59869910E+00 -1.51973982E+01  7.59869910E+00  7.59869910E+00
 -1.51973982E+01  7.59869910E+00  7.59869910E+00 -1.51973982E+01  7.59869910E+00
  7.59869910E+00 -1.51973982E+01  7.59869910E+00  7.59869910E+00 -1.51973982E+01
  7.59869910E+00  7.59869910E+00 -1.51973982E+01  7.59869910E+00  7.59869910E+00
 -1.51973982E+01  7.59869910E+00  7.59869910E+00 -1.51973982E+01  7.59869910E+00
  7.59869910E+00 -1.51973982E+01  7.59869910E+00  7.59869910E+00 -1.51973982E+01
  7.59869910E+00  7.59869910E+00 -1.51973982E+01  7.59869910E+00  7.59869910E+00
 -1.51973982E+01  7.59869910E+00  7.59869910E+00 -1.51973982E+01  7.59869910E+00
  7.59869910E+00 -1.51973982E+01  7.59869910E+00  7.59869910E+00 -1.51973982E+01
  7.59869910E+00  7.59869910E+00 -1.51973982E+01  7.59869910E+00  7.59869910E+00
 -1.51973982E+01  7.59869910E+00  7.59869910E+00 -1.51973982E+01  7.59869910E+00
  7.59869910E+00 -1.51973982E+01  7.59869910E+00  7.59869910E+00 -1.51973982E+01
  7.59869910E+00  7.59869910E+00 -1.51973982E+01  7.59869910E+00  7.59869910E+00
 -1.51973982E+01  7.59869910E+00  7.59869910E+00 -1.51973982E+01  7.59869910E+00
  7.59869910E+00 -1.51973982E+01  7.59869910E+00  7.59869910E+00 -1.51973982E+01
  7.59869910E+00  7.59869910E+00 -1.51973982E+01  7.59869910E+00  7.59869910E+00
 -1.51973982E+01  7.59869910E+00  7.59869910E+00 -1.51973982E+01  7.59869910E+00
  7.59869910E+00 -1.51973982E+01  7.59869910E+00  7.59869910E+00 -1.51973982E+01
  7.59869910E+00  7.59869910E+00 -1.51973982E+01  7.59869910E+00  7.59869910E+00
 -1.51973982E+01  7.59869910E+00  7.59869910E+00 -1.51973982E+01  7.59869910E+00
  7.59869910E+00 -1.51973982E+01  7.59869910E+00  7.59869910E+00 -1.51973982E+01
  7.59869910E+00  7.59869910E+00 -1.51973982E+01  7.59869910E+00  7.59869910E+00
 -1.51973982E+01  7.59869910E+00  7.59869910E+00 -1.51973982E+01  7.59869910E+00
  7.59869910E+00 -1.51973982E+01  7.59869910E+00  7.59869910E+00 -1.51973982E+01
  7.59869910E+00  7.59869910E+00 -1.51973982E+01  7.59869910E+00  7.59869910E+00
 -1.51973982E+01  7.59869910E+00  7.59869910E+00 -1.51973982E+01  7.59869910E+00
  7.59869910E+00 -1.51973982E+01  7.59869910E+00  7.59869910E+00 -1.51973982E+01
  7.59869910E+00  7.59869910E+00 -1.51973982E+01  7.59869910E+00  7.59869910E+00
 -1.51973982E+01  7.59869910E+00  7.59869910E+00 -1.51973982E+01  7.59869910E+00
  7.59869910E+00 -1.51973982E+01  7.59869910E+00  7.59869910E+00 -1.51973982E+01
  7.59869910E+00  7.59869910E+00 -1.51973982E+01  7.59869910E+00  7.59869910E+00
 -1.51973982E+01  7.59869910E+00  7.59869910E+00 -1.51973982E+01  7.59869910E+00
  7.59869910E+00 -1.51973982E+01  7.59869910E+00  7.59869910E+00 -1.51973982E+01
  7.59869910E+00  7.59869910E+00 -1.51973982E+01  7.59869910E+00  7.59869910E+00
 -1.51973982E+01  7.59869910E+00  7.59869910E+00 -1.51973982E+01  7.59869910E+00
  7.59869910E+00 -1.51973982E+01  7.59869910E+00  7.59869910E+00 -1.51973982E+01
  7.59869910E+00  7.59869910E+00 -1.51973982E+01  7.59869910E+00  7.59869910E+00
 -1.51973982E+01  7.59869910E+00  7.59869910E+00 -1.51973982E+01  7.59869910E+00
  7.59869910E+00 -1.51973982E+01  7.59869910E+00  7.59869910E+00 -1.51973982E+01
  7.59869910E+00  7.59869910E+00 -1.51973982E+01  7.59869910E+00  7.59869910E+00
 -1.51973982E+01  7.59869910E+00  7.59869910E+00 -1.51973982E+01  7.59869910E+00
  7.59869910E+00 -1.51973982E+01  7.59869910E+00  7.59869910E+00 -1.51973982E+01
  7.59869910E+00  7.59869910E+00 -1.51973982E+01  7.59869910E+00  7.59869910E+00
 -1.51973982E+01  7.59869910E+00  7.59869910E+00 -1.51973982E+01  7.59869910E+00
  7.59869910E+00 -1.51973982E+01  7.59869910E+00  7.59869910E+00 -1.51973982E+01
  7.59869910E+00  7.59869910E+00 -1.51973982E+01  7.59869910E+00  7.59869910E+00
 -1.51973982E+01  7.59869910E+00  7.59869910E+00 -1.51973982E+01  7.59869910E+00
  7.59869910E+00 -1.51973982E+01  7.59869910E+00  7.59869910E+00 -1.51973982E+01
  7.59869910E+00  7.59869910E+00 -1.51973982E+01  7.59869910E+00  7.59869910E+00
 -1.51973982E+01  7.59869910E+00  7.59869910E+00 -1.51973982E+01  7.59869910E+00
  7.59869910E+00 -1.51973982E+01  7.59869910E+00  7.59869910E+00 -1.51973982E+01
  7.59869910E+00  7.59869910E+00 -1.51973982E+01  7.59869910E+00  7.59869910E+00
 -1.51973982E+01  7.59869910E+00  7.59869910E+00 -1.51973982E+01  7.59869910E+00
  7.59869910E+00 -1.51973982E+01  7.59869910E+00  7.59869910E+00 -1.51973982E+01
  7.59869910E+00  7.59869910E+00 -1.51973982E+01  7.59869910E+00  7.59869910E+00
 -1.51973982E+01  7.59869910E+00  7.59869910E+00 -1.51973982E+01  7.59869910E+00
  7.59869910E+00 -1.51973982E+01  7.59869910E+00  7.59869910E+00 -1.51973982E+01
  7.59869910E+00  7.59869910E+00 -1.51973982E+01  7.59869910E+00  7.59869910E+00
 -1.51973982E+01  7.59869910E+00  7.59869910E+00 -1.51973982E+01  7.59869910E+00
  7.59869910E+00 -1.51973982E+01  7.59869910E+00  7.59869910E+00 -1.51973982E+01
  7.59869910E+00  7.59869910E+00 -1.51973982E+01  7.59869910E+00  7.59869910E+00
 -1.51973982E+01  7.59869910E+00  7.59869910E+00 -1.51973982E+01  7.59869910E+00
  7.59869910E+00 -1.51973982E+01  7.59869910E+00  7.59869910E+00 -1.51973982E+01
  7.59869910E+00  7.59869910E+00 -1.51973982E+01  7.59869910E+00  7.59869910E+00
 -1.51973982E+01  7.59869910E+00  7.59869910E+00 -1.51973982E+01  7.59869910E+00
  7.59869910E+00 -1.51973982E+01  7.59869910E+00  7.59869910E+00 -1.51973982E+01
  7.59869910E+00  7.59869910E+00 -1.51973982E+01  7.59869910E+00  7.59869910E+00
 -1.51973982E+01  7.59869910E+00  7.59869910E+00 -1.51973982E+01  7.59869910E+00
  7.59869910E+00 -1.51973982E+01  7.59869910E+00  7.59869910E+00 -1.51973982E+01
  7.59869910E+00  7.59869910E+00 -1.51973982E+01  7.59869910E+00  7.59869910E+00
 -1.51973982E+01  7.59869910E+00  7.59869910E+00 -1.51973982E+01  7.59869910E+00
  7.59869910E+00 -1.51973982E+01  7.59869910E+00  7.59869910E+00 -1.51973982E+01
  7.59869910E+00  7.59869910E+00 -1.51973982E+01  7.59869910E+00  7.59869910E+00
 -1.51973982E+01  7.59869910E+00  7.59869910E+00 -1.51973982E+01  7.59869910E+00
  7.59869910E+00 -1.51973982E+01  7.59869910E+00  7.59869910E+00 -1.51973982E+01
  7.59869910E+00  7.59869910E+00 -1.51973982E+01  7.59869910E+00  7.59869910E+00
 -1.51973982E+01  7.59869910E+00  7.59869910E+00 -1.51973982E+01  7.59869910E+00
  7.59869910E+00 -1.51973982E+01  7.59869910E+00  7.59869910E+00 -1.51973982E+01
  7.59869910E+00  7.59869910E+00 -1.51973982E+01  7.59869910E+00  7.59869910E+00
 -1.51973982E+01  7.59869910E+00  7.59869910E+00 -1.51973982E+01  7.59869910E+00
  7.59869910E+00 -1.51973982E+01  7.59869910E+00  7.59869910E+00 -1.51973982E+01
  7.59869910E+00  7.59869910E+00 -1.51973982E+01  7.59869910E+00  7.59869910E+00
 -1.51973982E+01  7.59869910E+00  7.59869910E+00 -1.51973982E+01  7.59869910E+00
  7.59869910E+00 -1.51973982E+01  7.59869910E+00  7.59869910E+00 -1.51973982E+01
  7.59869910E+00  7.59869910E+00 -1.51973982E+01  7.59869910E+00  7.59869910E+00
 -1.51973982E+01  7.59869910E+00  7.59869910E+00 -1.51973982E+01  7.59869910E+00
  7.59869910E+00 -1.51973982E+01  7.59869910E+00  7.59869910E+00 -1.51973982E+01
  7.59869910E+00  7.59869910E+00 -1.51973982E+01  7.59869910E+00  7.59869910E+00
 -1.51973982E+01  7.59869910E+00  7.59869910E+00 -1.51973982E+01  7.59869910E+00
  7.59869910E+00 -1.51973982E+01  7.59869910E+00  7.59869910E+00 -1.51973982E+01
  7.59869910E+00  7.59869910E+00 -1.51973982E+01  7.59869910E+00  7.59869910E+00
 -1.51973982E+01  7.59869910E+00  7.59869910E+00 -1.51973982E+01  7.59869910E+00
  7.59869910E+00 -1.51973982E+01  7.59869910E+00  7.59869910E+00 -1.51973982E+01
  7.59869910E+00  7.59869910E+00 -1.51973982E+01  7.59869910E+00  7.59869910E+00
 -1.51973982E+01  7.59869910E+00  7.59869910E+00 -1.51973982E+01  7.59869910E+00
  7.59869910E+00 -1.51973982E+01  7.59869910E+00  7.59869910E+00 -1.51973982E+01
  7.59869910E+00  7.59869910E+00 -1.51973982E+01  7.59869910E+00  7.59869910E+00
 -1.51973982E+01  7.59869910E+00  7.59869910E+00 -1.51973982E+01  7.59869910E+00
  7.59869910E+00 -1.51973982E+01  7.59869910E+00  7.59869910E+00 -1.51973982E+01
  7.59869910E+00  7.59869910E+00 -1.51973982E+01  7.59869910E+00  7.59869910E+00
 -1.51973982E+01  7.59869910E+00  7.59869910E+00 -1.51973982E+01  7.59869910E+00
  7.59869910E+00 -1.51973982E+01  7.59869910E+00  7.59869910E+00 -1.51973982E+01
  7.59869910E+00  7.59869910E+00 -1.51973982E+01  7.59869910E+00  7.59869910E+00
 -1.51973982E+01  7.59869910E+00  7.59869910E+00 -1.51973982E+01  7.59869910E+00
  7.59869910E+00 -1.51973982E+01  7.59869910E+00  7.59869910E+00 -1.51973982E+01
  7.59869910E+00  7.59869910E+00 -1.51973982E+01  7.59869910E+00  7.59869910E+00
 -1.51973982E+01  7.59869910E+00  7.59869910E+00 -1.51973982E+01  7.59869910E+00
  7.59869910E+00 -1.51973982E+01  7.59869910E+00  7.59869910E+00 -1.51973982E+01
  7.59869910E+00  7.59869910E+00 -1.51973982E+01  7.59869910E+00  7.59869910E+00
 -1.51973982E+01  7.59869910E+00  7.59869910E+00 -1.51973982E+01  7.59869910E+00
  7.59869910E+00 -1.51973982E+01  7.59869910E+00  7.59869910E+00 -1.51973982E+01
  7.59869910E+00  7.59869910E+00 -1.51973982E+01  7.59869910E+00  7.59869910E+00
 -1.51973982E+01  7.59869910E+00  7.59869910E+00 -1.51973982E+01  7.59869910E+00
  7.59869910E+00 -1.51973982E+01  7.59869910E+00  7.59869910E+00 -1.51973982E+01
  7.59869910E+00  7.59869910E+00 -1.51973982E+01  7.59869910E+00  7.59869910E+00
 -1.51973982E+01  7.59869910E+00  7.59869910E+00 -1.51973982E+01  7.59869910E+00
  7.59869910E+00 -1.51973982E+01  7.59869910E+00  7.59869910E+00 -1.51973982E+01
  7.59869910E+00  7.59869910E+00 -1.51973982E+01  7.59869910E+00  7.59869910E+00
 -1.51973982E+01  7.59869910E+00  7.59869910E+00 -1.51973982E+01  7.59869910E+00
  7.59869910E+00 -1.51973982E+01  7.59869910E+00  7.59869910E+00 -1.51973982E+01
  7.59869910E+00  7.59869910E+00 -1.51973982E+01  7.59869910E+00  7.59869910E+00
 -1.51973982E+01  7.59869910E+00  7.59869910E+00 -1.51973982E+01  7.59869910E+00
  7.59869910E+00 -1.51973982E+01  7.59869910E+00  7.59869910E+00 -1.51973982E+01
  7.59869910E+00  7.59869910E+00 -1.51973982E+01  7.59869910E+00  7.59869910E+00
 -1.51973982E+01  7.59869910E+00  7.59869910E+00 -1.51973982E+01  7.59869910E+00
  7.59869910E+00 -1.51973982E+01  7.59869910E+00  7.59869910E+00 -1.51973982E+01
  7.59869910E+00  7.59869910E+00 -1.51973982E+01  7.59869910E+00  7.59869910E+00
 -1.51973982E+01  7.59869910E+00  7.59869910E+00 -1.51973982E+01  7.59869910E+00
  7.59869910E+00 -1.51973982E+01  7.59869910E+00  7.59869910E+00 -1.51973982E+01
  7.59869910E+00  7.59869910E+00 -1.51973982E+01  7.59869910E+00  7.59869910E+00
 -1.51973982E+01  7.59869910E+00  7.59869910E+00 -1.51973982E+01  7.59869910E+00
  7.59869910E+00 -1.51973982E+01  7.59869910E+00  7.59869910E+00 -1.51973982E+01
  7.59869910E+00  7.59869910E+00 -1.51973982E+01  7.59869910E+00  7.59869910E+00
 -1.51973982E+01  7.59869910E+00  7.59869910E+00 -1.51973982E+01  7.59869910E+00
  7.59869910E+00 -1.51973982E+01  7.59869910E+00  7.59869910E+00 -1.51973982E+01
  7.59869910E+00  7.59869910E+00 -1.51973982E+01  7.59869910E+00  7.59869910E+00
 -1.51973982E+01  7.59869910E+00  7.59869910E+00 -1.51973982E+01  7.59869910E+00
  7.59869910E+00 -1.51973982E+01  7.59869910E+00  7.59869910E+00 -1.51973982E+01
  7.59869910E+00  7.59869910E+00 -1.51973982E+01  7.59869910E+00  7.59869910E+00
 -1.51973982E+01  7.59869910E+00  7.59869910E+00 -1.51973982E+01  7.59869910E+00
  7.59869910E+00 -1.51973982E+01  7.59869910E+00  7.59869910E+00 -1.51973982E+01
  7.59869910E+00  7.59869910E+00 -1.51973982E+01  7.59869910E+00  7.59869910E+00
 -1.51973982E+01  7.59869910E+00  7.59869910E+00 -1.51973982E+01  7.59869910E+00
  7.59869910E+00 -1.51973982E+01  7.59869910E+00  7.59869910E+00 -1.51973982E+01
  7.59869910E+00  7.59869910E+00 -1.51973982E+01  7.59869910E+00  7.59869910E+00
 -1.51973982E+01  7.59869910E+00  7.59869910E+00 -1.51973982E+01  7.59869910E+00
  7.59869910E+00 -1.51973982E+01  7.59869910E+00  7.59869910E+00 -1.51973982E+01
  7.59869910E+00  7.59869910E+00 -1.51973982E+01  7.59869910E+00  7.59869910E+00
 -1.51973982E+01  7.59869910E+00  7.59869910E+00 -1.51973982E+01  7.59869910E+00
  7.59869910E+00 -1.51973982E+01  7.59869910E+00  7.59869910E+00 -1.51973982E+01
  7.59869910E+00  7.59869910E+00 -1.51973982E+01  7.59869910E+00  7.59869910E+00
 -1.51973982E+01  7.59869910E+00  7.59869910E+00 -1.51973982E+01  7.59869910E+00
  7.59869910E+00 -1.51973982E+01  7.59869910E+00  7.59869910E+00 -1.51973982E+01
  7.59869910E+00  7.59869910E+00 -1.51973982E+01  7.59869910E+00  7.59869910E+00
 -1.51973982E+01  7.59869910E+00  7.59869910E+00 -1.51973982E+01  7.59869910E+00
  7.59869910E+00 -1.51973982E+01  7.59869910E+00  7.59869910E+00 -1.51973982E+01
  7.59869910E+00  7.59869910E+00 -1.51973982E+01  7.59869910E+00  7.59869910E+00
 -1.51973982E+01  7.59869910E+00  7.59869910E+00 -1.51973982E+01  7.59869910E+00
  7.59869910E+00 -1.51973982E+01  7.59869910E+00  7.59869910E+00 -1.51973982E+01
  7.59869910E+00  7.59869910E+00 -1.51973982E+01  7.59869910E+00  7.59869910E+00
 -1.51973982E+01  7.59869910E+00  7.59869910E+00 -1.51973982E+01  7.59869910E+00
  7.59869910E+00 -1.51973982E+01  7.59869910E+00  7.59869910E+00 -1.51973982E+01
  7.59869910E+00  7.59869910E+00 -1.51973982E+01  7.59869910E+00  7.59869910E+00
 -1.51973982E+01  7.59869910E+00  7.59869910E+00 -1.51973982E+01  7.59869910E+00
  7.59869910E+00 -1.51973982E+01  7.59869910E+00  7.59869910E+00 -1.51973982E+01
  7.59869910E+00  7.59869910E+00 -1.51973982E+01  7.59869910E+00  7.59869910E+00
 -1.51973982E+01  7.59869910E+00  7.59869910E+00 -1.51973982E+01  7.59869910E+00
  7.59869910E+00 -1.51973982E+01  7.59869910E+00  7.59869910E+00 -1.51973982E+01
  7.59869910E+00  7.59869910E+00 -1.51973982E+01  7.59869910E+00  7.59869910E+00
 -1.51973982E+01  7.59869910E+00  7.59869910E+00 -1.51973982E+01  7.59869910E+00
  7.59869910E+00 -1.51973982E+01  7.59869910E+00  7.59869910E+00 -1.51973982E+01
  7.59869910E+00  7.59869910E+00 -1.51973982E+01  7.59869910E+00  7.59869910E+00
 -1.51973982E+01  7.59869910E+00  7.59869910E+00 -1.51973982E+01  7.59869910E+00
  7.59869910E+00 -1.51973982E+01  7.59869910E+00  7.59869910E+00 -1.51973982E+01
  7.59869910E+00  7.59869910E+00 -1.51973982E+01  7.59869910E+00  7.59869910E+00
 -1.51973982E+01  7.59869910E+00  7.59869910E+00 -1.51973982E+01  7.59869910E+00
  7.59869910E+00 -1.51973982E+01  7.59869910E+00  7.59869910E+00 -1.51973982E+01
  7.59869910E+00  7.59869910E+00 -1.51973982E+01  7.59869910E+00  7.59869910E+00
 -1.51973982E+01  7.59869910E+00  7.59869910E+00 -1.51973982E+01  7.59869910E+00
  7.59869910E+00 -1.51973982E+01  7.59869910E+00  7.59869910E+00 -1.51973982E+01
  7.59869910E+00  7.59869910E+00 -1.51973982E+01  7.59869910E+00  7.59869910E+00
 -1.51973982E+01  7.59869910E+00  7.59869910E+00 -1.51973982E+01  7.59869910E+00
  7.59869910E+00 -1.51973982E+01  7.59869910E+00  7.59869910E+00 -1.51973982E+01
  7.59869910E+00  7.59869910E+00 -1.51973982E+01  7.59869910E+00  7.59869910E+00
 -1.51973982E+01  7.59869910E+00  7.59869910E+00 -1.51973982E+01  7.59869910E+00
  7.59869910E+00 -1.51973982E+01  7.59869910E+00  7.59869910E+00 -1.51973982E+01
  7.59869910E+00  7.59869910E+00 -1.51973982E+01  7.59869910E+00  7.59869910E+00
 -1.51973982E+01  7.59869910E+00  7.59869910E+00 -1.51973982E+01  7.59869910E+00
  7.59869910E+00 -1.51973982E+01  7.59869910E+00  7.59869910E+00 -1.51973982E+01
  7.59869910E+00  7.59869910E+00 -1.51973982E+01  7.59869910E+00  7.59869910E+00
 -1.51973982E+01  7.59869910E+00  7.59869910E+00 -1.51973982E+01  7.59869910E+00
  7.59869910E+00 -1.51973982E+01  7.59869910E+00  7.59869910E+00 -1.51973982E+01
  7.59869910E+00  7.59869910E+00 -1.51973982E+01  7.59869910E+00  7.59869910E+00
 -1.51973982E+01  7.59869910E+00  7.59869910E+00 -1.51973982E+01  7.59869910E+00
  7.59869910E+00 -1.51973982E+01  7.59869910E+00  7.59869910E+00 -1.51973982E+01
  7.59869910E+00  7.59869910E+00 -1.51973982E+01  7.59869910E+00  7.59869910E+00
 -1.51973982E+01  7.59869910E+00  7.59869910E+00 -1.51973982E+01  7.59869910E+00
  7.59869910E+00 -1.51973982E+01  7.59869910E+00  7.59869910E+00 -1.51973982E+01
  7.59869910E+00  7.59869910E+00 -1.51973982E+01  7.59869910E+00  7.59869910E+00
 -1.51973982E+01  7.59869910E+00  7.59869910E+00 -1.51973982E+01  7.59869910E+00
  7.59869910E+00 -1.51973982E+01  7.59869910E+00  7.59869910E+00 -1.51973982E+01
  7.59869910E+00  7.59869910E+00 -1.51973982E+01  7.59869910E+00  7.59869910E+00
 -1.51973982E+01  7.59869910E+00  7.59869910E+00 -1.51973982E+01  7.59869910E+00
  7.59869910E+00 -1.51973982E+01  7.59869910E+00  7.59869910E+00 -1.51973982E+01
  7.59869910E+00  7.59869910E+00 -1.51973982E+01  7.59869910E+00  7.59869910E+00
 -1.51973982E+01  7.59869910E+00  7.59869910E+00 -1.51973982E+01  7.59869910E+00
  7.59869910E+00 -1.51973982E+01  7.59869910E+00  7.59869910E+00 -1.51973982E+01
  7.59869910E+00  7.59869910E+00 -1.51973982E+01  7.59869910E+00  7.59869910E+00
 -1.51973982E+01  7.59869910E+00  7.59869910E+00 -1.51973982E+01  7.59869910E+00
  7.59869910E+00 -1.51973982E+01  7.59869910E+00  7.59869910E+00 -1.51973982E+01
  7.59869910E+00  7.59869910E+00 -1.51973982E+01  7.59869910E+00  7.59869910E+00
 -1.51973982E+01  7.59869910E+00  7.59869910E+00 -1.51973982E+01  7.59869910E+00
  7.59869910E+00 -1.51973982E+01  7.59869910E+00  7.59869910E+00 -1.51973982E+01
  7.59869910E+00  7.59869910E+00 -1.51973982E+01  7.59869910E+00  7.59869910E+00
 -1.51973982E+01  7.59869910E+00  7.59869910E+00 -1.51973982E+01  7.59869910E+00
  7.59869910E+00 -1.51973982E+01  7.59869910E+00  7.59869910E+00 -1.51973982E+01
  7.59869910E+00  7.59869910E+00 -1.51973982E+01  7.59869910E+00  7.59869910E+00
 -1.51973982E+01  7.59869910E+00  7.59869910E+00 -1.51973982E+01  7.59869910E+00
  7.59869910E+00 -1.51973982E+01  7.59869910E+00  7.59869910E+00 -1.51973982E+01
  7.59869910E+00  7.59869910E+00 -1.51973982E+01  7.59869910E+00  7.59869910E+00
 -1.51973982E+01  7.59869910E+00  7.59869910E+00 -1.51973982E+01  7.59869910E+00
  7.59869910E+00 -1.51973982E+01  7.59869910E+00  7.59869910E+00 -1.51973982E+01
  7.59869910E+00  7.59869910E+00 -1.51973982E+01  7.59869910E+00  7.59869910E+00
 -1.51973982E+01  7.59869910E+00  7.59869910E+00 -1.51973982E+01  7.59869910E+00
  7.59869910E+00 -1.51973982E+01  7.59869910E+00  7.59869910E+00 -1.51973982E+01
  7.59869910E+00  7.59869910E+00 -1.51973982E+01  7.59869910E+00  7.59869910E+00
 -1.51973982E+01  7.59869910E+00  7.59869910E+00 -1.51973982E+01  7.59869910E+00
  7.59869910E+00 -1.51973982E+01  7.59869910E+00  7.59869910E+00 -1.51973982E+01
  7.59869910E+00  7.59869910E+00 -1.51973982E+01  7.59869910E+00  7.59869910E+00
 -1.51973982E+01  7.59869910E+00  7.59869910E+00 -1.51973982E+01  7.59869910E+00
  7.59869910E+00 -1.51973982E+01  7.59869910E+00  7.59869910E+00 -1.51973982E+01
  7.59869910E+00  7.59869910E+00 -1.51973982E+01  7.59869910E+00  7.59869910E+00
 -1.51973982E+01  7.59869910E+00  7.59869910E+00 -1.51973982E+01  7.59869910E+00
  7.59869910E+00 -1.51973982E+01  7.59869910E+00  7.59869910E+00 -1.51973982E+01
  7.59869910E+00  7.59869910E+00 -1.51973982E+01  7.59869910E+00  7.59869910E+00
 -1.51973982E+01  7.59869910E+00  7.59869910E+00 -1.51973982E+01  7.59869910E+00
  7.59869910E+00 -1.51973982E+01  7.59869910E+00  7.59869910E+00 -1.51973982E+01
  7.59869910E+00  7.59869910E+00 -1.51973982E+01  7.59869910E+00  7.59869910E+00
 -1.51973982E+01  7.59869910E+00  7.59869910E+00 -1.51973982E+01  7.59869910E+00
  7.59869910E+00 -1.51973982E+01  7.59869910E+00  7.59869910E+00 -1.51973982E+01
  7.59869910E+00  7.59869910E+00 -1.51973982E+01  7.59869910E+00  7.59869910E+00
 -1.51973982E+01  7.59869910E+00  7.59869910E+00 -1.51973982E+01  7.59869910E+00
  7.59869910E+00 -1.51973982E+01  7.59869910E+00  7.59869910E+00 -1.51973982E+01
  7.59869910E+00  7.59869910E+00 -1.51973982E+01  7.59869910E+00  7.59869910E+00
 -1.51973982E+01  7.59869910E+00  7.59869910E+00 -1.51973982E+01  7.59869910E+00
  7.59869910E+00 -1.51973982E+01  7.59869910E+00  7.59869910E+00 -1.51973982E+01
  7.59869910E+00  7.59869910E+00 -1.51973982E+01  7.59869910E+00  7.59869910E+00
 -1.51973982E+01  7.59869910E+00  7.59869910E+00 -1.51973982E+01  7.59869910E+00
  7.59869910E+00 -1.51973982E+01  7.59869910E+00  7.59869910E+00 -1.51973982E+01
  7.59869910E+00  7.59869910E+00 -1.51973982E+01  7.59869910E+00  7.59869910E+00
 -1.51973982E+01  7.59869910E+00  7.59869910E+00 -1.51973982E+01  7.59869910E+00
  7.59869910E+00 -1.51973982E+01  7.59869910E+00  7.59869910E+00 -1.51973982E+01
  7.59869910E+00  7.59869910E+00 -1.51973982E+01  7.59869910E+00  7.59869910E+00
 -1.51973982E+01  7.59869910E+00  7.59869910E+00 -1.51973982E+01  7.59869910E+00
  7.59869910E+00 -1.51973982E+01  7.59869910E+00  7.59869910E+00 -1.51973982E+01
  7.59869910E+00  7.59869910E+00 -1.51973982E+01  7.59869910E+00  7.59869910E+00
 -1.51973982E+01  7.59869910E+00  7.59869910E+00 -1.51973982E+01  7.59869910E+00
  7.59869910E+00 -1.51973982E+01  7.59869910E+00  7.59869910E+00 -1.51973982E+01
  7.59869910E+00  7.59869910E+00 -1.51973982E+01  7.59869910E+00  7.59869910E+00
 -1.51973982E+01  7.59869910E+00  7.59869910E+00 -1.51973982E+01  7.59869910E+00
  7.59869910E+00 -1.51973982E+01  7.59869910E+00  7.59869910E+00 -1.51973982E+01
  7.59869910E+00  7.59869910E+00 -1.51973982E+01  7.59869910E+00  7.59869910E+00
 -1.51973982E+01  7.59869910E+00  7.59869910E+00 -1.51973982E+01  7.59869910E+00
  7.59869910E+00 -1.51973982E+01  7.59869910E+00  7.59869910E+00 -1.51973982E+01
  7.59869910E+00  7.59869910E+00 -1.51973982E+01  7.59869910E+00  7.59869910E+00
 -1.51973982E+01  7.59869910E+00  7.59869910E+00 -1.51973982E+01  7.59869910E+00
  7.59869910E+00 -1.51973982E+01  7.59869910E+00  7.59869910E+00 -1.51973982E+01
  7.59869910E+00  7.59869910E+00 -1.51973982E+01  7.59869910E+00  7.59869910E+00
 -1.51973982E+01  7.59869910E+00  7.59869910E+00 -1.51973982E+01  7.59869910E+00
  7.59869910E+00 -1.51973982E+01  7.59869910E+00  7.59869910E+00 -1.51973982E+01
  7.59869910E+00  7.59869910E+00 -1.51973982E+01  7.59869910E+00  7.59869910E+00
 -1.51973982E+01  7.59869910E+00  7.59869910E+00 -1.51973982E+01  7.59869910E+00
  7.59869910E+00 -1.51973982E+01  7.59869910E+00  7.59869910E+00 -1.51973982E+01
  7.59869910E+00  7.59869910E+00 -1.51973982E+01  7.59869910E+00  7.59869910E+00
 -1.51973982E+01  7.59869910E+00  7.59869910E+00 -1.51973982E+01  7.59869910E+00
  7.59869910E+00 -1.51973982E+01  7.59869910E+00  7.59869910E+00 -1.51973982E+01
  7.59869910E+00  7.59869910E+00 -1.51973982E+01  7.59869910E+00  7.59869910E+00
 -1.51973982E+01  7.59869910E+00  7.59869910E+00 -1.51973982E+01  7.59869910E+00
  7.59869910E+00 -1.51973982E+01  7.59869910E+00  7.59869910E+00 -1.51973982E+01
  7.59869910E+00  7.59869910E+00 -1.51973982E+01  7.59869910E+00  7.59869910E+00
 -1.51973982E+01  7.59869910E+00  7.59869910E+00 -1.51973982E+01  7.59869910E+00
  7.59869910E+00 -1.51973982E+01  7.59869910E+00  7.59869910E+00 -1.51973982E+01
  7.59869910E+00  7.59869910E+00 -1.51973982E+01  7.59869910E+00  7.59869910E+00
 -1.51973982E+01  7.59869910E+00  7.59869910E+00 -1.51973982E+01  7.59869910E+00
  7.59869910E+00 -1.51973982E+01  7.59869910E+00  7.59869910E+00 -1.51973982E+01
  7.59869910E+00  7.59869910E+00 -1.51973982E+01  7.59869910E+00  7.59869910E+00
 -1.51973982E+01  7.59869910E+00  7.59869910E+00 -1.51973982E+01  7.59869910E+00
  7.59869910E+00 -1.51973982E+01  7.59869910E+00  7.59869910E+00 -1.51973982E+01
  7.59869910E+00  7.59869910E+00 -1.51973982E+01  7.59869910E+00  7.59869910E+00
 -1.51973982E+01  7.59869910E+00  7.59869910E+00 -1.51973982E+01  7.59869910E+00
  7.59869910E+00 -1.51973982E+01  7.59869910E+00  7.59869910E+00 -1.51973982E+01
  7.59869910E+00  7.59869910E+00 -1.51973982E+01  7.59869910E+00  7.59869910E+00
 -1.51973982E+01  7.59869910E+00  7.59869910E+00 -1.51973982E+01  7.59869910E+00
  7.59869910E+00 -1.51973982E+01  7.59869910E+00  7.59869910E+00 -1.51973982E+01
  7.59869910E+00  7.59869910E+00 -1.51973982E+01  7.59869910E+00  7.59869910E+00
 -1.51973982E+01  7.59869910E+00  7.59869910E+00 -1.51973982E+01  7.59869910E+00
  7.59869910E+00 -1.51973982E+01  7.59869910E+00  7.59869910E+00 -1.51973982E+01
  7.59869910E+00  7.59869910E+00 -1.51973982E+01  7.59869910E+00  7.59869910E+00
 -1.51973982E+01  7.59869910E+00  7.59869910E+00 -1.51973982E+01  7.59869910E+00
  7.59869910E+00 -1.51973982E+01  7.59869910E+00  7.59869910E+00 -1.51973982E+01
  7.59869910E+00  7.59869910E+00 -1.51973982E+01  7.59869910E+00  7.59869910E+00
 -1.51973982E+01  7.59869910E+00  7.59869910E+00 -1.51973982E+01  7.59869910E+00
  7.59869910E+00 -1.51973982E+01  7.59869910E+00  7.59869910E+00 -1.51973982E+01
  7.59869910E+00  7.59869910E+00 -1.51973982E+01  7.59869910E+00  7.59869910E+00
 -1.51973982E+01  7.59869910E+00  7.59869910E+00 -1.51973982E+01  7.59869910E+00
  7.59869910E+00 -1.51973982E+01  7.59869910E+00  7.59869910E+00 -1.51973982E+01
  7.59869910E+00  7.59869910E+00 -1.51973982E+01  7.59869910E+00  7.59869910E+00
 -1.51973982E+01  7.59869910E+00  7.59869910E+00 -1.51973982E+01  7.59869910E+00
  7.59869910E+00 -1.51973982E+01  7.59869910E+00  7.59869910E+00 -1.51973982E+01
  7.59869910E+00  7.59869910E+00 -1.51973982E+01  7.59869910E+00  7.59869910E+00
 -1.51973982E+01  7.59869910E+00  7.59869910E+00 -1.51973982E+01  7.59869910E+00
  7.59869910E+00 -1.51973982E+01  7.59869910E+00  7.59869910E+00 -1.51973982E+01
  7.59869910E+00  7.59869910E+00 -1.51973982E+01  7.59869910E+00  7.59869910E+00
 -1.51973982E+01  7.59869910E+00  7.59869910E+00 -1.51973982E+01  7.59869910E+00
  7.59869910E+00 -1.51973982E+01  7.59869910E+00  7.59869910E+00 -1.51973982E+01
  7.59869910E+00  7.59869910E+00 -1.51973982E+01  7.59869910E+00  7.59869910E+00
 -1.51973982E+01  7.59869910E+00  7.59869910E+00 -1.51973982E+01  7.59869910E+00
  7.59869910E+00 -1.51973982E+01  7.59869910E+00  7.59869910E+00 -1.51973982E+01
  7.59869910E+00  7.59869910E+00 -1.51973982E+01  7.59869910E+00  7.59869910E+00
 -1.51973982E+01  7.59869910E+00  7.59869910E+00 -1.51973982E+01  7.59869910E+00
  7.59869910E+00 -1.51973982E+01  7.59869910E+00  7.59869910E+00 -1.51973982E+01
  7.59869910E+00  7.59869910E+00 -1.51973982E+01  7.59869910E+00  7.59869910E+00
 -1.51973982E+01  7.59869910E+00  7.59869910E+00 -1.51973982E+01  7.59869910E+00
  7.59869910E+00 -1.51973982E+01  7.59869910E+00  7.59869910E+00 -1.51973982E+01
  7.59869910E+00  7.59869910E+00 -1.51973982E+01  7.59869910E+00  7.59869910E+00
 -1.51973982E+01  7.59869910E+00  7.59869910E+00 -1.51973982E+01  7.59869910E+00
  7.59869910E+00 -1.51973982E+01  7.59869910E+00  7.59869910E+00 -1.51973982E+01
  7.59869910E+00  7.59869910E+00 -1.51973982E+01  7.59869910E+00  7.59869910E+00
 -1.51973982E+01  7.59869910E+00  7.59869910E+00 -1.51973982E+01  7.59869910E+00
  7.59869910E+00 -1.51973982E+01  7.59869910E+00  7.59869910E+00 -1.51973982E+01
  7.59869910E+00  7.59869910E+00 -1.51973982E+01  7.59869910E+00  7.59869910E+00
 -1.51973982E+01  7.59869910E+00  7.59869910E+00 -1.51973982E+01  7.59869910E+00
  7.59869910E+00 -1.51973982E+01  7.59869910E+00  7.59869910E+00 -1.51973982E+01
  7.59869910E+00  7.59869910E+00 -1.51973982E+01  7.59869910E+00  7.59869910E+00
 -1.51973982E+01  7.59869910E+00  7.59869910E+00 -1.51973982E+01  7.59869910E+00
  7.59869910E+00 -1.51973982E+01  7.59869910E+00  7.59869910E+00 -1.51973982E+01
  7.59869910E+00  7.59869910E+00 -1.51973982E+01  7.59869910E+00  7.59869910E+00
 -1.51973982E+01  7.59869910E+00  7.59869910E+00 -1.51973982E+01  7.59869910E+00
  7.59869910E+00 -1.51973982E+01  7.59869910E+00  7.59869910E+00 -1.51973982E+01
  7.59869910E+00  7.59869910E+00 -1.51973982E+01  7.59869910E+00  7.59869910E+00
 -1.51973982E+01  7.59869910E+00  7.59869910E+00 -1.51973982E+01  7.59869910E+00
  7.59869910E+00 -1.51973982E+01  7.59869910E+00  7.59869910E+00 -1.51973982E+01
  7.59869910E+00  7.59869910E+00 -1.51973982E+01  7.59869910E+00  7.59869910E+00
 -1.51973982E+01  7.59869910E+00  7.59869910E+00 -1.51973982E+01  7.59869910E+00
  7.59869910E+00 -1.51973982E+01  7.59869910E+00  7.59869910E+00 -1.51973982E+01
  7.59869910E+00  7.59869910E+00 -1.51973982E+01  7.59869910E+00  7.59869910E+00
 -1.51973982E+01  7.59869910E+00  7.59869910E+00 -1.51973982E+01  7.59869910E+00
  7.59869910E+00 -1.51973982E+01  7.59869910E+00  7.59869910E+00 -1.51973982E+01
  7.59869910E+00  7.59869910E+00 -1.51973982E+01  7.59869910E+00  7.59869910E+00
 -1.51973982E+01  7.59869910E+00  7.59869910E+00 -1.51973982E+01  7.59869910E+00
  7.59869910E+00 -1.51973982E+01  7.59869910E+00  7.59869910E+00 -1.51973982E+01
  7.59869910E+00  7.59869910E+00 -1.51973982E+01  7.59869910E+00  7.59869910E+00
 -1.51973982E+01  7.59869910E+00  7.59869910E+00 -1.51973982E+01  7.59869910E+00
  7.59869910E+00 -1.51973982E+01  7.59869910E+00  7.59869910E+00 -1.51973982E+01
  7.59869910E+00  7.59869910E+00 -1.51973982E+01  7.59869910E+00  7.59869910E+00
 -1.51973982E+01  7.59869910E+00  7.59869910E+00 -1.51973982E+01  7.59869910E+00
  7.59869910E+00 -1.51973982E+01  7.59869910E+00  7.59869910E+00 -1.51973982E+01
  7.59869910E+00  7.59869910E+00 -1.51973982E+01  7.59869910E+00  7.59869910E+00
 -1.51973982E+01  7.59869910E+00  7.59869910E+00 -1.51973982E+01  7.59869910E+00
  7.59869910E+00 -1.51973982E+01  7.59869910E+00  7.59869910E+00 -1.51973982E+01
  7.59869910E+00  7.59869910E+00 -1.51973982E+01  7.59869910E+00  7.59869910E+00
 -1.51973982E+01  7.59869910E+00  7.59869910E+00 -1.51973982E+01  7.59869910E+00
  7.59869910E+00 -1.51973982E+01  7.59869910E+00  7.59869910E+00 -1.51973982E+01
  7.59869910E+00  7.59869910E+00 -1.51973982E+01  7.59869910E+00  7.59869910E+00
 -1.51973982E+01  7.59869910E+00  7.59869910E+00 -1.51973982E+01  7.59869910E+00
  7.59869910E+00 -1.51973982E+01  7.59869910E+00  7.59869910E+00 -1.51973982E+01
  7.59869910E+00  7.59869910E+00 -1.51973982E+01  7.59869910E+00  7.59869910E+00
 -1.51973982E+01  7.59869910E+00  7.59869910E+00 -1.51973982E+01  7.59869910E+00
  7.59869910E+00 -1.51973982E+01  7.59869910E+00  7.59869910E+00 -1.51973982E+01
  7.59869910E+00  7.59869910E+00 -1.51973982E+01  7.59869910E+00  7.59869910E+00
 -1.51973982E+01  7.59869910E+00  7.59869910E+00 -1.51973982E+01  7.59869910E+00
  7.59869910E+00 -1.51973982E+01  7.59869910E+00  7.59869910E+00 -1.51973982E+01
  7.59869910E+00  7.59869910E+00 -1.51973982E+01  7.59869910E+00  7.59869910E+00
 -1.51973982E+01  7.59869910E+00  7.59869910E+00 -1.51973982E+01  7.59869910E+00
  7.59869910E+00 -1.51973982E+01  7.59869910E+00  7.59869910E+00 -1.51973982E+01
  7.59869910E+00  7.59869910E+00 -1.51973982E+01  7.59869910E+00  7.59869910E+00
 -1.51973982E+01  7.59869910E+00  7.59869910E+00 -1.51973982E+01  7.59869910E+00
  7.59869910E+00 -1.51973982E+01  7.59869910E+00  7.59869910E+00 -1.51973982E+01
  7.59869910E+00  7.59869910E+00 -1.51973982E+01  7.59869910E+00  7.59869910E+00
 -1.51973982E+01  7.59869910E+00  7.59869910E+00 -1.51973982E+01  7.59869910E+00
  7.59869910E+00 -1.51973982E+01  7.59869910E+00  7.59869910E+00 -1.51973982E+01
  7.59869910E+00  7.59869910E+00 -1.51973982E+01  7.59869910E+00  7.59869910E+00
 -1.51973982E+01  7.59869910E+00  7.59869910E+00 -1.51973982E+01  7.59869910E+00
  7.59869910E+00 -1.51973982E+01  7.59869910E+00  7.59869910E+00 -1.51973982E+01
  7.59869910E+00  7.59869910E+00 -1.51973982E+01  7.59869910E+00  7.59869910E+00
 -1.51973982E+01  7.59869910E+00  7.59869910E+00 -1.51973982E+01  7.59869910E+00
  7.59869910E+00 -1.51973982E+01  7.59869910E+00  7.59869910E+00 -1.51973982E+01
  7.59869910E+00  7.59869910E+00 -1.51973982E+01  7.59869910E+00  7.59869910E+00
 -1.51973982E+01  7.59869910E+00  7.59869910E+00 -1.51973982E+01  7.59869910E+00
  7.59869910E+00 -1.51973982E+01  7.59869910E+00  7.59869910E+00 -1.51973982E+01
  7.59869910E+00  7.59869910E+00 -1.51973982E+01  7.59869910E+00  7.59869910E+00
 -1.51973982E+01  7.59869910E+00  7.59869910E+00 -1.51973982E+01  7.59869910E+00
  7.59869910E+00 -1.51973982E+01  7.59869910E+00  7.59869910E+00 -1.51973982E+01
  7.59869910E+00  7.59869910E+00 -1.51973982E+01  7.59869910E+00  7.59869910E+00
 -1.51973982E+01  7.59869910E+00  7.59869910E+00 -1.51973982E+01  7.59869910E+00
  7.59869910E+00 -1.51973982E+01  7.59869910E+00  7.59869910E+00 -1.51973982E+01
  7.59869910E+00  7.59869910E+00 -1.51973982E+01  7.59869910E+00  7.59869910E+00
 -1.51973982E+01  7.59869910E+00  7.59869910E+00 -1.51973982E+01  7.59869910E+00
  7.59869910E+00 -1.51973982E+01  7.59869910E+00  7.59869910E+00 -1.51973982E+01
  7.59869910E+00  7.59869910E+00 -1.51973982E+01  7.59869910E+00  7.59869910E+00
 -1.51973982E+01  7.59869910E+00  7.59869910E+00 -1.51973982E+01  7.59869910E+00
  7.59869910E+00 -1.51973982E+01  7.59869910E+00  7.59869910E+00 -1.51973982E+01
  7.59869910E+00  7.59869910E+00 -1.51973982E+01  7.59869910E+00  7.59869910E+00
 -1.51973982E+01  7.59869910E+00  7.59869910E+00 -1.51973982E+01  7.59869910E+00
  7.59869910E+00 -1.51973982E+01  7.59869910E+00  7.59869910E+00 -1.51973982E+01
  7.59869910E+00  7.59869910E+00 -1.51973982E+01  7.59869910E+00  7.59869910E+00
 -1.51973982E+01  7.59869910E+00  7.59869910E+00 -1.51973982E+01  7.59869910E+00
  7.59869910E+00 -1.51973982E+01  7.59869910E+00  7.59869910E+00 -1.51973982E+01
  7.59869910E+00  7.59869910E+00 -1.51973982E+01  7.59869910E+00  7.59869910E+00
 -1.51973982E+01  7.59869910E+00  7.59869910E+00 -1.51973982E+01  7.59869910E+00
  7.59869910E+00 -1.51973982E+01  7.59869910E+00  7.59869910E+00 -1.51973982E+01
  7.59869910E+00  7.59869910E+00 -1.51973982E+01  7.59869910E+00  7.59869910E+00
 -1.51973982E+01  7.59869910E+00  7.59869910E+00 -1.51973982E+01  7.59869910E+00
  7.59869910E+00 -1.51973982E+01  7.59869910E+00  7.59869910E+00 -1.51973982E+01
  7.59869910E+00  7.59869910E+00 -1.51973982E+01  7.59869910E+00  7.59869910E+00
 -1.51973982E+01  7.59869910E+00  7.59869910E+00 -1.51973982E+01  7.59869910E+00
  7.59869910E+00 -1.51973982E+01  7.59869910E+00  7.59869910E+00 -1.51973982E+01
  7.59869910E+00  7.59869910E+00 -1.51973982E+01  7.59869910E+00  7.59869910E+00
 -1.51973982E+01  7.59869910E+00  7.59869910E+00 -1.51973982E+01  7.59869910E+00
  7.59869910E+00 -1.51973982E+01  7.59869910E+00  7.59869910E+00 -1.51973982E+01
  7.59869910E+00  7.59869910E+00 -1.51973982E+01  7.59869910E+00  7.59869910E+00
 -1.51973982E+01  7.59869910E+00  7.59869910E+00 -1.51973982E+01  7.59869910E+00
  7.59869910E+00 -1.51973982E+01  7.59869910E+00  7.59869910E+00 -1.51973982E+01
  7.59869910E+00  7.59869910E+00 -1.51973982E+01  7.59869910E+00  7.59869910E+00
 -1.51973982E+01  7.59869910E+00  7.59869910E+00 -1.51973982E+01  7.59869910E+00
  7.59869910E+00 -1.51973982E+01  7.59869910E+00  7.59869910E+00 -1.51973982E+01
  7.59869910E+00  7.59869910E+00 -1.51973982E+01  7.59869910E+00  7.59869910E+00
 -1.51973982E+01  7.59869910E+00  7.59869910E+00 -1.51973982E+01  7.59869910E+00
  7.59869910E+00 -1.51973982E+01  7.59869910E+00  7.59869910E+00 -1.51973982E+01
  7.59869910E+00  7.59869910E+00 -1.51973982E+01  7.59869910E+00  7.59869910E+00
 -1.51973982E+01  7.59869910E+00  7.59869910E+00 -1.51973982E+01  7.59869910E+00
  7.59869910E+00 -1.51973982E+01  7.59869910E+00  7.59869910E+00 -1.51973982E+01
  7.59869910E+00  7.59869910E+00 -1.51973982E+01  7.59869910E+00  7.59869910E+00
 -1.51973982E+01  7.59869910E+00  7.59869910E+00 -1.51973982E+01  7.59869910E+00
  7.59869910E+00 -1.51973982E+01  7.59869910E+00  7.59869910E+00 -1.51973982E+01
  7.59869910E+00  7.59869910E+00 -1.51973982E+01  7.59869910E+00  7.59869910E+00
 -1.51973982E+01  7.59869910E+00  7.59869910E+00 -1.51973982E+01  7.59869910E+00
  7.59869910E+00 -1.51973982E+01  7.59869910E+00  7.59869910E+00 -1.51973982E+01
  7.59869910E+00  7.59869910E+00 -1.51973982E+01  7.59869910E+00  7.59869910E+00
 -1.51973982E+01  7.59869910E+00  7.59869910E+00 -1.51973982E+01  7.59869910E+00
  7.59869910E+00 -1.51973982E+01  7.59869910E+00  7.59869910E+00 -1.51973982E+01
  7.59869910E+00  7.59869910E+00 -1.51973982E+01  7.59869910E+00  7.59869910E+00
 -1.51973982E+01  7.59869910E+00  7.59869910E+00 -1.51973982E+01  7.59869910E+00
  7.59869910E+00 -1.51973982E+01  7.59869910E+00  7.59869910E+00 -1.51973982E+01
  7.59869910E+00  7.59869910E+00 -1.51973982E+01  7.59869910E+00  7.59869910E+00
 -1.51973982E+01  7.59869910E+00  7.59869910E+00 -1.51973982E+01  7.59869910E+00
  7.59869910E+00 -1.51973982E+01  7.59869910E+00  7.59869910E+00 -1.51973982E+01
  7.59869910E+00  7.59869910E+00 -1.51973982E+01  7.59869910E+00  7.59869910E+00
 -1.51973982E+01  7.59869910E+00  7.59869910E+00 -1.51973982E+01  7.59869910E+00
  7.59869910E+00 -1.51973982E+01  7.59869910E+00  7.59869910E+00 -1.51973982E+01
  7.59869910E+00  7.59869910E+00 -1.51973982E+01  7.59869910E+00  7.59869910E+00
 -1.51973982E+01  7.59869910E+00  7.59869910E+00 -1.51973982E+01  7.59869910E+00
  7.59869910E+00 -1.51973982E+01  7.59869910E+00  7.59869910E+00 -1.51973982E+01
  7.59869910E+00  7.59869910E+00 -1.51973982E+01  7.59869910E+00  7.59869910E+00
 -1.51973982E+01  7.59869910E+00  7.59869910E+00 -1.51973982E+01  7.59869910E+00
  7.59869910E+00 -1.51973982E+01  7.59869910E+00  7.59869910E+00 -1.51973982E+01
  7.59869910E+00  7.59869910E+00 -1.51973982E+01  7.59869910E+00  7.59869910E+00
 -1.51973982E+01  7.59869910E+00  7.59869910E+00 -1.51973982E+01  7.59869910E+00
  7.59869910E+00 -1.51973982E+01  7.59869910E+00  7.59869910E+00 -1.51973982E+01
  7.59869910E+00  7.59869910E+00 -1.51973982E+01  7.59869910E+00  7.59869910E+00
 -1.51973982E+01  7.59869910E+00  7.59869910E+00 -1.51973982E+01  7.59869910E+00
  7.59869910E+00 -1.51973982E+01  7.59869910E+00  7.59869910E+00 -1.51973982E+01
  7.59869910E+00  7.59869910E+00 -1.51973982E+01  7.59869910E+00  7.59869910E+00
 -1.51973982E+01  7.59869910E+00  7.59869910E+00 -1.51973982E+01  7.59869910E+00
  7.59869910E+00 -1.51973982E+01  7.59869910E+00  7.59869910E+00 -1.51973982E+01
  7.59869910E+00  7.59869910E+00 -1.51973982E+01  7.59869910E+00  7.59869910E+00
 -1.51973982E+01  7.59869910E+00  7.59869910E+00 -1.51973982E+01  7.59869910E+00
  7.59869910E+00 -1.51973982E+01  7.59869910E+00  7.59869910E+00 -1.51973982E+01
  7.59869910E+00  7.59869910E+00 -1.51973982E+01  7.59869910E+00  7.59869910E+00
 -1.51973982E+01  7.59869910E+00  7.59869910E+00 -1.51973982E+01  7.59869910E+00
  7.59869910E+00 -1.51973982E+01  7.59869910E+00  7.59869910E+00 -1.51973982E+01
  7.59869910E+00  7.59869910E+00 -1.51973982E+01  7.59869910E+00  7.59869910E+00
 -1.51973982E+01  7.59869910E+00  7.59869910E+00 -1.51973982E+01  7.59869910E+00
  7.59869910E+00 -1.51973982E+01  7.59869910E+00  7.59869910E+00 -1.51973982E+01
  7.59869910E+00  7.59869910E+00 -1.51973982E+01  7.59869910E+00  7.59869910E+00
 -1.51973982E+01  7.59869910E+00  7.59869910E+00 -1.51973982E+01  7.59869910E+00
  7.59869910E+00 -1.51973982E+01  7.59869910E+00  7.59869910E+00 -1.51973982E+01
  7.59869910E+00  7.59869910E+00 -1.51973982E+01  7.59869910E+00  7.59869910E+00
 -1.51973982E+01  7.59869910E+00  7.59869910E+00 -1.51973982E+01  7.59869910E+00
  7.59869910E+00 -1.51973982E+01  7.59869910E+00  7.59869910E+00 -1.51973982E+01
  7.59869910E+00  7.59869910E+00 -1.51973982E+01  7.59869910E+00  7.59869910E+00
 -1.51973982E+01  7.59869910E+00  7.59869910E+00 -1.51973982E+01  7.59869910E+00
  7.59869910E+00 -1.51973982E+01  7.59869910E+00  7.59869910E+00 -1.51973982E+01
  7.59869910E+00  7.59869910E+00 -1.51973982E+01  7.59869910E+00  7.59869910E+00
 -1.51973982E+01  7.59869910E+00  7.59869910E+00 -1.51973982E+01  7.59869910E+00
  7.59869910E+00 -1.51973982E+01  7.59869910E+00  7.59869910E+00 -1.51973982E+01
  7.59869910E+00  7.59869910E+00 -1.51973982E+01  7.59869910E+00  7.59869910E+00
 -1.51973982E+01  7.59869910E+00  7.59869910E+00 -1.51973982E+01  7.59869910E+00
  7.59869910E+00 -1.51973982E+01  7.59869910E+00  7.59869910E+00 -1.51973982E+01
  7.59869910E+00  7.59869910E+00 -1.51973982E+01  7.59869910E+00  7.59869910E+00
 -1.51973982E+01  7.59869910E+00  7.59869910E+00 -1.51973982E+01  7.59869910E+00
  7.59869910E+00 -1.51973982E+01  7.59869910E+00  7.59869910E+00 -1.51973982E+01
  7.59869910E+00  7.59869910E+00 -1.51973982E+01  7.59869910E+00  7.59869910E+00
 -1.51973982E+01  7.59869910E+00  7.59869910E+00 -1.51973982E+01  7.59869910E+00
  7.59869910E+00 -1.51973982E+01  7.59869910E+00  7.59869910E+00 -1.51973982E+01
  7.59869910E+00  7.59869910E+00 -1.51973982E+01  7.59869910E+00  7.59869910E+00
 -1.51973982E+01  7.59869910E+00  7.59869910E+00 -1.51973982E+01  7.59869910E+00
  7.59869910E+00 -1.51973982E+01  7.59869910E+00  7.59869910E+00 -1.51973982E+01
  7.59869910E+00  7.59869910E+00 -1.51973982E+01  7.59869910E+00  7.59869910E+00
 -1.51973982E+01  7.59869910E+00  7.59869910E+00 -1.51973982E+01  7.59869910E+00
  7.59869910E+00 -1.51973982E+01  7.59869910E+00  7.59869910E+00 -1.51973982E+01
  7.59869910E+00  7.59869910E+00 -1.51973982E+01  7.59869910E+00  7.59869910E+00
 -1.51973982E+01  7.59869910E+00  7.59869910E+00 -1.51973982E+01  7.59869910E+00
  7.59869910E+00 -1.51973982E+01  7.59869910E+00  7.59869910E+00 -1.51973982E+01
  7.59869910E+00  7.59869910E+00 -1.51973982E+01  7.59869910E+00  7.59869910E+00
 -1.51973982E+01  7.59869910E+00  7.59869910E+00 -1.51973982E+01  7.59869910E+00
  7.59869910E+00 -1.51973982E+01  7.59869910E+00  7.59869910E+00 -1.51973982E+01
  7.59869910E+00  7.59869910E+00 -1.51973982E+01  7.59869910E+00  7.59869910E+00
 -1.51973982E+01  7.59869910E+00  7.59869910E+00 -1.51973982E+01  7.59869910E+00
  7.59869910E+00 -1.51973982E+01  7.59869910E+00  7.59869910E+00 -1.51973982E+01
  7.59869910E+00  7.59869910E+00 -1.51973982E+01  7.59869910E+00  7.59869910E+00
 -1.51973982E+01  7.59869910E+00  7.59869910E+00 -1.51973982E+01  7.59869910E+00
  7.59869910E+00 -1.51973982E+01  7.59869910E+00  7.59869910E+00 -1.51973982E+01
  7.59869910E+00  7.59869910E+00 -1.51973982E+01  7.59869910E+00  7.59869910E+00
 -1.51973982E+01  7.59869910E+00  7.59869910E+00 -1.51973982E+01  7.59869910E+00
  7.59869910E+00 -1.51973982E+01  7.59869910E+00  7.59869910E+00 -1.51973982E+01
  7.59869910E+00  7.59869910E+00 -1.51973982E+01  7.59869910E+00  7.59869910E+00
 -1.51973982E+01  7.59869910E+00  7.59869910E+00 -1.51973982E+01  7.59869910E+00
  7.59869910E+00 -1.51973982E+01  7.59869910E+00  7.59869910E+00 -1.51973982E+01
  7.59869910E+00  7.59869910E+00 -1.51973982E+01  7.59869910E+00  7.59869910E+00
 -1.51973982E+01  7.59869910E+00  7.59869910E+00 -1.51973982E+01  7.59869910E+00
  7.59869910E+00 -1.51973982E+01  7.59869910E+00  7.59869910E+00 -1.51973982E+01
  7.59869910E+00  7.59869910E+00 -1.51973982E+01  7.59869910E+00  7.59869910E+00
 -1.51973982E+01  7.59869910E+00  7.59869910E+00 -1.51973982E+01  7.59869910E+00
  7.59869910E+00 -1.51973982E+01  7.59869910E+00  7.59869910E+00 -1.51973982E+01
  7.59869910E+00  7.59869910E+00 -1.51973982E+01  7.59869910E+00  7.59869910E+00
 -1.51973982E+01  7.59869910E+00  7.59869910E+00 -1.51973982E+01  7.59869910E+00
  7.59869910E+00 -1.51973982E+01  7.59869910E+00  7.59869910E+00 -1.51973982E+01
  7.59869910E+00  7.59869910E+00 -1.51973982E+01  7.59869910E+00  7.59869910E+00
 -1.51973982E+01  7.59869910E+00  7.59869910E+00 -1.51973982E+01  7.59869910E+00
  7.59869910E+00 -1.51973982E+01  7.59869910E+00  7.59869910E+00 -1.51973982E+01
  7.59869910E+00  7.59869910E+00 -1.51973982E+01  7.59869910E+00  7.59869910E+00
 -1.51973982E+01  7.59869910E+00  7.59869910E+00 -1.51973982E+01  7.59869910E+00
  7.59869910E+00 -1.51973982E+01  7.59869910E+00  7.59869910E+00 -1.51973982E+01
  7.59869910E+00  7.59869910E+00 -1.51973982E+01  7.59869910E+00  7.59869910E+00
 -1.51973982E+01  7.59869910E+00  7.59869910E+00 -1.51973982E+01  7.59869910E+00
  7.59869910E+00 -1.51973982E+01  7.59869910E+00  7.59869910E+00 -1.51973982E+01
  7.59869910E+00  7.59869910E+00 -1.51973982E+01  7.59869910E+00  7.59869910E+00
 -1.51973982E+01  7.59869910E+00  7.59869910E+00 -1.51973982E+01  7.59869910E+00
  7.59869910E+00 -1.51973982E+01  7.59869910E+00  7.59869910E+00 -1.51973982E+01
  7.59869910E+00  7.59869910E+00 -1.51973982E+01  7.59869910E+00  7.59869910E+00
 -1.51973982E+01  7.59869910E+00  7.59869910E+00 -1.51973982E+01  7.59869910E+00
  7.59869910E+00 -1.51973982E+01  7.59869910E+00  7.59869910E+00 -1.51973982E+01
  7.59869910E+00  7.59869910E+00 -1.51973982E+01  7.59869910E+00  7.59869910E+00
 -1.51973982E+01  7.59869910E+00  7.59869910E+00 -1.51973982E+01  7.59869910E+00
  7.59869910E+00 -1.51973982E+01  7.59869910E+00  7.59869910E+00 -1.51973982E+01
  7.59869910E+00  7.59869910E+00 -1.51973982E+01  7.59869910E+00  7.59869910E+00
 -1.51973982E+01  7.59869910E+00  7.59869910E+00 -1.51973982E+01  7.59869910E+00
  7.59869910E+00 -1.51973982E+01  7.59869910E+00  7.59869910E+00 -1.51973982E+01
  7.59869910E+00  7.59869910E+00 -1.51973982E+01  7.59869910E+00  7.59869910E+00
 -1.51973982E+01  7.59869910E+00  7.59869910E+00 -1.51973982E+01  7.59869910E+00
  7.59869910E+00 -1.51973982E+01  7.59869910E+00  7.59869910E+00 -1.51973982E+01
  7.59869910E+00  7.59869910E+00 -1.51973982E+01  7.59869910E+00  7.59869910E+00
 -1.51973982E+01  7.59869910E+00  7.59869910E+00 -1.51973982E+01  7.59869910E+00
  7.59869910E+00 -1.51973982E+01  7.59869910E+00  7.59869910E+00 -1.51973982E+01
  7.59869910E+00  7.59869910E+00 -1.51973982E+01  7.59869910E+00  7.59869910E+00
 -1.51973982E+01  7.59869910E+00  7.59869910E+00 -1.51973982E+01  7.59869910E+00
  7.59869910E+00 -1.51973982E+01  7.59869910E+00  7.59869910E+00 -1.51973982E+01
  7.59869910E+00  7.59869910E+00 -1.51973982E+01  7.59869910E+00  7.59869910E+00
 -1.51973982E+01  7.59869910E+00  7.59869910E+00 -1.51973982E+01  7.59869910E+00
  7.59869910E+00 -1.51973982E+01  7.59869910E+00  7.59869910E+00 -1.51973982E+01
  7.59869910E+00  7.59869910E+00 -1.51973982E+01  7.59869910E+00  7.59869910E+00
 -1.51973982E+01  7.59869910E+00  7.59869910E+00 -1.51973982E+01  7.59869910E+00
  7.59869910E+00 -1.51973982E+01  7.59869910E+00  7.59869910E+00 -1.51973982E+01
  7.59869910E+00  7.59869910E+00 -1.51973982E+01  7.59869910E+00  7.59869910E+00
 -1.51973982E+01  7.59869910E+00  7.59869910E+00 -1.51973982E+01  7.59869910E+00
  7.59869910E+00 -1.51973982E+01  7.59869910E+00  7.59869910E+00 -1.51973982E+01
  7.59869910E+00  7.59869910E+00 -1.51973982E+01  7.59869910E+00  7.59869910E+00
 -1.51973982E+01  7.59869910E+00  7.59869910E+00 -1.51973982E+01  7.59869910E+00
  7.59869910E+00 -1.51973982E+01  7.59869910E+00  7.59869910E+00 -1.51973982E+01
  7.59869910E+00  7.59869910E+00 -1.51973982E+01  7.59869910E+00  7.59869910E+00
 -1.51973982E+01  7.59869910E+00  7.59869910E+00 -1.51973982E+01  7.59869910E+00
  7.59869910E+00 -1.51973982E+01  7.59869910E+00  7.59869910E+00 -1.51973982E+01
  7.59869910E+00  7.59869910E+00 -1.51973982E+01  7.59869910E+00  7.59869910E+00
 -1.51973982E+01  7.59869910E+00  7.59869910E+00 -1.51973982E+01  7.59869910E+00
  7.59869910E+00 -1.51973982E+01  7.59869910E+00  7.59869910E+00 -1.51973982E+01
  7.59869910E+00  7.59869910E+00 -1.51973982E+01  7.59869910E+00  7.59869910E+00
 -1.51973982E+01  7.59869910E+00  7.59869910E+00 -1.51973982E+01  7.59869910E+00
  7.59869910E+00 -1.51973982E+01  7.59869910E+00  7.59869910E+00 -1.51973982E+01
  7.59869910E+00  7.59869910E+00 -1.51973982E+01  7.59869910E+00  7.59869910E+00
 -1.51973982E+01  7.59869910E+00  7.59869910E+00 -1.51973982E+01  7.59869910E+00
  7.59869910E+00 -1.51973982E+01  7.59869910E+00  7.59869910E+00 -1.51973982E+01
  7.59869910E+00  7.59869910E+00 -1.51973982E+01  7.59869910E+00  7.59869910E+00
 -1.51973982E+01  7.59869910E+00  7.59869910E+00 -1.51973982E+01  7.59869910E+00
  7.59869910E+00 -1.51973982E+01  7.59869910E+00  7.59869910E+00 -1.51973982E+01
  7.59869910E+00  7.59869910E+00 -1.51973982E+01  7.59869910E+00  7.59869910E+00
 -1.51973982E+01  7.59869910E+00  7.59869910E+00 -1.51973982E+01  7.59869910E+00
  7.59869910E+00 -1.51973982E+01  7.59869910E+00  7.59869910E+00 -1.51973982E+01
  7.59869910E+00  7.59869910E+00 -1.51973982E+01  7.59869910E+00  7.59869910E+00
 -1.51973982E+01  7.59869910E+00  7.59869910E+00 -1.51973982E+01  7.59869910E+00
  7.59869910E+00 -1.51973982E+01  7.59869910E+00  7.59869910E+00 -1.51973982E+01
  7.59869910E+00  7.59869910E+00 -1.51973982E+01  7.59869910E+00  7.59869910E+00
 -1.51973982E+01  7.59869910E+00  7.59869910E+00 -1.51973982E+01  7.59869910E+00
  7.59869910E+00 -1.51973982E+01  7.59869910E+00  7.59869910E+00 -1.51973982E+01
  7.59869910E+00  7.59869910E+00 -1.51973982E+01  7.59869910E+00  7.59869910E+00
 -1.51973982E+01  7.59869910E+00  7.59869910E+00 -1.51973982E+01  7.59869910E+00
  7.59869910E+00 -1.51973982E+01  7.59869910E+00  7.59869910E+00 -1.51973982E+01
  7.59869910E+00  7.59869910E+00 -1.51973982E+01  7.59869910E+00  7.59869910E+00
 -1.51973982E+01  7.59869910E+00  7.59869910E+00 -1.51973982E+01  7.59869910E+00
  7.59869910E+00 -1.51973982E+01  7.59869910E+00  7.59869910E+00 -1.51973982E+01
  7.59869910E+00  7.59869910E+00 -1.51973982E+01  7.59869910E+00  7.59869910E+00
 -1.51973982E+01  7.59869910E+00  7.59869910E+00 -1.51973982E+01  7.59869910E+00
  7.59869910E+00 -1.51973982E+01  7.59869910E+00  7.59869910E+00 -1.51973982E+01
  7.59869910E+00  7.59869910E+00 -1.51973982E+01  7.59869910E+00  7.59869910E+00
 -1.51973982E+01  7.59869910E+00  7.59869910E+00 -1.51973982E+01  7.59869910E+00
  7.59869910E+00 -1.51973982E+01  7.59869910E+00  7.59869910E+00 -1.51973982E+01
  7.59869910E+00  7.59869910E+00 -1.51973982E+01  7.59869910E+00  7.59869910E+00
%FLAG ATOMIC_NUMBER
%FORMAT(10I8)
       7       1       1       1       6       1       1       6       8       7
       1       6       1       6       1       6       1       1       1       6
       1       1       6       1       1       1       6       8       7       1
       6       1       6       1       6       1       1       1       6       1
       1       1       6       8       7       1       6       1       6       1
       1       6       1       1       6       8       8       1       6       8
       1       1       1       7       1       6       1       6       1       1
       6       1       1       6       8       7       1       1       6       8
       7       1       6       1       6       1       1      16       6       8
       7       1       6       1       6       1       1      16       6       8
       7       1       6       1       6       1       6       1       1       1
       8       1       6       8       7       1       6       1       6       1
       1       8       1       6       8       7       1       6       1       6
       1       6       1       1       1       6       1       1       6       1
       1       1       6       8       7       1       6       1       6       1
       1      16       6       8       7       1       6       1       6       1
       1       8       1       6       8       7       1       6       1       6
       1       1       6       1       6       1       1       1       6       1
       1       1       6       8       7       1       6       1       6       1
       1       6       6       1       6       1       6       8       1       6
       1       6       1       6       8       7       1       6       1       6
       1       1       6       1       1       6       8       7       1       1
       6       8       7       1       6       1       6       1       1       6
       1       6       1       1       1       6       1       1       1       6
       8       7       1       6       1       6       1       1       6       1
       1       6       8       8       1       6       8       1       1       1
       7       1       6       1       6       1       1       6       8       7
       1       1       6       8       7       1       6       1       6       1
       1       6       6       1       6       1       6       8       1       6
       1       6       1       6       8       7       1       6       1       6
       1       1      16       6       8       7       1       6       1       6
       1       1       6       8       7       1       1       6       8       8
       7       1       1       1       6       1       6       1       1       6
       6       1       6       1       6       1       6       1       6       1
       6       8       7       1       6       1       6       1       6       1
       1       1       6       1       1       1       6       8       7       1
       6       1       6       1       1       6       8       7       1       1
       6       8       7       1       6       1       6       1       1       6
       1       1       6       8       7       1       1       6       8       7
       1       6       1       6       1       1       6       7       1       6
       1       7       1       6       1       6       8       7       1       6
       1       6       1       1       6       1       6       1       1       1
       6       1       1       1       6       8       7       1       6       1
       6       1       1      16       6       8       7       1       6       1
       1       6       8       7       1       6       1       6       1       1
       8       1       6       8       7       1       6       1       6       1
       1       6       7       1       6       1       7       1       6       1
       6       8       7       1       6       1       6       1       1       6
       1       6       1       1       1       6       1       1       1       6
       8       7       1       6       1       6       1       6       1       1
       1       6       1       1       1       6       8       7       1       6
       1       6       1       1       6       1       1       6       8       8
       1       6       8       1       1       1       7       1       6       1
       6       1       1       1       6       8       7       1       6       1
       6       1       1       6       1       6       1       1       1       6
       1       1       1       6       8       7       1       6       1       6
       1       1       6       6       1       6       1       6       8       1
       6       1       6       1       6       8       7       1       6       1
       6       1       1       6       1       6       1       1       1       6
       1       1       1       6       8       7       1       6       1       6
       1       6       1       1       1       6       1       1       1       6
       8       7       1       6       1       6       1       1      16       6
       8       7       1       6       1       1       6       8       7       1
       6       1       6       1       1       6       1       1       6       8
       8       1       6       8       1       1       1       7       1       6
       1       6       1       1       6       1       1       6       1       1
       7       1       6       7       1       1       7       1       1       6
       8       7       1       6       1       1       6       8       7       1
       6       1       6       1       1       6       6       1       6       1
       6       1       6       1       6       1       6       8       7       1
       6       1       6       1       1       6       6       1       6       1
       6       1       6       1       6       1       6       8       7       1
       6       1       6       1       1       6       6       1       6       1
       6       8       1       6       1       6       1       6       8       7
       1       6       1       6       1       6       1       1       1       8
       1       6       8       7       6       1       1       6       1       1
       6       1       1       6       1       6       8       7       1       6
       1       6       1       1       6       1       1       6       1       1
       6       1       1       7       1       1       1       6       8       7
       1       6       1       6       1       1       1       6       8       8
       8       1       1       8       1       1       8       1       1       8
       1       1       8       1       1       8       1       1       8       1
       1       8       1       1       8       1       1       8       1       1
       8       1       1       8       1       1       8       1       1       8
       1       1       8       1       1       8       1       1       8       1
       1       8       1       1       8       1       1       8       1       1
       8       1       1       8       1       1       8       1       1       8
       1       1       8       1       1       8       1       1       8       1
       1       8       1       1       8       1       1       8       1       1
       8       1       1       8       1       1       8       1       1       8
       1       1       8       1       1       8       1       1       8       1
       1       8       1       1       8       1       1       8       1       1
       8       1       1       8       1       1       8       1       1       8
       1       1       8       1       1       8       1       1       8       1
       1       8       1       1       8       1       1       8       1       1
       8       1       1       8       1       1       8       1       1       8
       1       1       8       1       1       8       1       1       8       1
       1       8       1       1       8       1       1       8       1       1
       8       1       1       8       1       1       8       1       1       8
       1       1       8       1       1       8       1       1       8       1
       1       8       1       1       8       1       1       8       1       1
       8       1       1       8       1       1       8       1       1       8
       1       1       8       1       1       8       1       1       8       1
       1       8       1       1       8       1       1       8       1       1
       8       1       1       8       1       1       8       1       1       8
       1       1       8       1       1       8       1       1       8       1
       1       8       1       1       8       1       1       8       1       1
       8       1       1       8       1       1       8       1       1       8
       1       1       8       1       1       8       1       1       8       1
       1       8       1       1       8       1       1       8       1       1
       8       1       1       8       1       1       8       1       1       8
       1       1       8       1       1       8       1       1       8       1
       1       8       1       1       8       1       1       8       1       1
       8       1       1       8       1       1       8       1       1       8
       1       1       8       1       1       8       1       1       8       1
       1       8       1       1       8       1       1       8       1       1
       8       1       1       8       1       1       8       1       1       8
       1       1       8       1       1       8       1       1       8       1
       1       8       1       1       8       1       1       8       1       1
       8       1       1       8       1       1       8       1       1       8
       1       1       8       1       1       8       1       1       8       1
       1       8       1       1       8       1       1       8       1       1
       8       1       1       8       1       1       8       1       1       8
       1       1       8       1       1       8       1       1       8       1
       1       8       1       1       8       1       1       8       1       1
       8       1       1       8       1       1       8       1       1       8
       1       1       8       1       1       8       1       1       8       1
       1       8       1       1       8       1       1       8       1       1
       8       1       1       8       1       1       8       1       1       8
       1       1       8       1       1       8       1       1       8       1
       1       8       1       1       8       1       1       8       1       1
       8       1       1       8       1       1       8       1       1       8
       1       1       8       1       1       8       1       1       8       1
       1       8       1       1       8       1       1       8       1       1
       8       1       1       8       1       1       8       1       1       8
       1       1       8       1       1       8       1       1       8       1
       1       8       1       1       8       1       1       8       1       1
       8       1       1       8       1       1       8       1       1       8
       1       1       8       1       1       8       1       1       8       1
       1       8       1       1       8       1       1       8       1       1
       8       1       1       8       1       1       8       1       1       8
       1       1       8       1       1       8       1       1       8       1
       1       8       1       1       8       1       1       8       1       1
       8       1       1       8       1       1       8       1       1       8
       1       1       8       1       1       8       1       1       8       1
       1       8       1       1       8       1       1       8       1       1
       8       1       1       8       1       1       8       1       1       8
       1       1       8       1       1       8       1       1       8       1
       1       8       1       1       8       1       1       8       1       1
       8       1       1       8       1       1       8       1       1       8
       1       1       8       1       1       8       1       1       8       1
       1       8       1       1       8       1       1       8       1       1
       8       1       1       8       1       1       8       1       1       8
       1       1       8       1       1       8       1       1       8       1
       1       8       1       1       8       1       1       8       1       1
       8       1       1       8       1       1       8       1       1       8
       1       1       8       1       1       8       1       1       8       1
       1       8       1       1       8       1       1       8       1       1
       8       1       1       8       1       1       8       1       1       8
       1       1       8       1       1       8       1       1       8       1
       1       8       1       1       8       1       1       8       1       1
       8       1       1       8       1       1       8       1       1       8
       1       1       8       1       1       8       1       1       8       1
       1       8       1       1       8       1       1       8       1       1
       8       1       1       8       1       1       8       1       1       8
       1       1       8       1       1       8       1       1       8       1
       1       8       1       1       8       1       1       8       1       1
       8       1       1       8       1       1       8       1       1       8
       1       1       8       1       1       8       1       1       8       1
       1       8       1       1       8       1       1       8       1       1
       8       1       1       8       1       1       8       1       1       8
       1       1       8       1       1       8       1       1       8       1
       1       8       1       1       8       1       1       8       1       1
       8       1       1       8       1       1       8       1       1       8
       1       1       8       1       1       8       1       1       8       1
       1       8       1       1       8       1       1       8       1       1
       8       1       1       8       1       1       8       1       1       8
       1       1       8       1       1       8       1       1       8       1
       1       8       1       1       8       1       1       8       1       1
       8       1       1       8       1       1       8       1       1       8
       1       1       8       1       1       8       1       1       8       1
       1       8       1       1       8       1       1       8       1       1
       8       1       1       8       1       1       8       1       1       8
       1       1       8       1       1       8       1       1       8       1
       1       8       1       1       8       1       1       8       1       1
       8       1       1       8       1       1       8       1       1       8
       1       1       8       1       1       8       1       1       8       1
       1       8       1       1       8       1       1       8       1       1
       8       1       1       8       1       1       8       1       1       8
       1       1       8       1       1       8       1       1       8       1
       1       8       1       1       8       1       1       8       1       1
       8       1       1       8       1       1       8       1       1       8
       1       1       8       1       1       8       1       1       8       1
       1       8       1       1       8       1       1       8       1       1
       8       1       1       8       1       1       8       1       1       8
       1       1       8       1       1       8       1       1       8       1
       1       8       1       1       8       1       1       8       1       1
       8       1       1       8       1       1       8       1       1       8
       1       1       8       1       1       8       1       1       8       1
       1       8       1       1       8       1       1       8       1       1
       8       1       1       8       1       1       8       1       1       8
       1       1       8       1       1       8       1       1       8       1
       1       8       1       1       8       1       1       8       1       1
       8       1       1       8       1       1       8       1       1       8
       1       1       8       1       1       8       1       1       8       1
       1       8       1       1       8       1       1       8       1       1
       8       1       1       8       1       1       8       1       1       8
       1       1       8       1       1       8       1       1       8       1
       1       8       1       1       8       1       1       8       1       1
       8       1       1       8       1       1       8       1       1       8
       1       1       8       1       1       8       1       1       8       1
       1       8       1       1       8       1       1       8       1       1
       8       1       1       8       1       1       8       1       1       8
       1       1       8       1       1       8       1       1       8       1
       1       8       1       1       8       1       1       8       1       1
       8       1       1       8       1       1       8       1       1       8
       1       1       8       1       1       8       1       1       8       1
       1       8       1       1       8       1       1       8       1       1
       8       1       1       8       1       1       8       1       1       8
       1       1       8       1       1       8       1       1       8       1
       1       8       1       1       8       1       1       8       1       1
       8       1       1       8       1       1       8       1       1       8
       1       1       8       1       1       8       1       1       8       1
       1       8       1       1       8       1       1       8       1       1
       8       1       1       8       1       1       8       1       1       8
       1       1       8       1       1       8       1       1       8       1
       1       8       1       1       8       1       1       8       1       1
       8       1       1       8       1       1       8       1       1       8
       1       1       8       1       1       8       1       1       8       1
       1       8       1       1       8       1       1       8       1       1
       8       1       1       8       1       1       8       1       1       8
       1       1       8       1       1       8       1       1       8       1
       1       8       1       1       8       1       1       8       1       1
       8       1       1       8       1       1       8       1       1       8
       1       1       8       1       1       8       1       1       8       1
       1       8       1       1       8       1       1       8       1       1
       8       1       1       8       1       1       8       1       1       8
       1       1       8       1       1       8       1       1       8       1
       1       8       1       1       8       1       1       8       1       1
       8       1       1       8       1       1       8       1       1       8
       1       1       8       1       1       8       1       1       8       1
       1       8       1       1       8       1       1       8       1       1
       8       1       1       8       1       1       8       1       1       8
       1       1       8       1       1       8       1       1       8       1
       1       8       1       1       8       1       1       8       1       1
       8       1       1       8       1       1       8       1       1       8
       1       1       8       1       1       8       1       1       8       1
       1       8       1       1       8       1       1       8       1       1
       8       1       1       8       1       1       8       1       1       8
       1       1       8       1       1       8       1       1       8       1
       1       8       1       1       8       1       1       8       1       1
       8       1       1       8       1       1       8       1       1       8
       1       1       8       1       1       8       1       1       8       1
       1       8       1       1       8       1       1       8       1       1
       8       1       1       8       1       1       8       1       1       8
       1       1       8       1       1       8       1       1       8       1
       1       8       1       1       8       1       1       8       1       1
       8       1       1       8       1       1       8       1       1       8
       1       1       8       1       1       8       1       1       8       1
       1       8       1       1       8       1       1       8       1       1
       8       1       1       8       1       1       8       1       1       8
       1       1       8       1       1       8       1       1       8       1
       1       8       1       1       8       1       1       8       1       1
       8       1       1       8       1       1       8       1       1       8
       1       1       8       1       1       8       1       1       8       1
       1       8       1       1       8       1       1       8       1       1
       8       1       1       8       1       1       8       1       1       8
       1       1       8       1       1       8       1       1       8       1
       1       8       1       1       8       1       1       8       1       1
       8       1       1       8       1       1       8       1       1       8
       1       1       8       1       1       8       1       1       8       1
       1       8       1       1       8       1       1       8       1       1
       8       1       1       8       1       1       8       1       1       8
       1       1       8       1       1       8       1       1       8       1
       1       8       1       1       8       1       1       8       1       1
       8       1       1       8       1       1       8       1       1       8
       1       1       8       1       1       8       1       1       8       1
       1       8       1       1       8       1       1       8       1       1
       8       1       1       8       1       1       8       1       1       8
       1       1       8       1       1       8       1       1       8       1
       1       8       1       1       8       1       1       8       1       1
       8       1       1       8       1       1       8       1       1       8
       1       1       8       1       1       8       1       1       8       1
       1       8       1       1       8       1       1       8       1       1
       8       1       1       8       1       1       8       1       1       8
       1       1       8       1       1       8       1       1       8       1
       1       8       1       1       8       1       1       8       1       1
       8       1       1       8       1       1       8       1       1       8
       1       1       8       1       1       8       1       1       8       1
       1       8       1       1       8       1       1       8       1       1
       8       1       1       8       1       1       8       1       1       8
       1       1       8       1       1       8       1       1       8       1
       1       8       1       1       8       1       1       8       1       1
       8       1       1       8       1       1       8       1       1       8
       1       1       8       1       1       8       1       1       8       1
       1       8       1       1       8       1       1       8       1       1
       8       1       1       8       1       1       8       1       1       8
       1       1       8       1       1       8       1       1       8       1
       1       8       1       1       8       1       1       8       1       1
       8       1       1       8       1       1       8       1       1       8
       1       1       8       1       1       8       1       1       8       1
       1       8       1       1       8       1       1       8       1       1
       8       1       1       8       1       1       8       1       1       8
       1       1       8       1       1       8       1       1       8       1
       1       8       1       1       8       1       1       8       1       1
       8       1       1       8       1       1       8       1       1       8
       1       1       8       1       1       8       1       1       8       1
       1       8       1       1       8       1       1       8       1       1
       8       1       1       8       1       1       8       1       1       8
       1       1       8       1       1       8       1       1       8       1
       1       8       1       1       8       1       1       8       1       1
       8       1       1       8       1       1       8       1       1       8
       1       1       8       1       1       8       1       1       8       1
       1       8       1       1       8       1       1       8       1       1
       8       1       1       8       1       1       8       1       1       8
       1       1       8       1       1       8       1       1       8       1
       1       8       1       1       8       1       1       8       1       1
       8       1       1       8       1       1       8       1       1       8
       1       1       8       1       1       8       1       1       8       1
       1       8       1       1       8       1       1       8       1       1
       8       1       1       8       1       1       8       1       1       8
       1       1       8       1       1       8       1       1       8       1
       1       8       1       1       8       1       1       8       1       1
       8       1       1       8       1       1       8       1       1       8
       1       1       8       1       1       8       1       1       8       1
       1       8       1       1       8       1       1       8       1       1
       8       1       1       8       1       1       8       1       1       8
       1       1       8       1       1       8       1       1       8       1
       1       8       1       1       8       1       1       8       1       1
       8       1       1       8       1       1       8       1       1       8
       1       1       8       1       1       8       1       1       8       1
       1       8       1       1       8       1       1       8       1       1
       8       1       1       8       1       1       8       1       1       8
       1       1       8       1       1       8       1       1       8       1
       1       8       1       1       8       1       1       8       1       1
       8       1       1       8       1       1       8       1       1       8
       1       1       8       1       1       8       1       1       8       1
       1       8       1       1       8       1       1       8       1       1
       8       1       1       8       1       1       8       1       1       8
       1       1       8       1       1       8       1       1       8       1
       1       8       1       1       8       1       1       8       1       1
       8       1       1       8       1       1       8       1       1       8
       1       1       8       1       1       8       1       1       8       1
       1       8       1       1       8       1       1       8       1       1
       8       1       1       8       1       1       8       1       1       8
       1       1       8       1       1       8       1       1       8       1
       1       8       1       1       8       1       1       8       1       1
       8       1       1       8       1       1       8       1       1       8
       1       1       8       1       1       8       1       1       8       1
       1       8       1       1       8       1       1       8       1       1
       8       1       1       8       1       1       8       1       1       8
       1       1       8       1       1       8       1       1       8       1
       1       8       1       1       8       1       1       8       1       1
       8       1       1       8       1       1       8       1       1       8
       1       1       8       1       1       8       1       1       8       1
       1       8       1       1       8       1       1       8       1       1
       8       1       1       8       1       1       8       1       1       8
       1       1       8       1       1       8       1       1       8       1
       1       8       1       1       8       1       1       8       1       1
       8       1       1       8       1       1       8       1       1       8
       1       1       8       1       1       8       1       1       8       1
       1       8       1       1       8       1       1       8       1       1
       8       1       1       8       1       1       8       1       1       8
       1       1       8       1       1       8       1       1       8       1
       1       8       1       1       8       1       1       8       1       1
       8       1       1       8       1       1       8       1       1       8
       1       1       8       1       1       8       1       1       8       1
       1       8       1       1       8       1       1       8       1       1
       8       1       1       8       1       1       8       1       1       8
       1       1       8       1       1       8       1       1       8       1
       1       8       1       1       8       1       1       8       1       1
       8       1       1       8       1       1       8       1       1       8
       1       1       8       1       1       8       1       1       8       1
       1       8       1       1       8       1       1       8       1       1
       8       1       1       8       1       1       8       1       1       8
       1       1       8       1       1       8       1       1       8       1
       1       8       1       1       8       1       1       8       1       1
       8       1       1       8       1       1       8       1       1       8
       1       1       8       1       1       8       1       1       8       1
       1       8       1       1       8       1       1       8       1       1
       8       1       1       8       1       1       8       1       1       8
       1       1       8       1       1       8       1       1       8       1
       1       8       1       1       8       1       1       8       1       1
       8       1       1       8       1       1       8       1       1       8
       1       1       8       1       1       8       1       1       8       1
       1       8       1       1       8       1       1       8       1       1
       8       1       1       8       1       1       8       1       1       8
       1       1       8       1       1       8       1       1       8       1
       1       8       1       1       8       1       1       8       1       1
       8       1       1       8       1       1       8       1       1       8
       1       1       8       1       1       8       1       1       8       1
       1       8       1       1       8       1       1       8       1       1
       8       1       1       8       1       1       8       1       1       8
       1       1       8       1       1       8       1       1       8       1
       1       8       1       1       8       1       1       8       1       1
       8       1       1       8       1       1       8       1       1       8
       1       1       8       1       1       8       1       1       8       1
       1       8       1       1       8       1       1       8       1       1
       8       1       1       8       1       1       8       1       1       8
       1       1       8       1       1       8       1       1       8       1
       1       8       1       1       8       1       1       8       1       1
       8       1       1       8       1       1       8       1       1       8
       1       1       8       1       1       8       1       1       8       1
       1       8       1       1       8       1       1       8       1       1
       8       1       1       8       1       1       8       1       1       8
       1       1       8       1       1       8       1       1       8       1
       1       8       1       1       8       1       1       8       1       1
       8       1       1       8       1       1       8       1       1       8
       1       1       8       1       1       8       1       1       8       1
       1       8       1       1       8       1       1       8       1       1
       8       1       1       8       1       1       8       1       1       8
       1       1       8       1       1       8       1       1       8       1
       1       8       1       1       8       1       1       8       1       1
       8       1       1       8       1       1       8       1       1       8
       1       1       8       1       1       8       1       1       8       1
       1       8       1       1       8       1       1       8       1       1
       8       1       1       8       1       1       8       1       1       8
       1       1       8       1       1       8       1       1       8       1
       1       8       1       1       8       1       1       8       1       1
       8       1       1       8       1       1       8       1       1       8
       1       1       8       1       1       8       1       1       8       1
       1       8       1       1       8       1       1       8       1       1
       8       1       1       8       1       1       8       1       1       8
       1       1       8       1       1       8       1       1       8       1
       1       8       1       1       8       1       1       8       1       1
       8       1       1       8       1       1       8       1       1       8
       1       1       8       1       1       8       1       1       8       1
       1       8       1       1       8       1       1       8       1       1
       8       1       1       8       1       1       8       1       1       8
       1       1       8       1       1       8       1       1       8       1
       1       8       1       1       8       1       1       8       1       1
       8       1       1       8       1       1       8       1       1       8
       1       1       8       1       1       8       1       1       8       1
       1       8       1       1       8       1       1       8       1       1
       8       1       1       8       1       1       8       1       1       8
       1       1       8       1       1       8       1       1       8       1
       1       8       1       1       8       1       1       8       1       1
       8       1       1       8       1       1       8       1       1       8
       1       1       8       1       1       8       1       1       8       1
       1       8       1       1       8       1       1       8       1       1
       8       1       1       8       1       1       8       1       1       8
       1       1       8       1       1       8       1       1       8       1
       1       8       1       1       8       1       1       8       1       1
       8       1       1       8       1       1       8       1       1       8
       1       1       8       1       1       8       1       1       8       1
       1       8       1       1       8       1       1       8       1       1
       8       1       1       8       1       1       8       1       1       8
       1       1       8       1       1       8       1       1       8       1
       1       8       1       1       8       1       1       8       1       1
       8       1       1       8       1       1       8       1       1       8
       1       1       8       1       1       8       1       1       8       1
       1       8       1       1       8       1       1       8       1       1
       8       1       1       8       1       1       8       1       1       8
       1       1       8       1       1       8       1       1       8       1
       1       8       1       1       8       1       1       8       1       1
       8       1       1       8       1       1       8       1       1       8
       1       1       8       1       1       8       1       1       8       1
       1       8       1       1       8       1       1       8       1       1
       8       1       1       8       1       1       8       1       1       8
       1       1       8       1       1       8       1       1       8       1
       1       8       1       1       8       1       1       8       1       1
       8       1       1       8       1       1       8       1       1       8
       1       1       8       1       1       8       1       1       8       1
       1       8       1       1       8       1       1       8       1       1
       8       1       1       8       1       1       8       1       1       8
       1       1       8       1       1       8       1       1       8       1
       1       8       1       1       8       1       1       8       1       1
       8       1       1       8       1       1       8       1       1       8
       1       1       8       1       1       8       1       1       8       1
       1       8       1       1       8       1       1       8       1       1
       8       1       1       8       1       1       8       1       1       8
       1       1       8       1       1       8       1       1       8       1
       1       8       1       1       8       1       1       8       1       1
       8       1       1       8       1       1       8       1       1       8
       1       1       8       1       1       8       1       1       8       1
       1       8       1       1       8       1       1       8       1       1
       8       1       1       8       1       1       8       1       1       8
       1       1       8       1       1       8       1       1       8       1
       1       8       1       1       8       1       1       8       1       1
       8       1       1       8       1       1       8       1       1       8
       1       1       8       1       1       8       1       1       8       1
       1       8       1       1       8       1       1       8       1       1
       8       1       1       8       1       1       8       1       1       8
       1       1       8       1       1       8       1       1       8       1
       1       8       1       1       8       1       1       8       1       1
       8       1       1       8       1       1       8       1       1       8
       1       1       8       1       1       8       1       1       8       1
       1       8       1       1       8       1       1       8       1       1
       8       1       1       8       1       1       8       1       1       8
       1       1       8       1       1       8       1       1       8       1
       1       8       1       1       8       1       1       8       1       1
       8       1       1       8       1       1       8       1       1       8
       1       1       8       1       1       8       1       1       8       1
       1       8       1       1       8       1       1       8       1       1
       8       1       1       8       1       1       8       1       1       8
       1       1       8       1       1       8       1       1       8       1
       1       8       1       1       8       1       1       8       1       1
       8       1       1       8       1       1       8       1       1       8
       1       1       8       1       1       8       1       1       8       1
       1       8       1       1       8       1       1       8       1       1
       8       1       1       8       1       1       8       1       1       8
       1       1       8       1       1       8       1       1       8       1
       1       8       1       1       8       1       1       8       1       1
       8       1       1       8       1       1       8       1       1       8
       1       1       8       1       1       8       1       1       8       1
       1       8       1       1       8       1       1       8       1       1
       8       1       1       8       1       1       8       1       1       8
       1       1       8       1       1       8       1       1       8       1
       1       8       1       1       8       1       1       8       1       1
       8       1       1       8       1       1       8       1       1       8
       1       1       8       1       1       8       1       1       8       1
       1       8       1       1       8       1       1       8       1       1
       8       1       1       8       1       1       8       1       1       8
       1       1       8       1       1       8       1       1       8       1
       1       8       1       1       8       1       1       8       1       1
       8       1       1       8       1       1       8       1       1       8
       1       1       8       1       1       8       1       1       8       1
       1       8       1       1       8       1       1       8       1       1
       8       1       1       8       1       1       8       1       1       8
       1       1       8       1       1       8       1       1       8       1
       1       8       1       1       8       1       1       8       1       1
       8       1       1       8       1       1       8       1       1       8
       1       1       8       1       1       8       1       1       8       1
       1       8       1       1       8       1       1       8       1       1
       8       1       1       8       1       1       8       1       1       8
       1       1       8       1       1       8       1       1       8       1
       1       8       1       1       8       1       1       8       1       1
       8       1       1       8       1       1       8       1       1       8
       1       1       8       1       1       8       1       1       8       1
       1       8       1       1       8       1       1       8       1       1
       8       1       1       8       1       1       8       1       1       8
       1       1       8       1       1       8       1       1       8       1
       1       8       1       1       8       1       1       8       1       1
       8       1       1       8       1       1       8       1       1       8
       1       1       8       1       1       8       1       1       8       1
       1       8       1       1       8       1       1       8       1       1
       8       1       1       8       1       1       8       1       1       8
       1       1       8       1       1       8       1       1       8       1
       1       8       1       1       8       1       1       8       1       1
       8       1       1       8       1       1       8       1       1       8
       1       1       8       1       1       8       1       1       8       1
       1       8       1       1       8       1       1       8       1       1
       8       1       1       8       1       1       8       1       1       8
       1       1       8       1       1       8       1       1       8       1
       1       8       1       1       8       1       1       8       1       1
       8       1       1       8       1       1       8       1       1       8
       1       1       8       1       1       8       1       1       8       1
       1       8       1       1       8       1       1       8       1       1
       8       1       1       8       1       1       8       1       1       8
       1       1       8       1       1       8       1       1       8       1
       1       8       1       1       8       1       1       8       1       1
       8       1       1       8       1       1       8       1       1       8
       1       1       8       1       1       8       1       1       8       1
       1       8       1       1       8       1       1       8       1       1
       8       1       1       8       1       1       8       1       1       8
       1       1       8       1       1       8       1       1       8       1
       1       8       1       1       8       1       1       8       1       1
       8       1       1       8       1       1       8       1       1       8
       1       1       8       1       1       8       1       1       8       1
       1       8       1       1       8       1       1       8       1       1
       8       1       1       8       1       1       8       1       1       8
       1       1       8       1       1       8       1       1       8       1
       1       8       1       1       8       1       1       8       1       1
       8       1       1       8       1       1       8       1       1       8
       1       1       8       1       1       8       1       1       8       1
       1       8       1       1       8       1       1       8       1       1
       8       1       1       8       1       1       8       1       1       8
       1       1       8       1       1       8       1       1       8       1
       1       8       1       1       8       1       1       8       1       1
       8       1       1       8       1       1       8       1       1       8
       1       1       8       1       1       8       1       1       8       1
       1       8       1       1       8       1       1       8       1       1
       8       1       1       8       1       1       8       1       1       8
       1       1       8       1       1       8       1       1       8       1
       1       8       1       1       8       1       1       8       1       1
       8       1       1       8       1       1       8       1       1       8
       1       1       8       1       1       8       1       1       8       1
       1       8       1       1       8       1       1       8       1       1
       8       1       1       8       1       1       8       1       1       8
       1       1       8       1       1       8       1       1       8       1
       1       8       1       1       8       1       1       8       1       1
       8       1       1       8       1       1       8       1       1       8
       1       1       8       1       1       8       1       1       8       1
       1       8       1       1       8       1       1       8       1       1
       8       1       1       8       1       1       8       1       1       8
       1       1       8       1       1       8       1       1       8       1
       1       8       1       1       8       1       1       8       1       1
       8       1       1       8       1       1       8       1       1       8
       1       1       8       1       1       8       1       1       8       1
       1       8       1       1       8       1       1       8       1       1
       8       1       1       8       1       1       8       1       1       8
       1       1       8       1       1       8       1       1       8       1
       1       8       1       1       8       1       1       8       1       1
       8       1       1       8       1       1       8       1       1       8
       1       1       8       1       1       8       1       1       8       1
       1       8       1       1       8       1       1       8       1       1
       8       1       1       8       1       1       8       1       1       8
       1       1       8       1       1       8       1       1       8       1
       1       8       1       1       8       1       1       8       1       1
       8       1       1       8       1       1       8       1       1       8
       1       1       8       1       1       8       1       1       8       1
       1       8       1       1       8       1       1       8       1       1
       8       1       1       8       1       1       8       1       1       8
       1       1       8       1       1       8       1       1       8       1
       1       8       1       1       8       1       1       8       1       1
       8       1       1       8       1       1       8       1       1       8
       1       1       8       1       1       8       1       1       8       1
       1       8       1       1       8       1       1       8       1       1
       8       1       1       8       1       1       8       1       1       8
       1       1       8       1       1       8       1       1       8       1
       1       8       1       1       8       1       1       8       1       1
       8       1       1       8       1       1       8       1       1       8
       1       1       8       1       1       8       1       1       8       1
       1       8       1       1       8       1       1       8       1       1
       8       1       1       8       1       1       8       1       1       8
       1       1       8       1       1       8       1       1       8       1
       1       8       1       1       8       1       1       8       1       1
       8       1       1       8       1       1       8       1       1       8
       1       1       8       1       1       8       1       1       8       1
       1       8       1       1       8       1       1       8       1       1
       8       1       1       8       1       1       8       1       1       8
       1       1       8       1       1       8       1       1       8       1
       1       8       1       1       8       1       1       8       1       1
       8       1       1       8       1       1       8       1       1       8
       1       1       8       1       1       8       1       1       8       1
       1       8       1       1       8       1       1       8       1       1
       8       1       1       8       1       1       8       1       1       8
       1       1       8       1       1       8       1       1       8       1
       1       8       1       1       8       1       1       8       1       1
       8       1       1       8       1       1       8       1       1       8
       1       1       8       1       1       8       1       1       8       1
       1       8       1       1       8       1       1       8       1       1
       8       1       1       8       1       1       8       1       1       8
       1       1       8       1       1       8       1       1       8       1
       1       8       1       1       8       1       1       8       1       1
       8       1       1       8       1       1       8       1       1       8
       1       1       8       1       1       8       1       1       8       1
       1       8       1       1       8       1       1       8       1       1
       8       1       1       8       1       1       8       1       1       8
       1       1       8       1       1       8       1       1       8       1
       1       8       1       1       8       1       1       8       1       1
       8       1       1       8       1       1       8       1       1       8
       1       1       8       1       1       8       1       1       8       1
       1       8       1       1       8       1       1       8       1       1
       8       1       1       8       1       1       8       1       1       8
       1       1       8       1       1       8       1       1       8       1
       1       8       1       1       8       1       1       8       1       1
       8       1       1       8       1       1       8       1       1       8
       1       1       8       1       1       8       1       1       8       1
       1       8       1       1       8       1       1       8       1       1
       8       1       1       8       1       1       8       1       1       8
       1       1       8       1       1       8       1       1       8       1
       1       8       1       1       8       1       1       8       1       1
       8       1       1       8       1       1       8       1       1       8
       1       1       8       1       1       8       1       1       8       1
       1       8       1       1       8       1       1       8       1       1
       8       1       1       8       1       1       8       1       1       8
       1       1       8       1       1       8       1       1       8       1
       1       8       1       1       8       1       1       8       1       1
       8       1       1       8       1       1       8       1       1       8
       1       1       8       1       1       8       1       1       8       1
       1       8       1       1       8       1       1       8       1       1
       8       1       1       8       1       1       8       1       1       8
       1       1       8       1       1       8       1       1       8       1
       1       8       1       1       8       1       1       8       1       1
       8       1       1       8       1       1       8       1       1       8
       1       1       8       1       1       8       1       1       8       1
       1       8       1       1       8       1       1       8       1       1
       8       1       1       8       1       1       8       1       1       8
       1       1       8       1       1       8       1       1       8       1
       1       8       1       1       8       1       1       8       1       1
       8       1       1       8       1       1       8       1       1       8
       1       1       8       1       1       8       1       1       8       1
       1       8       1       1       8       1       1       8       1       1
       8       1       1       8       1       1       8       1       1       8
       1       1       8       1       1       8       1       1       8       1
       1       8       1       1       8       1       1       8       1       1
       8       1       1       8       1       1       8       1       1       8
       1       1       8       1       1       8       1       1       8       1
       1       8       1       1       8       1       1       8       1       1
       8       1       1       8       1       1       8       1       1       8
       1       1       8       1       1       8       1       1       8       1
       1       8       1       1       8       1       1       8       1       1
       8       1       1       8       1       1       8       1       1       8
       1       1       8       1       1       8       1       1       8       1
       1       8       1       1       8       1       1       8       1       1
       8       1       1       8       1       1       8       1       1       8
       1       1       8       1       1       8       1       1       8       1
       1       8       1       1       8       1       1       8       1       1
       8       1       1       8       1       1       8       1       1       8
       1       1       8       1       1       8       1       1       8       1
       1       8       1       1       8       1       1       8       1       1
       8       1       1       8       1       1       8       1       1       8
       1       1       8       1       1       8       1       1       8       1
       1       8       1       1       8       1       1       8       1       1
       8       1       1       8       1       1       8       1       1       8
       1       1       8       1       1       8       1       1       8       1
       1       8       1       1       8       1       1       8       1       1
       8       1       1       8       1       1       8       1       1       8
       1       1       8       1       1       8       1       1       8       1
       1       8       1       1       8       1       1       8       1       1
       8       1       1       8       1       1       8       1       1       8
       1       1       8       1       1       8       1       1       8       1
       1       8       1       1       8       1       1       8       1       1
       8       1       1       8       1       1       8       1       1       8
       1       1       8       1       1       8       1       1       8       1
       1       8       1       1       8       1       1       8       1       1
       8       1       1       8       1       1       8       1       1       8
       1       1       8       1       1       8       1       1       8       1
       1       8       1       1       8       1       1       8       1       1
       8       1       1       8       1       1       8       1       1       8
       1       1       8       1       1       8       1       1       8       1
       1       8       1       1       8       1       1       8       1       1
       8       1       1       8       1       1       8       1       1       8
       1       1       8       1       1       8       1       1       8       1
       1       8       1       1       8       1       1       8       1       1
       8       1       1       8       1       1       8       1       1       8
       1       1       8       1       1       8       1       1       8       1
       1       8       1       1       8       1       1       8       1       1
       8       1       1       8       1       1       8       1       1       8
       1       1       8       1       1       8       1       1       8       1
       1       8       1       1       8       1       1       8       1       1
       8       1       1       8       1       1       8       1       1       8
       1       1       8       1       1       8       1       1       8       1
       1       8       1       1       8       1       1       8       1       1
       8       1       1       8       1       1       8       1       1       8
       1       1       8       1       1       8       1       1       8       1
       1       8       1       1       8       1       1       8       1       1
       8       1       1       8       1       1       8       1       1       8
       1       1       8       1       1       8       1       1       8       1
       1       8       1       1       8       1       1       8       1       1
       8       1       1       8       1       1       8       1       1       8
       1       1       8       1       1       8       1       1       8       1
       1       8       1       1       8       1       1       8       1       1
       8       1       1       8       1       1       8       1       1       8
       1       1       8       1       1       8       1       1       8       1
       1       8       1       1       8       1       1       8       1       1
       8       1       1       8       1       1       8       1       1       8
       1       1       8       1       1       8       1       1       8       1
       1       8       1       1       8       1       1       8       1       1
       8       1       1       8       1       1       8       1       1       8
       1       1       8       1       1       8       1       1       8       1
       1       8       1       1       8       1       1       8       1       1
       8       1       1       8       1       1       8       1       1       8
       1       1       8       1       1       8       1       1       8       1
       1       8       1       1       8       1       1       8       1       1
       8       1       1       8       1       1       8       1       1       8
       1       1       8       1       1       8       1       1       8       1
       1       8       1       1       8       1       1       8       1       1
       8       1       1       8       1       1       8       1       1       8
       1       1       8       1       1       8       1       1       8       1
       1       8       1       1       8       1       1       8       1       1
       8       1       1       8       1       1       8       1       1       8
       1       1       8       1       1       8       1       1       8       1
       1       8       1       1       8       1       1       8       1       1
       8       1       1       8       1       1       8       1       1       8
       1       1       8       1       1       8       1       1       8       1
       1       8       1       1       8       1       1       8       1       1
       8       1       1       8       1       1       8       1       1       8
       1       1       8       1       1       8       1       1       8       1
       1       8       1       1       8       1       1       8       1       1
       8       1       1       8       1       1       8       1       1       8
       1       1       8       1       1       8       1       1       8       1
       1       8       1       1       8       1       1       8       1       1
       8       1       1       8       1       1       8       1       1       8
       1       1       8       1       1       8       1       1       8       1
       1       8       1       1       8       1       1       8       1       1
       8       1       1       8       1       1       8       1       1       8
       1       1       8       1       1       8       1       1       8       1
       1       8       1       1       8       1       1       8       1       1
       8       1       1       8       1       1       8       1       1       8
       1       1       8       1       1       8       1       1       8       1
       1       8       1       1       8       1       1       8       1       1
       8       1       1       8       1       1       8       1       1       8
       1       1       8       1       1       8       1       1       8       1
       1       8       1       1       8       1       1       8       1       1
       8       1       1       8       1       1       8       1       1       8
       1       1       8       1       1       8       1       1       8       1
       1       8       1       1       8       1       1       8       1       1
       8       1       1       8       1       1       8       1       1       8
       1       1       8       1       1       8       1       1       8       1
       1       8       1       1       8       1       1       8       1       1
       8       1       1       8       1       1       8       1       1       8
       1       1       8       1       1       8       1       1       8       1
       1       8       1       1       8       1       1       8       1       1
       8       1       1       8       1       1       8       1       1       8
       1       1       8       1       1       8       1       1       8       1
       1       8       1       1       8       1       1       8       1       1
       8       1       1       8       1       1       8       1       1       8
       1       1       8       1       1       8       1       1       8       1
       1       8       1       1       8       1       1       8       1       1
       8       1       1       8       1       1       8       1       1       8
       1       1       8       1       1       8       1       1       8       1
       1       8       1       1       8       1       1       8       1       1
       8       1       1       8       1       1       8       1       1       8
       1       1       8       1       1       8       1       1       8       1
       1       8       1       1       8       1       1       8       1       1
       8       1       1       8       1       1       8       1       1       8
       1       1       8       1       1       8       1       1       8       1
       1       8       1       1       8       1       1       8       1       1
       8       1       1       8       1       1       8       1       1       8
       1       1       8       1       1       8       1       1       8       1
       1       8       1       1       8       1       1       8       1       1
       8       1       1       8       1       1       8       1       1       8
       1       1       8       1       1       8       1       1       8       1
       1       8       1       1       8       1       1       8       1       1
       8       1       1       8       1       1       8       1       1       8
       1       1       8       1       1       8       1       1       8       1
       1       8       1       1       8       1       1       8       1       1
       8       1       1       8       1       1       8       1       1       8
       1       1       8       1       1       8       1       1       8       1
       1       8       1       1       8       1       1       8       1       1
       8       1       1       8       1       1       8       1       1       8
       1       1       8       1       1       8       1       1       8       1
       1       8       1       1       8       1       1       8       1       1
       8       1       1       8       1       1       8       1       1       8
       1       1       8       1       1       8       1       1       8       1
       1       8       1       1       8       1       1       8       1       1
       8       1       1       8       1       1       8       1       1       8
       1       1       8       1       1       8       1       1       8       1
       1       8       1       1       8       1       1       8       1       1
       8       1       1       8       1       1       8       1       1       8
       1       1       8       1       1       8       1       1       8       1
       1       8       1       1       8       1       1       8       1       1
       8       1       1       8       1       1       8       1       1       8
       1       1       8       1       1       8       1       1       8       1
       1       8       1       1       8       1       1       8       1       1
       8       1       1       8       1       1       8       1       1       8
       1       1       8       1       1       8       1       1       8       1
       1       8       1       1       8       1       1       8       1       1
       8       1       1       8       1       1       8       1       1       8
       1       1       8       1       1       8       1       1       8       1
       1       8       1       1       8       1       1       8       1       1
       8       1       1       8       1       1       8       1       1       8
       1       1       8       1       1       8       1       1       8       1
       1       8       1       1       8       1       1       8       1       1
       8       1       1       8       1       1       8       1       1       8
       1       1       8       1       1       8       1       1       8       1
       1       8       1       1       8       1       1       8       1       1
       8       1       1       8       1       1       8       1       1       8
       1       1       8       1       1       8       1       1       8       1
       1       8       1       1       8       1       1       8       1       1
       8       1       1       8       1       1       8       1       1       8
       1       1       8       1       1       8       1       1       8       1
       1       8       1       1       8       1       1       8       1       1
       8       1       1       8       1       1       8       1       1       8
       1       1       8       1       1       8       1       1       8       1
       1       8       1       1       8       1       1       8       1       1
       8       1       1       8       1       1       8       1       1       8
       1       1       8       1       1       8       1       1       8       1
       1       8       1       1       8       1       1       8       1       1
       8       1       1       8       1       1       8       1       1       8
       1       1       8       1       1       8       1       1       8       1
       1       8       1       1       8       1       1       8       1       1
       8       1       1       8       1       1       8       1       1       8
       1       1       8       1       1       8       1       1       8       1
       1       8       1       1       8       1       1       8       1       1
       8       1       1       8       1       1       8       1       1       8
       1       1       8       1       1       8       1       1       8       1
       1       8       1       1       8       1       1       8       1       1
       8       1       1       8       1       1       8       1       1       8
       1       1       8       1       1       8       1       1       8       1
       1       8       1       1       8       1       1       8       1       1
       8       1       1       8       1       1       8       1       1       8
       1       1       8       1       1       8       1       1       8       1
       1       8       1       1       8       1       1       8       1       1
       8       1       1       8       1       1       8       1       1       8
       1       1       8       1       1       8       1       1       8       1
       1       8       1       1       8       1       1       8       1       1
       8       1       1       8       1       1       8       1       1       8
       1       1       8       1       1       8       1       1       8       1
       1       8       1       1       8       1       1       8       1       1
       8       1       1       8       1       1       8       1       1       8
       1       1       8       1       1       8       1       1       8       1
       1       8       1       1       8       1       1       8       1       1
       8       1       1       8       1       1       8       1       1       8
       1       1       8       1       1       8       1       1       8       1
       1       8       1       1       8       1       1       8       1       1
       8       1       1       8       1       1       8       1       1       8
       1       1       8       1       1       8       1       1       8       1
       1       8       1       1       8       1       1       8       1       1
       8       1       1       8       1       1       8       1       1       8
       1       1       8       1       1       8       1       1       8       1
       1       8       1       1       8       1       1       8       1       1
       8       1       1       8       1       1       8       1       1       8
       1       1       8       1       1       8       1       1       8       1
       1       8       1       1       8       1       1       8       1       1
       8       1       1       8       1       1       8       1       1       8
       1       1       8       1       1       8       1       1       8       1
       1       8       1       1       8       1       1       8       1       1
       8       1       1       8       1       1       8       1       1       8
       1       1       8       1       1       8       1       1       8       1
       1       8       1       1       8       1       1       8       1       1
       8       1       1       8       1       1       8       1       1       8
       1       1       8       1       1       8       1       1       8       1
       1       8       1       1       8       1       1       8       1       1
       8       1       1       8       1       1       8       1       1       8
       1       1       8       1       1       8       1       1       8       1
       1       8       1       1       8       1       1       8       1       1
       8       1       1       8       1       1       8       1       1       8
       1       1       8       1       1       8       1       1       8       1
       1       8       1       1       8       1       1       8       1       1
       8       1       1       8       1       1       8       1       1       8
       1       1       8       1       1       8       1       1       8       1
       1       8       1       1       8       1       1       8       1       1
       8       1       1       8       1       1       8       1       1       8
       1       1       8       1       1       8       1       1       8       1
       1       8       1       1       8       1       1       8       1       1
       8       1       1       8       1       1       8       1       1       8
       1       1       8       1       1       8       1       1       8       1
       1       8       1       1       8       1       1       8       1       1
       8       1       1       8       1       1       8       1       1       8
       1       1       8       1       1       8       1       1       8       1
       1       8       1       1       8       1       1       8       1       1
       8       1       1       8       1       1       8       1       1       8
       1       1       8       1       1       8       1       1       8       1
       1       8       1       1       8       1       1       8       1       1
       8       1       1       8       1       1       8       1       1       8
       1       1       8       1       1       8       1       1       8       1
       1       8       1       1       8       1       1       8       1       1
       8       1       1       8       1       1       8       1       1       8
       1       1       8       1       1       8       1       1       8       1
       1       8       1       1       8       1       1       8       1       1
       8       1       1       8       1       1       8       1       1       8
       1       1       8       1       1       8       1       1       8       1
       1       8       1       1       8       1       1       8       1       1
       8       1       1       8       1       1       8       1       1       8
       1       1       8       1       1       8       1       1       8       1
       1       8       1       1       8       1       1       8       1       1
       8       1       1       8       1       1       8       1       1       8
       1       1       8       1       1       8       1       1       8       1
       1       8       1       1       8       1       1       8       1       1
       8       1       1       8       1       1       8       1       1       8
       1       1       8       1       1       8       1       1       8       1
       1       8       1       1       8       1       1       8       1       1
       8       1       1       8       1       1       8       1       1       8
       1       1       8       1       1       8       1       1       8       1
       1       8       1       1       8       1       1       8       1       1
       8       1       1       8       1       1       8       1       1       8
       1       1       8       1       1       8       1       1       8       1
       1       8       1       1       8       1       1       8       1       1
       8       1       1       8       1       1       8       1       1       8
       1       1       8       1       1       8       1       1       8       1
       1       8       1       1       8       1       1       8       1       1
       8       1       1       8       1       1       8       1       1       8
       1       1       8       1       1       8       1       1       8       1
       1       8       1       1       8       1       1       8       1       1
       8       1       1       8       1       1       8       1       1       8
       1       1       8       1       1       8       1       1       8       1
       1       8       1       1       8       1       1       8       1       1
       8       1       1       8       1       1       8       1       1       8
       1       1       8       1       1       8       1       1       8       1
       1       8       1       1       8       1       1       8       1       1
       8       1       1       8       1       1       8       1       1       8
       1       1       8       1       1       8       1       1       8       1
       1       8       1       1       8       1       1       8       1       1
       8       1       1       8       1       1       8       1       1       8
       1       1       8       1       1       8       1       1       8       1
       1       8       1       1       8       1       1       8       1       1
       8       1       1       8       1       1       8       1       1       8
       1       1       8       1       1       8       1       1       8       1
       1       8       1       1       8       1       1       8       1       1
       8       1       1       8       1       1       8       1       1       8
       1       1       8       1       1       8       1       1       8       1
       1       8       1       1       8       1       1       8       1       1
       8       1       1       8       1       1       8       1       1       8
       1       1       8       1       1       8       1       1       8       1
       1       8       1       1       8       1       1       8       1       1
       8       1       1       8       1       1       8       1       1       8
       1       1       8       1       1       8       1       1       8       1
       1       8       1       1       8       1       1       8       1       1
       8       1       1       8       1       1       8       1       1       8
       1       1       8       1       1       8       1       1       8       1
       1       8       1       1       8       1       1       8       1       1
       8       1       1       8       1       1       8       1       1       8
       1       1       8       1       1       8       1       1       8       1
       1       8       1       1       8       1       1       8       1       1
       8       1       1       8       1       1       8       1       1       8
       1       1       8       1       1       8       1       1       8       1
       1       8       1       1       8       1       1       8       1       1
       8       1       1       8       1       1       8       1       1       8
       1       1       8       1       1       8       1       1       8       1
       1       8       1       1       8       1       1       8       1       1
       8       1       1       8       1       1       8       1       1       8
       1       1       8       1       1       8       1       1       8       1
       1       8       1       1       8       1       1       8       1       1
       8       1       1       8       1       1       8       1       1       8
       1       1       8       1       1       8       1       1       8       1
       1       8       1       1       8       1       1       8       1       1
       8       1       1       8       1       1       8       1       1       8
       1       1       8       1       1       8       1       1       8       1
       1       8       1       1       8       1       1       8       1       1
       8       1       1       8       1       1       8       1       1       8
       1       1       8       1       1       8       1       1       8       1
       1       8       1       1       8       1       1       8       1       1
       8       1       1       8       1       1       8       1       1       8
       1       1       8       1       1       8       1       1       8       1
       1       8       1       1       8       1       1       8       1       1
       8       1       1       8       1       1       8       1       1       8
       1       1       8       1       1       8       1       1       8       1
       1       8       1       1       8       1       1       8       1       1
       8       1       1       8       1       1       8       1       1       8
       1       1       8       1       1       8       1       1       8       1
       1       8       1       1       8       1       1       8       1       1
       8       1       1       8       1       1       8       1       1       8
       1       1       8       1       1       8       1       1       8       1
       1       8       1       1       8       1       1       8       1       1
       8       1       1       8       1       1       8       1       1       8
       1       1       8       1       1       8       1       1       8       1
       1       8       1       1       8       1       1       8       1       1
       8       1       1       8       1       1       8       1       1       8
       1       1       8       1       1       8       1       1       8       1
       1       8       1       1       8       1       1       8       1       1
       8       1       1       8       1       1       8       1       1       8
       1       1       8       1       1       8       1       1       8       1
       1       8       1       1       8       1       1       8       1       1
       8       1       1       8       1       1       8       1       1       8
       1       1       8       1       1       8       1       1       8       1
       1       8       1       1       8       1       1       8       1       1
       8       1       1       8       1       1       8       1       1       8
       1       1       8       1       1       8       1       1       8       1
       1       8       1       1       8       1       1       8       1       1
       8       1       1       8       1       1       8       1       1       8
       1       1       8       1       1       8       1       1       8       1
       1       8       1       1       8       1       1       8       1       1
       8       1       1       8       1       1       8       1       1       8
       1       1       8       1       1       8       1       1       8       1
       1       8       1       1       8       1       1       8       1       1
       8       1       1       8       1       1       8       1       1       8
       1       1       8       1       1       8       1       1       8       1
       1       8       1       1       8       1       1       8       1       1
       8       1       1       8       1       1       8       1       1       8
       1       1       8       1       1       8       1       1       8       1
       1       8       1       1       8       1       1       8       1       1
       8       1       1       8       1       1       8       1       1       8
       1       1       8       1       1       8       1       1       8       1
       1       8       1       1       8       1       1       8       1       1
       8       1       1       8       1       1       8       1       1       8
       1       1       8       1       1       8       1       1       8       1
       1       8       1       1       8       1       1       8       1       1
       8       1       1       8       1       1       8       1       1       8
       1       1       8       1       1       8       1       1       8       1
       1       8       1       1       8       1       1       8       1       1
       8       1       1       8       1       1       8       1       1       8
       1       1       8       1       1       8       1       1       8       1
       1       8       1       1       8       1       1       8       1       1
       8       1       1       8       1       1       8       1       1       8
       1       1       8       1       1       8       1       1       8       1
       1       8       1       1       8       1       1       8       1       1
       8       1       1       8       1       1       8       1       1       8
       1       1       8       1       1       8       1       1       8       1
       1       8       1       1       8       1       1       8       1       1
       8       1       1       8       1       1       8       1       1       8
       1       1       8       1       1       8       1       1       8       1
       1       8       1       1       8       1       1       8       1       1
       8       1       1       8       1       1       8       1       1       8
       1       1       8       1       1       8       1       1       8       1
       1       8       1       1       8       1       1       8       1       1
       8       1       1       8       1       1       8       1       1       8
       1       1       8       1       1       8       1       1       8       1
       1       8       1       1       8       1       1       8       1       1
       8       1       1       8       1       1       8       1       1       8
       1       1       8       1       1       8       1       1       8       1
       1       8       1       1       8       1       1       8       1       1
       8       1       1       8       1       1       8       1       1       8
       1       1       8       1       1       8       1       1       8       1
       1       8       1       1       8       1       1       8       1       1
       8       1       1       8       1       1       8       1       1       8
       1       1       8       1       1       8       1       1       8       1
       1       8       1       1       8       1       1       8       1       1
       8       1       1       8       1       1       8       1       1       8
       1       1       8       1       1       8       1       1       8       1
       1       8       1       1       8       1       1       8       1       1
       8       1       1       8       1       1       8       1       1       8
       1       1       8       1       1       8       1       1       8       1
       1       8       1       1       8       1       1       8       1       1
       8       1       1       8       1       1       8       1       1       8
       1       1       8       1       1       8       1       1       8       1
       1       8       1       1       8       1       1       8       1       1
       8       1       1       8       1       1       8       1       1       8
       1       1       8       1       1       8       1       1       8       1
       1       8       1       1       8       1       1       8       1       1
       8       1       1       8       1       1       8       1       1       8
       1       1       8       1       1       8       1       1       8       1
       1       8       1       1       8       1       1       8       1       1
       8       1       1       8       1       1       8       1       1       8
       1       1       8       1       1       8       1       1       8       1
       1       8       1       1       8       1       1       8       1       1
       8       1       1       8       1       1       8       1       1       8
       1       1       8       1       1       8       1       1       8       1
       1       8       1       1       8       1       1       8       1       1
       8       1       1       8       1       1       8       1       1       8
       1       1       8       1       1       8       1       1       8       1
       1       8       1       1       8       1       1       8       1       1
       8       1       1       8       1       1       8       1       1       8
       1       1       8       1       1       8       1       1       8       1
       1       8       1       1       8       1       1       8       1       1
       8       1       1       8       1       1       8       1       1       8
       1       1       8       1       1       8       1       1       8       1
       1       8       1       1       8       1       1       8       1       1
       8       1       1       8       1       1       8       1       1       8
       1       1       8       1       1       8       1       1       8       1
       1       8       1       1       8       1       1       8       1       1
       8       1       1       8       1       1       8       1       1       8
       1       1       8       1       1       8       1       1       8       1
       1       8       1       1       8       1       1       8       1       1
       8       1       1       8       1       1       8       1       1       8
       1       1       8       1       1       8       1       1       8       1
       1       8       1       1       8       1       1       8       1       1
       8       1       1       8       1       1       8       1       1       8
       1       1       8       1       1       8       1       1       8       1
       1       8       1       1       8       1       1       8       1       1
       8       1       1       8       1       1       8       1       1       8
       1       1       8       1       1       8       1       1       8       1
       1       8       1       1       8       1       1       8       1       1
       8       1       1       8       1       1       8       1       1       8
       1       1       8       1       1       8       1       1       8       1
       1       8       1       1       8       1       1       8       1       1
       8       1       1       8       1       1       8       1       1       8
       1       1       8       1       1       8       1       1       8       1
       1       8       1       1       8       1       1       8       1       1
       8       1       1       8       1       1       8       1       1       8
       1       1       8       1       1       8       1       1       8       1
       1       8       1       1       8       1       1       8       1       1
       8       1       1       8       1       1       8       1       1       8
       1       1       8       1       1       8       1       1       8       1
       1       8       1       1       8       1       1       8       1       1
       8       1       1       8       1       1       8       1       1       8
       1       1       8       1       1       8       1       1       8       1
       1       8       1       1       8       1       1       8       1       1
       8       1       1       8       1       1       8       1       1       8
       1       1       8       1       1       8       1       1       8       1
       1       8       1       1       8       1       1       8       1       1
       8       1       1       8       1       1       8       1       1       8
       1       1       8       1       1       8       1       1       8       1
       1       8       1       1       8       1       1       8       1       1
       8       1       1       8       1       1       8       1       1       8
       1       1       8       1       1       8       1       1       8       1
       1       8       1       1       8       1       1       8       1       1
       8       1       1       8       1       1       8       1       1       8
       1       1       8       1       1       8       1       1       8       1
       1       8       1       1       8       1       1       8       1       1
       8       1       1       8       1       1       8       1       1       8
       1       1       8       1       1       8       1       1       8       1
       1       8       1       1       8       1       1       8       1       1
       8       1       1       8       1       1       8       1       1       8
       1       1       8       1       1       8       1       1       8       1
       1       8       1       1       8       1       1       8       1       1
       8       1       1       8       1       1       8       1       1       8
       1       1       8       1       1       8       1       1       8       1
       1       8       1       1       8       1       1       8       1       1
       8       1       1       8       1       1       8       1       1       8
       1       1       8       1       1       8       1       1       8       1
       1       8       1       1       8       1       1       8       1       1
       8       1       1       8       1       1       8       1       1       8
       1       1       8       1       1       8       1       1       8       1
       1       8       1       1       8       1       1       8       1       1
       8       1       1       8       1       1       8       1       1       8
       1       1       8       1       1       8       1       1       8       1
       1       8       1       1       8       1       1       8       1       1
       8       1       1       8       1       1       8       1       1       8
       1       1       8       1       1       8       1       1       8       1
       1       8       1       1       8       1       1       8       1       1
       8       1       1       8       1       1       8       1       1       8
       1       1       8       1       1       8       1       1       8       1
       1       8       1       1       8       1       1       8       1       1
       8       1       1       8       1       1       8       1       1       8
       1       1       8       1       1       8       1       1       8       1
       1       8       1       1       8       1       1       8       1       1
       8       1       1       8       1       1       8       1       1       8
       1       1       8       1       1       8       1       1       8       1
       1       8       1       1       8       1       1       8       1       1
       8       1       1       8       1       1       8       1       1       8
       1       1       8       1       1       8       1       1       8       1
       1       8       1       1       8       1       1       8       1       1
       8       1       1       8       1       1       8       1       1       8
       1       1       8       1       1       8       1       1       8       1
       1       8       1       1       8       1       1       8       1       1
       8       1       1       8       1       1       8       1       1       8
       1       1       8       1       1       8       1       1       8       1
       1       8       1       1       8       1       1       8       1       1
       8       1       1       8       1       1       8       1       1       8
       1       1       8       1       1       8       1       1       8       1
       1       8       1       1       8       1       1       8       1       1
       8       1       1       8       1       1       8       1       1       8
       1       1       8       1       1       8       1       1       8       1
       1       8       1       1       8       1       1       8       1       1
       8       1       1       8       1       1       8       1       1       8
       1       1       8       1       1       8       1       1       8       1
       1       8       1       1       8       1       1       8       1       1
       8       1       1       8       1       1       8       1       1       8
       1       1       8       1       1       8       1       1       8       1
       1       8       1       1       8       1       1       8       1       1
       8       1       1       8       1       1       8       1       1       8
       1       1       8       1       1       8       1       1       8       1
       1       8       1       1       8       1       1       8       1       1
       8       1       1       8       1       1       8       1       1       8
       1       1       8       1       1       8       1       1       8       1
       1       8       1       1       8       1       1       8       1       1
       8       1       1       8       1       1       8       1       1       8
       1       1       8       1       1       8       1       1       8       1
       1       8       1       1       8       1       1       8       1       1
       8       1       1       8       1       1       8       1       1       8
       1       1       8       1       1       8       1       1       8       1
       1       8       1       1       8       1       1       8       1       1
       8       1       1       8       1       1       8       1       1       8
       1       1       8       1       1       8       1       1       8       1
       1       8       1       1       8       1       1       8       1       1
       8       1       1       8       1       1       8       1       1       8
       1       1       8       1       1       8       1       1       8       1
       1       8       1       1       8       1       1       8       1       1
       8       1       1       8       1       1       8       1       1       8
       1       1       8       1       1       8       1       1       8       1
       1       8       1       1       8       1       1       8       1       1
       8       1       1       8       1       1       8       1       1       8
       1       1       8       1       1       8       1       1       8       1
       1       8       1       1       8       1       1       8       1       1
       8       1       1       8       1       1       8       1       1       8
       1       1       8       1       1       8       1       1       8       1
       1       8       1       1       8       1       1       8       1       1
       8       1       1       8       1       1       8       1       1       8
       1       1       8       1       1       8       1       1       8       1
       1       8       1       1       8       1       1       8       1       1
       8       1       1       8       1       1       8       1       1       8
       1       1       8       1       1       8       1       1       8       1
       1       8       1       1       8       1       1       8       1       1
       8       1       1       8       1       1       8       1       1       8
       1       1       8       1       1       8       1       1       8       1
       1       8       1       1       8       1       1       8       1       1
       8       1       1       8       1       1       8       1       1       8
       1       1       8       1       1       8       1       1       8       1
       1       8       1       1       8       1       1       8       1       1
       8       1       1       8       1       1       8       1       1       8
       1       1       8       1       1       8       1       1       8       1
       1       8       1       1       8       1       1       8       1       1
       8       1       1       8       1       1       8       1       1       8
       1       1       8       1       1       8       1       1       8       1
       1       8       1       1       8       1       1       8       1       1
       8       1       1       8       1       1       8       1       1       8
       1       1       8       1       1       8       1       1       8       1
       1       8       1       1       8       1       1       8       1       1
       8       1       1       8       1       1       8       1       1       8
       1       1       8       1       1       8       1       1       8       1
       1       8       1       1       8       1       1       8       1       1
       8       1       1       8       1       1       8       1       1       8
       1       1       8       1       1       8       1       1       8       1
       1       8       1       1       8       1       1       8       1       1
       8       1       1       8       1       1       8       1       1       8
       1       1       8       1       1       8       1       1       8       1
       1       8       1       1       8       1       1       8       1       1
       8       1       1       8       1       1       8       1       1       8
       1       1       8       1       1       8       1       1       8       1
       1       8       1       1       8       1       1       8       1       1
       8       1       1       8       1       1       8       1       1       8
       1       1       8       1       1       8       1       1       8       1
       1       8       1       1       8       1       1       8       1       1
       8       1       1       8       1       1       8       1       1       8
       1       1       8       1       1       8       1       1       8       1
       1       8       1       1       8       1       1       8       1       1
       8       1       1       8       1       1       8       1       1       8
       1       1       8       1       1       8       1       1       8       1
       1       8       1       1       8       1       1       8       1       1
       8       1       1       8       1       1       8       1       1       8
       1       1       8       1       1       8       1       1       8       1
       1       8       1       1       8       1       1       8       1       1
       8       1       1       8       1       1       8       1       1       8
       1       1       8       1       1       8       1       1       8       1
       1       8       1       1       8       1       1       8       1       1
       8       1       1       8       1       1       8       1       1       8
       1       1       8       1       1       8       1       1       8       1
       1       8       1       1       8       1       1       8       1       1
       8       1       1       8       1       1       8       1       1       8
       1       1       8       1       1       8       1       1       8       1
       1       8       1       1       8       1       1       8       1       1
       8       1       1       8       1       1       8       1       1       8
       1       1       8       1       1       8       1       1       8       1
       1       8       1       1       8       1       1       8       1       1
       8       1       1       8       1       1       8       1       1       8
       1       1       8       1       1       8       1       1       8       1
       1       8       1       1       8       1       1       8       1       1
       8       1       1       8       1       1       8       1       1       8
       1       1       8       1       1       8       1       1       8       1
       1       8       1       1       8       1       1       8       1       1
       8       1       1       8       1       1       8       1       1       8
       1       1       8       1       1       8       1       1       8       1
       1       8       1       1       8       1       1       8       1       1
       8       1       1       8       1       1       8       1       1       8
       1       1       8       1       1       8       1       1       8       1
       1       8       1       1       8       1       1       8       1       1
       8       1       1       8       1       1       8       1       1       8
       1       1       8       1       1       8       1       1       8       1
       1       8       1       1       8       1       1       8       1       1
       8       1       1       8       1       1       8       1       1       8
       1       1       8       1       1       8       1       1       8       1
       1       8       1       1       8       1       1       8       1       1
       8       1       1       8       1       1       8       1       1       8
       1       1       8       1       1       8       1       1       8       1
       1       8       1       1       8       1       1       8       1       1
       8       1       1       8       1       1       8       1       1       8
       1       1       8       1       1       8       1       1       8       1
       1       8       1       1       8       1       1       8       1       1
       8       1       1       8       1       1       8       1       1       8
       1       1       8       1       1       8       1       1       8       1
       1       8       1       1       8       1       1       8       1       1
       8       1       1       8       1       1       8       1       1       8
       1       1       8       1       1       8       1       1       8       1
       1       8       1       1       8       1       1       8       1       1
       8       1       1       8       1       1       8       1       1       8
       1       1       8       1       1       8       1       1       8       1
       1       8       1       1       8       1       1       8       1       1
       8       1       1       8       1       1       8       1       1       8
       1       1       8       1       1       8       1       1       8       1
       1       8       1       1       8       1       1       8       1       1
       8       1       1       8       1       1       8       1       1       8
       1       1       8       1       1       8       1       1       8       1
       1       8       1       1       8       1       1       8       1       1
       8       1       1       8       1       1       8       1       1       8
       1       1       8       1       1       8       1       1       8       1
       1       8       1       1       8       1       1       8       1       1
       8       1       1       8       1       1       8       1       1       8
       1       1       8       1       1       8       1       1       8       1
       1       8       1       1       8       1       1       8       1       1
       8       1       1       8       1       1       8       1       1       8
       1       1       8       1       1       8       1       1       8       1
       1       8       1       1       8       1       1       8       1       1
       8       1       1       8       1       1       8       1       1       8
       1       1       8       1       1       8       1       1       8       1
       1       8       1       1       8       1       1       8       1       1
       8       1       1       8       1       1       8       1       1       8
       1       1       8       1       1       8       1       1       8       1
       1       8       1       1       8       1       1       8       1       1
       8       1       1       8       1       1       8       1       1       8
       1       1       8       1       1       8       1       1       8       1
       1       8       1       1       8       1       1       8       1       1
       8       1       1       8       1       1       8       1       1       8
       1       1       8       1       1       8       1       1       8       1
       1       8       1       1       8       1       1       8       1       1
       8       1       1       8       1       1       8       1       1       8
       1       1       8       1       1       8       1       1       8       1
       1       8       1       1       8       1       1       8       1       1
       8       1       1       8       1       1       8       1       1       8
       1       1       8       1       1       8       1       1       8       1
       1       8       1       1       8       1       1       8       1       1
       8       1       1       8       1       1       8       1       1       8
       1       1       8       1       1       8       1       1       8       1
       1       8       1       1       8       1       1       8       1       1
       8       1       1       8       1       1       8       1       1       8
       1       1       8       1       1       8       1       1       8       1
       1       8       1       1       8       1       1       8       1       1
       8       1       1       8       1       1       8       1       1       8
       1       1       8       1       1       8       1       1       8       1
       1       8       1       1       8       1       1       8       1       1
       8       1       1       8       1       1       8       1       1       8
       1       1       8       1       1       8       1       1       8       1
       1       8       1       1       8       1       1       8       1       1
       8       1       1       8       1       1       8       1       1       8
       1       1       8       1       1       8       1       1       8       1
       1       8       1       1       8       1       1       8       1       1
       8       1       1       8       1       1       8       1       1       8
       1       1       8       1       1       8       1       1       8       1
       1       8       1       1       8       1       1       8       1       1
       8       1       1       8       1       1       8       1       1       8
       1       1       8       1       1       8       1       1       8       1
       1       8       1       1       8       1       1       8       1       1
       8       1       1       8       1       1       8       1       1       8
       1       1       8       1       1       8       1       1       8       1
       1       8       1       1       8       1       1       8       1       1
       8       1       1       8       1       1       8       1       1       8
       1       1       8       1       1       8       1       1       8       1
       1       8       1       1       8       1       1       8       1       1
       8       1       1       8       1       1       8       1       1       8
       1       1       8       1       1       8       1       1       8       1
       1       8       1       1       8       1       1       8       1       1
       8       1       1       8       1       1       8       1       1       8
       1       1       8       1       1       8       1       1       8       1
       1       8       1       1       8       1       1       8       1       1
       8       1       1       8       1       1       8       1       1       8
       1       1       8       1       1       8       1       1       8       1
       1       8       1       1       8       1       1       8       1       1
       8       1       1       8       1       1       8       1       1       8
       1       1       8       1       1       8       1       1       8       1
       1       8       1       1       8       1       1       8       1       1
       8       1       1       8       1       1       8       1       1       8
       1       1       8       1       1       8       1       1       8       1
       1       8       1       1       8       1       1       8       1       1
       8       1       1       8       1       1       8       1       1       8
       1       1       8       1       1       8       1       1       8       1
       1       8       1       1       8       1       1       8       1       1
       8       1       1       8       1       1       8       1       1       8
       1       1       8       1       1       8       1       1       8       1
       1       8       1       1       8       1       1       8       1       1
       8       1       1       8       1       1       8       1       1       8
       1       1       8       1       1       8       1       1       8       1
       1       8       1       1       8       1       1       8       1       1
       8       1       1       8       1       1       8       1       1       8
       1       1       8       1       1       8       1       1       8       1
       1       8       1       1       8       1       1       8       1       1
       8       1       1       8       1       1       8       1       1       8
       1       1       8       1       1       8       1       1       8       1
       1       8       1       1       8       1       1       8       1       1
       8       1       1       8       1       1       8       1       1       8
       1       1       8       1       1       8       1       1       8       1
       1       8       1       1       8       1       1       8       1       1
       8       1       1       8       1       1       8       1       1       8
       1       1       8       1       1       8       1       1       8       1
       1       8       1       1       8       1       1       8       1       1
       8       1       1       8       1       1       8       1       1       8
       1       1       8       1       1       8       1       1       8       1
       1       8       1       1       8       1       1       8       1       1
       8       1       1       8       1       1       8       1       1       8
       1       1       8       1       1       8       1       1       8       1
       1       8       1       1       8       1       1       8       1       1
       8       1       1       8       1       1       8       1       1       8
       1       1       8       1       1       8       1       1       8       1
       1       8       1       1       8       1       1       8       1       1
       8       1       1       8       1       1       8       1       1       8
       1       1       8       1       1       8       1       1       8       1
       1       8       1       1       8       1       1       8       1       1
       8       1       1       8       1       1       8       1       1       8
       1       1       8       1       1       8       1       1       8       1
       1       8       1       1       8       1       1       8       1       1
       8       1       1       8       1       1       8       1       1       8
       1       1       8       1       1       8       1       1       8       1
       1       8       1       1       8       1       1       8       1       1
       8       1       1       8       1       1       8       1       1       8
       1       1       8       1       1       8       1       1       8       1
       1       8       1       1       8       1       1       8       1       1
       8       1       1       8       1       1       8       1       1       8
       1       1       8       1       1       8       1       1       8       1
       1       8       1       1       8       1       1       8       1       1
       8       1       1       8       1       1       8       1       1       8
       1       1       8       1       1       8       1       1       8       1
       1       8       1       1       8       1       1       8       1       1
       8       1       1       8       1       1       8       1       1       8
       1       1       8       1       1       8       1       1       8       1
       1       8       1       1       8       1       1       8       1       1
       8       1       1       8       1       1       8       1       1       8
       1       1       8       1       1       8       1       1       8       1
       1       8       1       1       8       1       1       8       1       1
       8       1       1       8       1       1       8       1       1       8
       1       1       8       1       1       8       1       1       8       1
       1       8       1       1       8       1       1       8       1       1
       8       1       1       8       1       1       8       1       1       8
       1       1       8       1       1       8       1       1       8       1
       1       8       1       1       8       1       1       8       1       1
       8       1       1       8       1       1       8       1       1       8
       1       1       8       1       1       8       1       1       8       1
       1       8       1       1       8       1       1       8       1       1
       8       1       1       8       1       1       8       1       1       8
       1       1       8       1       1       8       1       1       8       1
       1       8       1       1       8       1       1       8       1       1
       8       1       1       8       1       1       8       1       1       8
       1       1       8       1       1       8       1       1       8       1
       1       8       1       1       8       1       1       8       1       1
       8       1       1       8       1       1       8       1       1       8
       1       1       8       1       1       8       1       1       8       1
       1       8       1       1       8       1       1       8       1       1
       8       1       1       8       1       1       8       1       1       8
       1       1       8       1       1       8       1       1       8       1
       1       8       1       1       8       1       1       8       1       1
       8       1       1       8       1       1       8       1       1       8
       1       1       8       1       1       8       1       1       8       1
       1       8       1       1       8       1       1       8       1       1
       8       1       1       8       1       1       8       1       1       8
       1       1       8       1       1       8       1       1       8       1
       1       8       1       1       8       1       1       8       1       1
       8       1       1       8       1       1       8       1       1       8
       1       1       8       1       1       8       1       1       8       1
       1       8       1       1       8       1       1       8       1       1
       8       1       1       8       1       1       8       1       1       8
       1       1       8       1       1       8       1       1       8       1
       1       8       1       1       8       1       1       8       1       1
       8       1       1       8       1       1       8       1       1       8
       1       1       8       1       1       8       1       1       8       1
       1       8       1       1       8       1       1       8       1       1
       8       1       1       8       1       1       8       1       1       8
       1       1       8       1       1       8       1       1       8       1
       1       8       1       1       8       1       1       8       1       1
       8       1       1       8       1       1       8       1       1       8
       1       1       8       1       1       8       1       1       8       1
       1       8       1       1       8       1       1       8       1       1
       8       1       1       8       1       1       8       1       1       8
       1       1       8       1       1       8       1       1       8       1
       1       8       1       1       8       1       1       8       1       1
       8       1       1       8       1       1       8       1       1       8
       1       1       8       1       1       8       1       1       8       1
       1       8       1       1       8       1       1       8       1       1
       8       1       1       8       1       1       8       1       1       8
       1       1       8       1       1       8       1       1       8       1
       1       8       1       1       8       1       1       8       1       1
       8       1       1       8       1       1       8       1       1       8
       1       1       8       1       1       8       1       1       8       1
       1       8       1       1       8       1       1       8       1       1
       8       1       1       8       1       1       8       1       1       8
       1       1       8       1       1       8       1       1       8       1
       1       8       1       1       8       1       1       8       1       1
       8       1       1       8       1       1       8       1       1       8
       1       1       8       1       1       8       1       1       8       1
       1       8       1       1       8       1       1       8       1       1
       8       1       1       8       1       1       8       1       1       8
       1       1       8       1       1       8       1       1       8       1
       1       8       1       1       8       1       1       8       1       1
       8       1       1       8       1       1       8       1       1       8
       1       1       8       1       1       8       1       1       8       1
       1       8       1       1       8       1       1       8       1       1
       8       1       1       8       1       1       8       1       1       8
       1       1       8       1       1       8       1       1       8       1
       1       8       1       1       8       1       1       8       1       1
       8       1       1       8       1       1       8       1       1       8
       1       1       8       1       1       8       1       1       8       1
       1       8       1       1       8       1       1       8       1       1
       8       1       1       8       1       1       8       1       1       8
       1       1       8       1       1       8       1       1       8       1
       1       8       1       1       8       1       1       8       1       1
       8       1       1       8       1       1       8       1       1       8
       1       1       8       1       1       8       1       1       8       1
       1       8       1       1       8       1       1       8       1       1
       8       1       1       8       1       1       8       1       1       8
       1       1       8       1       1       8       1       1       8       1
       1       8       1       1       8       1       1       8       1       1
       8       1       1       8       1       1       8       1       1       8
       1       1       8       1       1       8       1       1       8       1
       1       8       1       1       8       1       1       8       1       1
       8       1       1       8       1       1       8       1       1       8
       1       1       8       1       1       8       1       1       8       1
       1       8       1       1       8       1       1       8       1       1
       8       1       1       8       1       1       8       1       1       8
       1       1       8       1       1       8       1       1       8       1
       1       8       1       1       8       1       1       8       1       1
       8       1       1       8       1       1       8       1       1       8
       1       1       8       1       1       8       1       1       8       1
       1       8       1       1       8       1       1       8       1       1
       8       1       1       8       1       1       8       1       1       8
       1       1       8       1       1       8       1       1       8       1
       1       8       1       1       8       1       1       8       1       1
       8       1       1       8       1       1       8       1       1       8
       1       1       8       1       1       8       1       1       8       1
       1       8       1       1       8       1       1       8       1       1
       8       1       1       8       1       1       8       1       1       8
       1       1       8       1       1       8       1       1       8       1
       1       8       1       1       8       1       1       8       1       1
       8       1       1       8       1       1       8       1       1       8
       1       1       8       1       1       8       1       1       8       1
       1       8       1       1       8       1       1       8       1       1
       8       1       1       8       1       1       8       1       1       8
       1       1       8       1       1       8       1       1       8       1
       1       8       1       1       8       1       1       8       1       1
       8       1       1       8       1       1       8       1       1       8
       1       1       8       1       1       8       1       1       8       1
       1       8       1       1       8       1       1       8       1       1
       8       1       1       8       1       1       8       1       1       8
       1       1       8       1       1       8       1       1       8       1
       1       8       1       1       8       1       1       8       1       1
       8       1       1       8       1       1       8       1       1       8
       1       1       8       1       1       8       1       1       8       1
       1       8       1       1       8       1       1       8       1       1
       8       1       1       8       1       1       8       1       1       8
       1       1       8       1       1       8       1       1       8       1
       1       8       1       1       8       1       1       8       1       1
       8       1       1       8       1       1       8       1       1       8
       1       1       8       1       1       8       1       1       8       1
       1       8       1       1       8       1       1       8       1       1
       8       1       1       8       1       1       8       1       1       8
       1       1       8       1       1       8       1       1       8       1
       1       8       1       1       8       1       1       8       1       1
       8       1       1       8       1       1       8       1       1       8
       1       1       8       1       1       8       1       1       8       1
       1       8       1       1       8       1       1       8       1       1
       8       1       1       8       1       1       8       1       1       8
       1       1       8       1       1       8       1       1       8       1
       1       8       1       1       8       1       1       8       1       1
       8       1       1       8       1       1       8       1       1       8
       1       1       8       1       1       8       1       1       8       1
       1       8       1       1       8       1       1       8       1       1
       8       1       1       8       1       1       8       1       1       8
       1       1       8       1       1       8       1       1       8       1
       1       8       1       1       8       1       1       8       1       1
       8       1       1       8       1       1       8       1       1       8
       1       1       8       1       1       8       1       1       8       1
       1       8       1       1       8       1       1       8       1       1
       8       1       1       8       1       1       8       1       1       8
       1       1       8       1       1       8       1       1       8       1
       1       8       1       1       8       1       1       8       1       1
       8       1       1       8       1       1       8       1       1       8
       1       1       8       1       1       8       1       1       8       1
       1       8       1       1       8       1       1       8       1       1
       8       1       1       8       1       1       8       1       1       8
       1       1       8       1       1       8       1       1       8       1
       1       8       1       1       8       1       1       8       1       1
       8       1       1       8       1       1       8       1       1       8
       1       1       8       1       1       8       1       1       8       1
       1       8       1       1       8       1       1       8       1       1
       8       1       1       8       1       1       8       1       1       8
       1       1       8       1       1       8       1       1       8       1
       1       8       1       1       8       1       1       8       1       1
       8       1       1       8       1       1       8       1       1       8
       1       1       8       1       1       8       1       1       8       1
       1       8       1       1       8       1       1       8       1       1
       8       1       1       8       1       1       8       1       1       8
       1       1       8       1       1       8       1       1       8       1
       1       8       1       1       8       1       1       8       1       1
       8       1       1       8       1       1       8       1       1       8
       1       1       8       1       1       8       1       1       8       1
       1       8       1       1       8       1       1       8       1       1
       8       1       1       8       1       1       8       1       1       8
       1       1       8       1       1       8       1       1       8       1
       1       8       1       1       8       1       1       8       1       1
       8       1       1       8       1       1       8       1       1       8
       1       1       8       1       1       8       1       1       8       1
       1       8       1       1       8       1       1       8       1       1
       8       1       1       8       1       1       8       1       1       8
       1       1       8       1       1       8       1       1       8       1
       1       8       1       1       8       1       1       8       1       1
       8       1       1       8       1       1       8       1       1       8
       1       1       8       1       1       8       1       1       8       1
       1       8       1       1       8       1       1       8       1       1
       8       1       1       8       1       1       8       1       1       8
       1       1       8       1       1       8       1       1       8       1
       1       8       1       1       8       1       1       8       1       1
       8       1       1       8       1       1       8       1       1       8
       1       1       8       1       1       8       1       1       8       1
       1       8       1       1       8       1       1       8       1       1
       8       1       1       8       1       1       8       1       1       8
       1       1       8       1       1       8       1       1       8       1
       1       8       1       1       8       1       1       8       1       1
       8       1       1       8       1       1       8       1       1       8
       1       1       8       1       1       8       1       1       8       1
       1       8       1       1       8       1       1       8       1       1
       8       1       1       8       1       1       8       1       1       8
       1       1       8       1       1       8       1       1       8       1
       1       8       1       1       8       1       1       8       1       1
       8       1       1       8       1       1       8       1       1       8
       1       1       8       1       1       8       1       1       8       1
       1       8       1       1       8       1       1       8       1       1
       8       1       1       8       1       1       8       1       1       8
       1       1       8       1       1       8       1       1       8       1
       1       8       1       1       8       1       1       8       1       1
       8       1       1       8       1       1       8       1       1       8
       1       1       8       1       1       8       1       1       8       1
       1       8       1       1       8       1       1       8       1       1
       8       1       1       8       1       1       8       1       1       8
       1       1       8       1       1       8       1       1       8       1
       1       8       1       1       8       1       1       8       1       1
       8       1       1       8       1       1       8       1       1       8
       1       1       8       1       1       8       1       1       8       1
       1       8       1       1       8       1       1       8       1       1
       8       1       1       8       1       1       8       1       1       8
       1       1       8       1       1       8       1       1       8       1
       1       8       1       1       8       1       1       8       1       1
       8       1       1       8       1       1       8       1       1       8
       1       1       8       1       1       8       1       1       8       1
       1       8       1       1       8       1       1       8       1       1
       8       1       1       8       1       1       8       1       1       8
       1       1       8       1       1       8       1       1       8       1
       1       8       1       1       8       1       1       8       1       1
       8       1       1       8       1       1       8       1       1       8
       1       1       8       1       1       8       1       1       8       1
       1       8       1       1       8       1       1       8       1       1
       8       1       1       8       1       1       8       1       1       8
       1       1       8       1       1       8       1       1       8       1
       1       8       1       1       8       1       1       8       1       1
       8       1       1       8       1       1       8       1       1       8
       1       1       8       1       1       8       1       1       8       1
       1       8       1       1       8       1       1       8       1       1
       8       1       1       8       1       1       8       1       1       8
       1       1       8       1       1       8       1       1       8       1
       1       8       1       1       8       1       1       8       1       1
       8       1       1       8       1       1       8       1       1       8
       1       1       8       1       1       8       1       1       8       1
       1       8       1       1       8       1       1       8       1       1
       8       1       1       8       1       1       8       1       1       8
       1       1       8       1       1       8       1       1       8       1
       1       8       1       1       8       1       1       8       1       1
       8       1       1       8       1       1       8       1       1       8
       1       1       8       1       1       8       1       1       8       1
       1       8       1       1       8       1       1       8       1       1
       8       1       1       8       1       1       8       1       1       8
       1       1       8       1       1       8       1       1       8       1
       1       8       1       1       8       1       1       8       1       1
       8       1       1       8       1       1       8       1       1       8
       1       1       8       1       1       8       1       1       8       1
       1       8       1       1       8       1       1       8       1       1
       8       1       1       8       1       1       8       1       1       8
       1       1       8       1       1       8       1       1       8       1
       1       8       1       1       8       1       1       8       1       1
       8       1       1       8       1       1       8       1       1       8
       1       1       8       1       1       8       1       1       8       1
       1       8       1       1       8       1       1       8       1       1
       8       1       1       8       1       1       8       1       1       8
       1       1       8       1       1       8       1       1       8       1
       1       8       1       1       8       1       1       8       1       1
       8       1       1       8       1       1       8       1       1       8
       1       1       8       1       1       8       1       1       8       1
       1       8       1       1       8       1       1       8       1       1
       8       1       1       8       1       1       8       1       1       8
       1       1       8       1       1       8       1       1       8       1
       1       8       1       1       8       1       1       8       1       1
       8       1       1       8       1       1       8       1       1       8
       1       1       8       1       1       8       1       1       8       1
       1       8       1       1       8       1       1       8       1       1
       8       1       1       8       1       1       8       1       1       8
       1       1       8       1       1       8       1       1       8       1
       1       8       1       1       8       1       1       8       1       1
       8       1       1       8       1       1       8       1       1       8
       1       1       8       1       1       8       1       1       8       1
       1       8       1       1       8       1       1       8       1       1
       8       1       1       8       1       1       8       1       1       8
       1       1       8       1       1       8       1       1       8       1
       1       8       1       1       8       1       1       8       1       1
       8       1       1       8       1       1       8       1       1       8
       1       1       8       1       1       8       1       1       8       1
       1       8       1       1       8       1       1       8       1       1
       8       1       1       8       1       1       8       1       1       8
       1       1       8       1       1       8       1       1       8       1
       1       8       1       1       8       1       1       8       1       1
       8       1       1       8       1       1       8       1       1       8
       1       1       8       1       1       8       1       1       8       1
       1       8       1       1       8       1       1       8       1       1
       8       1       1       8       1       1       8       1       1       8
       1       1       8       1       1       8       1       1       8       1
       1       8       1       1       8       1       1       8       1       1
       8       1       1       8       1       1       8       1       1       8
       1       1       8       1       1       8       1       1       8       1
       1       8       1       1       8       1       1       8       1       1
       8       1       1       8       1       1       8       1       1       8
       1       1       8       1       1       8       1       1       8       1
       1       8       1       1       8       1       1       8       1       1
       8       1       1       8       1       1       8       1       1       8
       1       1       8       1       1       8       1       1       8       1
       1       8       1       1       8       1       1       8       1       1
       8       1       1       8       1       1       8       1       1       8
       1       1       8       1       1       8       1       1       8       1
       1       8       1       1       8       1       1       8       1       1
       8       1       1       8       1       1       8       1       1       8
       1       1       8       1       1       8       1       1       8       1
       1       8       1       1       8       1       1       8       1       1
       8       1       1       8       1       1       8       1       1       8
       1       1       8       1       1       8       1       1       8       1
       1       8       1       1       8       1       1       8       1       1
       8       1       1       8       1       1       8       1       1       8
       1       1       8       1       1       8       1       1       8       1
       1       8       1       1       8       1       1       8       1       1
       8       1       1       8       1       1       8       1       1       8
       1       1       8       1       1       8       1       1       8       1
       1       8       1       1       8       1       1       8       1       1
       8       1       1       8       1       1       8       1       1       8
       1       1       8       1       1       8       1       1       8       1
       1       8       1       1       8       1       1       8       1       1
       8       1       1       8       1       1       8       1       1       8
       1       1       8       1       1       8       1       1       8       1
       1       8       1       1       8       1       1       8       1       1
       8       1       1       8       1       1       8       1       1       8
       1       1       8       1       1       8       1       1       8       1
       1       8       1       1       8       1       1       8       1       1
       8       1       1       8       1       1       8       1       1       8
       1       1       8       1       1       8       1       1       8       1
       1       8       1       1       8       1       1       8       1       1
       8       1       1       8       1       1       8       1       1       8
       1       1       8       1       1       8       1       1       8       1
       1       8       1       1       8       1       1       8       1       1
       8       1       1       8       1       1       8       1       1       8
       1       1       8       1       1       8       1       1       8       1
       1       8       1       1       8       1       1       8       1       1
       8       1       1       8       1       1       8       1       1       8
       1       1       8       1       1       8       1       1       8       1
       1       8       1       1       8       1       1       8       1       1
       8       1       1       8       1       1       8       1       1       8
       1       1       8       1       1       8       1       1       8       1
       1       8       1       1       8       1       1       8       1       1
       8       1       1       8       1       1       8       1       1       8
       1       1       8       1       1       8       1       1       8       1
       1       8       1       1       8       1       1       8       1       1
       8       1       1       8       1       1       8       1       1       8
       1       1       8       1       1       8       1       1       8       1
       1       8       1       1       8       1       1       8       1       1
       8       1       1       8       1       1       8       1       1       8
       1       1       8       1       1       8       1       1       8       1
       1       8       1       1       8       1       1       8       1       1
       8       1       1       8       1       1       8       1       1       8
       1       1       8       1       1       8       1       1       8       1
       1       8       1       1       8       1       1       8       1       1
       8       1       1       8       1       1       8       1       1       8
       1       1       8       1       1       8       1       1       8       1
       1       8       1       1       8       1       1       8       1       1
       8       1       1       8       1       1       8       1       1       8
       1       1       8       1       1       8       1       1       8       1
       1       8       1       1       8       1       1       8       1       1
       8       1       1       8       1       1       8       1       1       8
       1       1       8       1       1       8       1       1       8       1
       1       8       1       1       8       1       1       8       1       1
       8       1       1       8       1       1       8       1       1       8
       1       1       8       1       1       8       1       1       8       1
       1       8       1       1       8       1       1       8       1       1
       8       1       1       8       1       1       8       1       1       8
       1       1       8       1       1       8       1       1       8       1
       1       8       1       1       8       1       1       8       1       1
       8       1       1       8       1       1       8       1       1       8
       1       1       8       1       1       8       1       1       8       1
       1       8       1       1       8       1       1       8       1       1
       8       1       1       8       1       1       8       1       1       8
       1       1       8       1       1       8       1       1       8       1
       1       8       1       1       8       1       1       8       1       1
       8       1       1       8       1       1       8       1       1       8
       1       1       8       1       1       8       1       1       8       1
       1       8       1       1       8       1       1       8       1       1
       8       1       1       8       1       1       8       1       1       8
       1       1       8       1       1       8       1       1       8       1
       1       8       1       1       8       1       1       8       1       1
       8       1       1       8       1       1       8       1       1       8
       1       1       8       1       1       8       1       1       8       1
       1       8       1       1       8       1       1       8       1       1
       8       1       1       8       1       1       8       1       1       8
       1       1       8       1       1       8       1       1       8       1
       1       8       1       1       8       1       1       8       1       1
       8       1       1       8       1       1       8       1       1       8
       1       1       8       1       1       8       1       1       8       1
       1       8       1       1       8       1       1       8       1       1
       8       1       1       8       1       1       8       1       1       8
       1       1       8       1       1       8       1       1       8       1
       1       8       1       1       8       1       1       8       1       1
       8       1       1       8       1       1       8       1       1       8
       1       1       8       1       1       8       1       1       8       1
       1       8       1       1       8       1       1       8       1       1
       8       1       1       8       1       1       8       1       1       8
       1       1       8       1       1       8       1       1       8       1
       1       8       1       1       8       1       1       8       1       1
       8       1       1       8       1       1       8       1       1       8
       1       1       8       1       1       8       1       1       8       1
       1       8       1       1       8       1       1       8       1       1
       8       1       1       8       1       1       8       1       1       8
       1       1       8       1       1       8       1       1       8       1
       1       8       1       1       8       1       1       8       1       1
       8       1       1       8       1       1       8       1       1       8
       1       1       8       1       1       8       1       1       8       1
       1       8       1       1       8       1       1       8       1       1
       8       1       1       8       1       1       8       1       1       8
       1       1       8       1       1       8       1       1       8       1
       1       8       1       1       8       1       1       8       1       1
       8       1       1       8       1       1       8       1       1       8
       1       1       8       1       1       8       1       1       8       1
       1       8       1       1       8       1       1       8       1       1
       8       1       1       8       1       1       8       1       1       8
       1       1       8       1       1       8       1       1       8       1
       1       8       1       1       8       1       1       8       1       1
       8       1       1       8       1       1       8       1       1       8
       1       1       8       1       1       8       1       1       8       1
       1       8       1       1       8       1       1       8       1       1
       8       1       1       8       1       1       8       1       1       8
       1       1       8       1       1       8       1       1       8       1
       1       8       1       1       8       1       1       8       1       1
       8       1       1       8       1       1       8       1       1       8
       1       1       8       1       1       8       1       1       8       1
       1       8       1       1       8       1       1       8       1       1
       8       1       1       8       1       1       8       1       1       8
       1       1       8       1       1       8       1       1       8       1
       1       8       1       1       8       1       1       8       1       1
       8       1       1       8       1       1       8       1       1       8
       1       1       8       1       1       8       1       1       8       1
       1       8       1       1       8       1       1       8       1       1
       8       1       1       8       1       1       8       1       1       8
       1       1       8       1       1       8       1       1       8       1
       1       8       1       1       8       1       1       8       1       1
       8       1       1       8       1       1       8       1       1       8
       1       1       8       1       1       8       1       1       8       1
       1       8       1       1       8       1       1       8       1       1
       8       1       1       8       1       1       8       1       1       8
       1       1       8       1       1       8       1       1       8       1
       1       8       1       1       8       1       1       8       1       1
       8       1       1       8       1       1       8       1       1       8
       1       1       8       1       1       8       1       1       8       1
       1       8       1       1       8       1       1       8       1       1
       8       1       1       8       1       1       8       1       1       8
       1       1       8       1       1       8       1       1       8       1
       1       8       1       1       8       1       1       8       1       1
       8       1       1       8       1       1       8       1       1       8
       1       1       8       1       1       8       1       1       8       1
       1       8       1       1       8       1       1       8       1       1
       8       1       1       8       1       1       8       1       1       8
       1       1       8       1       1       8       1       1       8       1
       1       8       1       1       8       1       1       8       1       1
       8       1       1       8       1       1       8       1       1       8
       1       1       8       1       1       8       1       1       8       1
       1       8       1       1       8       1       1       8       1       1
       8       1       1       8       1       1       8       1       1       8
       1       1       8       1       1       8       1       1       8       1
       1       8       1       1       8       1       1       8       1       1
       8       1       1       8       1       1       8       1       1       8
       1       1       8       1       1       8       1       1       8       1
       1       8       1       1       8       1       1       8       1       1
       8       1       1       8       1       1       8       1       1       8
       1       1       8       1       1       8       1       1       8       1
       1       8       1       1       8       1       1       8       1       1
       8       1       1       8       1       1       8       1       1       8
       1       1       8       1       1       8       1       1       8       1
       1       8       1       1       8       1       1       8       1       1
       8       1       1       8       1       1       8       1       1       8
       1       1       8       1       1       8       1       1       8       1
       1       8       1       1       8       1       1       8       1       1
       8       1       1       8       1       1       8       1       1       8
       1       1       8       1       1       8       1       1       8       1
       1       8       1       1       8       1       1       8       1       1
       8       1       1       8       1       1       8       1       1       8
       1       1       8       1       1       8       1       1       8       1
       1       8       1       1       8       1       1       8       1       1
       8       1       1       8       1       1       8       1       1       8
       1       1       8       1       1       8       1       1       8       1
       1       8       1       1       8       1       1       8       1       1
       8       1       1       8       1       1       8       1       1       8
       1       1       8       1       1       8       1       1       8       1
       1       8       1       1       8       1       1       8       1       1
       8       1       1       8       1       1       8       1       1       8
       1       1       8       1       1       8       1       1       8       1
       1       8       1       1       8       1       1       8       1       1
       8       1       1       8       1       1       8       1       1       8
       1       1       8       1       1       8       1       1       8       1
       1       8       1       1       8       1       1       8       1       1
       8       1       1       8       1       1       8       1       1       8
       1       1       8       1       1       8       1       1       8       1
       1       8       1       1       8       1       1       8       1       1
       8       1       1       8       1       1       8       1       1       8
       1       1       8       1       1       8       1       1       8       1
       1       8       1       1       8       1       1       8       1       1
       8       1       1       8       1       1       8       1       1       8
       1       1       8       1       1       8       1       1       8       1
       1       8       1       1       8       1       1       8       1       1
       8       1       1       8       1       1       8       1       1       8
       1       1       8       1       1       8       1       1       8       1
       1       8       1       1       8       1       1       8       1       1
       8       1       1       8       1       1       8       1       1       8
       1       1       8       1       1       8       1       1       8       1
       1       8       1       1       8       1       1       8       1       1
       8       1       1       8       1       1       8       1       1       8
       1       1       8       1       1       8       1       1       8       1
       1       8       1       1       8       1       1       8       1       1
       8       1       1       8       1       1       8       1       1       8
       1       1       8       1       1       8       1       1       8       1
       1       8       1       1       8       1       1       8       1       1
       8       1       1       8       1       1       8       1       1       8
       1       1       8       1       1       8       1       1       8       1
       1       8       1       1       8       1       1       8       1       1
       8       1       1       8       1       1       8       1       1       8
       1       1       8       1       1       8       1       1       8       1
       1       8       1       1       8       1       1       8       1       1
       8       1       1       8       1       1       8       1       1       8
       1       1       8       1       1       8       1       1       8       1
       1       8       1       1       8       1       1       8       1       1
       8       1       1       8       1       1       8       1       1       8
       1       1       8       1       1       8       1       1       8       1
       1       8       1       1       8       1       1       8       1       1
       8       1       1       8       1       1       8       1       1       8
       1       1       8       1       1       8       1       1       8       1
       1       8       1       1       8       1       1       8       1       1
       8       1       1       8       1       1       8       1       1       8
       1       1       8       1       1       8       1       1       8       1
       1       8       1       1       8       1       1       8       1       1
       8       1       1       8       1       1       8       1       1       8
       1       1       8       1       1       8       1       1       8       1
       1       8       1       1       8       1       1       8       1       1
       8       1       1       8       1       1       8       1       1       8
       1       1       8       1       1       8       1       1       8       1
       1       8       1       1       8       1       1       8       1       1
       8       1       1       8       1       1       8       1       1       8
       1       1       8       1       1       8       1       1       8       1
       1       8       1       1       8       1       1       8       1       1
       8       1       1       8       1       1       8       1       1       8
       1       1       8       1       1       8       1       1       8       1
       1       8       1       1       8       1       1       8       1       1
       8       1       1       8       1       1       8       1       1       8
       1       1       8       1       1       8       1       1       8       1
       1       8       1       1       8       1       1       8       1       1
       8       1       1       8       1       1       8       1       1       8
       1       1       8       1       1       8       1       1       8       1
       1       8       1       1       8       1       1       8       1       1
       8       1       1       8       1       1       8       1       1       8
       1       1       8       1       1       8       1       1       8       1
       1       8       1       1       8       1       1       8       1       1
       8       1       1       8       1       1       8       1       1       8
       1       1       8       1       1       8       1       1       8       1
       1       8       1       1       8       1       1       8       1       1
       8       1       1       8       1       1       8       1       1       8
       1       1       8       1       1       8       1       1       8       1
       1       8       1       1       8       1       1       8       1       1
       8       1       1       8       1       1       8       1       1       8
       1       1       8       1       1       8       1       1       8       1
       1       8       1       1       8       1       1       8       1       1
       8       1       1       8       1       1       8       1       1       8
       1       1       8       1       1       8       1       1       8       1
       1       8       1       1       8       1       1       8       1       1
       8       1       1       8       1       1       8       1       1       8
       1       1       8       1       1       8       1       1       8       1
       1       8       1       1       8       1       1       8       1       1
       8       1       1       8       1       1       8       1       1       8
       1       1       8       1       1       8       1       1       8       1
       1       8       1       1       8       1       1       8       1       1
       8       1       1       8       1       1       8       1       1       8
       1       1       8       1       1       8       1       1       8       1
       1       8       1       1       8       1       1       8       1       1
       8       1       1       8       1       1       8       1       1       8
       1       1       8       1       1       8       1       1       8       1
       1       8       1       1       8       1       1       8       1       1
       8       1       1       8       1       1       8       1       1       8
       1       1       8       1       1       8       1       1       8       1
       1       8       1       1       8       1       1       8       1       1
       8       1       1       8       1       1       8       1       1       8
       1       1       8       1       1       8       1       1       8       1
       1       8       1       1       8       1       1       8       1       1
       8       1       1       8       1       1       8       1       1       8
       1       1       8       1       1       8       1       1       8       1
       1       8       1       1       8       1       1       8       1       1
       8       1       1       8       1       1       8       1       1       8
       1       1       8       1       1       8       1       1       8       1
       1       8       1       1       8       1       1       8       1       1
       8       1       1       8       1       1       8       1       1       8
       1       1       8       1       1       8       1       1       8       1
       1       8       1       1       8       1       1       8       1       1
       8       1       1       8       1       1       8       1       1       8
       1       1       8       1       1       8       1       1       8       1
       1       8       1       1       8       1       1       8       1       1
       8       1       1       8       1       1       8       1       1       8
       1       1       8       1       1       8       1       1       8       1
       1       8       1       1       8       1       1       8       1       1
       8       1       1       8       1       1       8       1       1       8
       1       1       8       1       1       8       1       1       8       1
       1       8       1       1       8       1       1       8       1       1
       8       1       1       8       1       1       8       1       1       8
       1       1       8       1       1       8       1       1       8       1
       1       8       1       1       8       1       1       8       1       1
       8       1       1       8       1       1       8       1       1       8
       1       1       8       1       1       8       1       1       8       1
       1       8       1       1       8       1       1       8       1       1
       8       1       1       8       1       1       8       1       1       8
       1       1       8       1       1       8       1       1       8       1
       1       8       1       1       8       1       1       8       1       1
       8       1       1       8       1       1       8       1       1       8
       1       1       8       1       1       8       1       1       8       1
       1       8       1       1       8       1       1       8       1       1
       8       1       1       8       1       1       8       1       1       8
       1       1       8       1       1       8       1       1       8       1
       1       8       1       1       8       1       1       8       1       1
       8       1       1       8       1       1       8       1       1       8
       1       1       8       1       1       8       1       1       8       1
       1       8       1       1       8       1       1       8       1       1
       8       1       1       8       1       1       8       1       1       8
       1       1       8       1       1       8       1       1       8       1
       1       8       1       1       8       1       1       8       1       1
       8       1       1       8       1       1       8       1       1       8
       1       1       8       1       1       8       1       1       8       1
       1       8       1       1       8       1       1       8       1       1
       8       1       1       8       1       1       8       1       1       8
       1       1       8       1       1       8       1       1       8       1
       1       8       1       1       8       1       1       8       1       1
       8       1       1       8       1       1       8       1       1       8
       1       1       8       1       1       8       1       1       8       1
       1       8       1       1       8       1       1       8       1       1
       8       1       1       8       1       1       8       1       1       8
       1       1       8       1       1       8       1       1       8       1
       1       8       1       1       8       1       1       8       1       1
       8       1       1       8       1       1       8       1       1       8
       1       1       8       1       1       8       1       1       8       1
       1       8       1       1       8       1       1       8       1       1
       8       1       1       8       1       1       8       1       1       8
       1       1       8       1       1       8       1       1       8       1
       1       8       1       1       8       1       1       8       1       1
       8       1       1       8       1       1       8       1       1       8
       1       1       8       1       1       8       1       1       8       1
       1       8       1       1       8       1       1       8       1       1
       8       1       1       8       1       1       8       1       1       8
       1       1       8       1       1       8       1       1       8       1
       1       8       1       1       8       1       1       8       1       1
       8       1       1       8       1       1       8       1       1       8
       1       1       8       1       1       8       1       1       8       1
       1       8       1       1       8       1       1       8       1       1
       8       1       1       8       1       1       8       1       1       8
       1       1       8       1       1       8       1       1       8       1
       1       8       1       1       8       1       1       8       1       1
       8       1       1       8       1       1       8       1       1       8
       1       1       8       1       1       8       1       1       8       1
       1       8       1       1       8       1       1       8       1       1
       8       1       1       8       1       1       8       1       1       8
       1       1       8       1       1       8       1       1       8       1
       1       8       1       1       8       1       1       8       1       1
       8       1       1       8       1       1       8       1       1       8
       1       1       8       1       1       8       1       1       8       1
       1       8       1       1       8       1       1       8       1       1
       8       1       1       8       1       1       8       1       1       8
       1       1       8       1       1       8       1       1       8       1
       1       8       1       1       8       1       1       8       1       1
       8       1       1       8       1       1       8       1       1       8
       1       1       8       1       1       8       1       1       8       1
       1       8       1       1       8       1       1       8       1       1
       8       1       1       8       1       1       8       1       1       8
       1       1       8       1       1       8       1       1       8       1
       1       8       1       1       8       1       1       8       1       1
       8       1       1       8       1       1       8       1       1       8
       1       1       8       1       1       8       1       1       8       1
       1       8       1       1       8       1       1       8       1       1
       8       1       1       8       1       1       8       1       1       8
       1       1       8       1       1       8       1       1       8       1
       1       8       1       1       8       1       1       8       1       1
       8       1       1       8       1       1       8       1       1       8
       1       1       8       1       1       8       1       1       8       1
       1       8       1       1       8       1       1       8       1       1
       8       1       1       8       1       1       8       1       1       8
       1       1       8       1       1       8       1       1       8       1
       1       8       1       1       8       1       1       8       1       1
       8       1       1       8       1       1       8       1       1       8
       1       1       8       1       1       8       1       1       8       1
       1       8       1       1       8       1       1       8       1       1
       8       1       1       8       1       1       8       1       1       8
       1       1       8       1       1       8       1       1       8       1
       1       8       1       1       8       1       1       8       1       1
       8       1       1       8       1       1       8       1       1       8
       1       1       8       1       1       8       1       1       8       1
       1       8       1       1       8       1       1       8       1       1
       8       1       1       8       1       1       8       1       1       8
       1       1       8       1       1       8       1       1       8       1
       1       8       1       1       8       1       1       8       1       1
       8       1       1       8       1       1       8       1       1       8
       1       1       8       1       1       8       1       1       8       1
       1       8       1       1       8       1       1       8       1       1
       8       1       1       8       1       1       8       1       1       8
       1       1       8       1       1       8       1       1       8       1
       1       8       1       1       8       1       1       8       1       1
       8       1       1       8       1       1       8       1       1       8
       1       1       8       1       1       8       1       1       8       1
       1       8       1       1       8       1       1       8       1       1
       8       1       1       8       1       1       8       1       1       8
       1       1       8       1       1       8       1       1       8       1
       1       8       1       1       8       1       1       8       1       1
       8       1       1       8       1       1       8       1       1       8
       1       1       8       1       1       8       1       1       8       1
       1       8       1       1       8       1       1       8       1       1
       8       1       1       8       1       1       8       1       1       8
       1       1       8       1       1       8       1       1       8       1
       1       8       1       1       8       1       1       8       1       1
       8       1       1       8       1       1       8       1       1       8
       1       1       8       1       1       8       1       1       8       1
       1       8       1       1       8       1       1       8       1       1
       8       1       1       8       1       1       8       1       1       8
       1       1       8       1       1       8       1       1       8       1
       1       8       1       1       8       1       1       8       1       1
       8       1       1       8       1       1       8       1       1       8
       1       1       8       1       1       8       1       1       8       1
       1       8       1       1       8       1       1       8       1       1
       8       1       1       8       1       1       8       1       1       8
       1       1       8       1       1       8       1       1       8       1
       1       8       1       1       8       1       1       8       1       1
       8       1       1       8       1       1       8       1       1       8
       1       1       8       1       1       8       1       1       8       1
       1       8       1       1       8       1       1       8       1       1
       8       1       1       8       1       1       8       1       1       8
       1       1       8       1       1       8       1       1       8       1
       1       8       1       1       8       1       1       8       1       1
       8       1       1       8       1       1       8       1       1       8
       1       1       8       1       1       8       1       1       8       1
       1       8       1       1       8       1       1       8       1       1
       8       1       1       8       1       1       8       1       1       8
       1       1       8       1       1       8       1       1       8       1
       1       8       1       1       8       1       1       8       1       1
       8       1       1       8       1       1       8       1       1       8
       1       1       8       1       1       8       1       1       8       1
       1       8       1       1       8       1       1       8       1       1
       8       1       1       8       1       1       8       1       1       8
       1       1       8       1       1       8       1       1       8       1
       1       8       1       1       8       1       1       8       1       1
       8       1       1       8       1       1       8       1       1       8
       1       1       8       1       1       8       1       1       8       1
       1       8       1       1       8       1       1       8       1       1
       8       1       1       8       1       1       8       1       1       8
       1       1       8       1       1       8       1       1       8       1
       1       8       1       1       8       1       1       8       1       1
       8       1       1       8       1       1       8       1       1       8
       1       1       8       1       1       8       1       1       8       1
       1       8       1       1       8       1       1       8       1       1
       8       1       1       8       1       1       8       1       1       8
       1       1       8       1       1       8       1       1       8       1
       1       8       1       1       8       1       1       8       1       1
       8       1       1       8       1       1       8       1       1       8
       1       1       8       1       1       8       1       1       8       1
       1       8       1       1       8       1       1       8       1       1
       8       1       1       8       1       1       8       1       1       8
       1       1       8       1       1       8       1       1       8       1
       1       8       1       1       8       1       1       8       1       1
       8       1       1       8       1       1       8       1       1       8
       1       1       8       1       1       8       1       1       8       1
       1       8       1       1       8       1       1       8       1       1
       8       1       1       8       1       1       8       1       1       8
       1       1       8       1       1       8       1       1       8       1
       1       8       1       1       8       1       1       8       1       1
       8       1       1       8       1       1       8       1       1       8
       1       1       8       1       1       8       1       1       8       1
       1       8       1       1       8       1       1       8       1       1
       8       1       1       8       1       1       8       1       1       8
       1       1       8       1       1       8       1       1       8       1
       1       8       1       1       8       1       1       8       1       1
       8       1       1       8       1       1       8       1       1       8
       1       1       8       1       1       8       1       1       8       1
       1       8       1       1       8       1       1       8       1       1
       8       1       1       8       1       1       8       1       1       8
       1       1       8       1       1       8       1       1       8       1
       1       8       1       1       8       1       1       8       1       1
       8       1       1       8       1       1       8       1       1       8
       1       1       8       1       1       8       1       1       8       1
       1       8       1       1       8       1       1       8       1       1
       8       1       1       8       1       1       8       1       1       8
       1       1       8       1       1       8       1       1       8       1
       1       8       1       1       8       1       1       8       1       1
       8       1       1       8       1       1       8       1       1       8
       1       1       8       1       1       8       1       1       8       1
       1       8       1       1       8       1       1       8       1       1
       8       1       1       8       1       1       8       1       1       8
       1       1       8       1       1       8       1       1       8       1
       1       8       1       1       8       1       1       8       1       1
       8       1       1       8       1       1       8       1       1       8
       1       1       8       1       1       8       1       1       8       1
       1       8       1       1       8       1       1       8       1       1
       8       1       1       8       1       1       8       1       1       8
       1       1       8       1       1       8       1       1       8       1
       1       8       1       1       8       1       1       8       1       1
       8       1       1       8       1       1       8       1       1       8
       1       1       8       1       1       8       1       1       8       1
       1       8       1       1       8       1       1       8       1       1
       8       1       1       8       1       1       8       1       1       8
       1       1       8       1       1       8       1       1       8       1
       1       8       1       1       8       1       1       8       1       1
       8       1       1       8       1       1       8       1       1       8
       1       1       8       1       1       8       1       1       8       1
       1       8       1       1       8       1       1       8       1       1
       8       1       1       8       1       1       8       1       1       8
       1       1       8       1       1       8       1       1       8       1
       1       8       1       1       8       1       1       8       1       1
       8       1       1       8       1       1       8       1       1       8
       1       1       8       1       1       8       1       1       8       1
       1       8       1       1       8       1       1       8       1       1
       8       1       1       8       1       1       8       1       1       8
       1       1       8       1       1       8       1       1       8       1
       1       8       1       1       8       1       1       8       1       1
       8       1       1       8       1       1       8       1       1       8
       1       1       8       1       1       8       1       1       8       1
       1       8       1       1       8       1       1       8       1       1
       8       1       1       8       1       1       8       1       1       8
       1       1       8       1       1       8       1       1       8       1
       1       8       1       1       8       1       1       8       1       1
       8       1       1       8       1       1       8       1       1       8
       1       1       8       1       1       8       1       1       8       1
       1       8       1       1       8       1       1       8       1       1
       8       1       1       8       1       1       8       1       1       8
       1       1       8       1       1       8       1       1       8       1
       1       8       1       1       8       1       1       8       1       1
       8       1       1       8       1       1       8       1       1       8
       1       1       8       1       1       8       1       1       8       1
       1       8       1       1       8       1       1       8       1       1
       8       1       1       8       1       1       8       1       1       8
       1       1       8       1       1       8       1       1       8       1
       1       8       1       1       8       1       1       8       1       1
       8       1       1       8       1       1       8       1       1       8
       1       1       8       1       1       8       1       1       8       1
       1       8       1       1       8       1       1       8       1       1
       8       1       1       8       1       1       8       1       1       8
       1       1       8       1       1       8       1       1       8       1
       1       8       1       1       8       1       1       8       1       1
       8       1       1       8       1       1       8       1       1       8
       1       1       8       1       1       8       1       1       8       1
       1       8       1       1       8       1       1       8       1       1
       8       1       1       8       1       1       8       1       1       8
       1       1       8       1       1       8       1       1       8       1
       1       8       1       1       8       1       1       8       1       1
       8       1       1       8       1       1       8       1       1       8
       1       1       8       1       1       8       1       1       8       1
       1       8       1       1       8       1       1       8       1       1
       8       1       1       8       1       1       8       1       1       8
       1       1       8       1       1       8       1       1       8       1
       1       8       1       1       8       1       1       8       1       1
       8       1       1       8       1       1       8       1       1       8
       1       1       8       1       1       8       1       1       8       1
       1       8       1       1       8       1       1       8       1       1
       8       1       1       8       1       1       8       1       1       8
       1       1       8       1       1       8       1       1       8       1
       1       8       1       1       8       1       1       8       1       1
       8       1       1       8       1       1       8       1       1       8
       1       1       8       1       1       8       1       1       8       1
       1       8       1       1       8       1       1       8       1       1
       8       1       1       8       1       1       8       1       1       8
       1       1       8       1       1       8       1       1       8       1
       1       8       1       1       8       1       1       8       1       1
       8       1       1       8       1       1       8       1       1       8
       1       1       8       1       1       8       1       1       8       1
       1       8       1       1       8       1       1       8       1       1
       8       1       1       8       1       1       8       1       1       8
       1       1       8       1       1       8       1       1       8       1
       1       8       1       1       8       1       1       8       1       1
       8       1       1       8       1       1       8       1       1       8
       1       1       8       1       1       8       1       1       8       1
       1       8       1       1       8       1       1       8       1       1
       8       1       1       8       1       1       8       1       1       8
       1       1       8       1       1       8       1       1       8       1
       1       8       1       1       8       1       1       8       1       1
       8       1       1       8       1       1       8       1       1       8
       1       1       8       1       1       8       1       1       8       1
       1       8       1       1       8       1       1       8       1       1
       8       1       1       8       1       1       8       1       1       8
       1       1       8       1       1       8       1       1       8       1
       1       8       1       1       8       1       1       8       1       1
       8       1       1       8       1       1       8       1       1       8
       1       1       8       1       1       8       1       1       8       1
       1       8       1       1       8       1       1       8       1       1
       8       1       1       8       1       1       8       1       1       8
       1       1       8       1       1       8       1       1       8       1
       1       8       1       1       8       1       1       8       1       1
       8       1       1       8       1       1       8       1       1       8
       1       1       8       1       1       8       1       1       8       1
       1       8       1       1       8       1       1       8       1       1
       8       1       1       8       1       1       8       1       1       8
       1       1       8       1       1       8       1       1       8       1
       1       8       1       1       8       1       1       8       1       1
       8       1       1       8       1       1       8       1       1       8
       1       1       8       1       1       8       1       1       8       1
       1       8       1       1       8       1       1       8       1       1
       8       1       1       8       1       1       8       1       1       8
       1       1       8       1       1       8       1       1       8       1
       1       8       1       1       8       1       1       8       1       1
       8       1       1       8       1       1       8       1       1       8
       1       1       8       1       1       8       1       1       8       1
       1       8       1       1       8       1       1       8       1       1
       8       1       1       8       1       1       8       1       1       8
       1       1       8       1       1       8       1       1       8       1
       1       8       1       1       8       1       1       8       1       1
       8       1       1       8       1       1       8       1       1       8
       1       1       8       1       1       8       1       1       8       1
       1       8       1       1       8       1       1       8       1       1
       8       1       1       8       1       1       8       1       1       8
       1       1       8       1       1       8       1       1       8       1
       1       8       1       1       8       1       1       8       1       1
       8       1       1       8       1       1       8       1       1       8
       1       1       8       1       1       8       1       1       8       1
       1       8       1       1       8       1       1       8       1       1
       8       1       1       8       1       1       8       1       1       8
       1       1       8       1       1       8       1       1       8       1
       1       8       1       1       8       1       1       8       1       1
       8       1       1       8       1       1       8       1       1       8
       1       1       8       1       1       8       1       1       8       1
       1       8       1       1       8       1       1       8       1       1
       8       1       1       8       1       1       8       1       1       8
       1       1       8       1       1       8       1       1       8       1
       1       8       1       1       8       1       1       8       1       1
       8       1       1       8       1       1       8       1       1       8
       1       1       8       1       1       8       1       1       8       1
       1       8       1       1       8       1       1       8       1       1
       8       1       1       8       1       1       8       1       1       8
       1       1       8       1       1       8       1       1       8       1
       1       8       1       1       8       1       1       8       1       1
       8       1       1       8       1       1       8       1       1       8
       1       1       8       1       1       8       1       1       8       1
       1       8       1       1       8       1       1       8       1       1
       8       1       1       8       1       1       8       1       1       8
       1       1       8       1       1       8       1       1       8       1
       1       8       1       1       8       1       1       8       1       1
       8       1       1       8       1       1       8       1       1       8
       1       1       8       1       1       8       1       1       8       1
       1       8       1       1       8       1       1       8       1       1
       8       1       1       8       1       1       8       1       1       8
       1       1       8       1       1       8       1       1       8       1
       1       8       1       1       8       1       1       8       1       1
       8       1       1       8       1       1       8       1       1       8
       1       1       8       1       1       8       1       1       8       1
       1       8       1       1       8       1       1       8       1       1
       8       1       1       8       1       1       8       1       1       8
       1       1       8       1       1       8       1       1       8       1
       1       8       1       1       8       1       1       8       1       1
       8       1       1       8       1       1       8       1       1       8
       1       1       8       1       1       8       1       1       8       1
       1       8       1       1       8       1       1       8       1       1
       8       1       1       8       1       1       8       1       1       8
       1       1       8       1       1       8       1       1       8       1
       1       8       1       1       8       1       1       8       1       1
       8       1       1       8       1       1       8       1       1       8
       1       1       8       1       1       8       1       1       8       1
       1       8       1       1       8       1       1       8       1       1
       8       1       1       8       1       1       8       1       1       8
       1       1       8       1       1       8       1       1       8       1
       1       8       1       1       8       1       1       8       1       1
       8       1       1       8       1       1       8       1       1       8
       1       1       8       1       1       8       1       1       8       1
       1       8       1       1       8       1       1       8       1       1
       8       1       1       8       1       1       8       1       1       8
       1       1       8       1       1       8       1       1       8       1
       1       8       1       1       8       1       1       8       1       1
       8       1       1       8       1       1       8       1       1       8
       1       1       8       1       1       8       1       1       8       1
       1       8       1       1       8       1       1       8       1       1
       8       1       1       8       1       1       8       1       1       8
       1       1       8       1       1       8       1       1       8       1
       1       8       1       1       8       1       1       8       1       1
       8       1       1       8       1       1       8       1       1       8
       1       1       8       1       1       8       1       1       8       1
       1       8       1       1       8       1       1       8       1       1
       8       1       1       8       1       1       8       1       1       8
       1       1       8       1       1       8       1       1       8       1
       1       8       1       1       8       1       1       8       1       1
       8       1       1       8       1       1       8       1       1       8
       1       1       8       1       1       8       1       1       8       1
       1       8       1       1       8       1       1       8       1       1
       8       1       1       8       1       1       8       1       1       8
       1       1       8       1       1       8       1       1       8       1
       1       8       1       1       8       1       1       8       1       1
       8       1       1       8       1       1       8       1       1       8
       1       1       8       1       1       8       1       1       8       1
       1       8       1       1       8       1       1       8       1       1
       8       1       1       8       1       1       8       1       1       8
       1       1       8       1       1       8       1       1       8       1
       1       8       1       1       8       1       1       8       1       1
       8       1       1       8       1       1       8       1       1       8
       1       1       8       1       1       8       1       1       8       1
       1       8       1       1       8       1       1       8       1       1
       8       1       1       8       1       1       8       1       1       8
       1       1       8       1       1       8       1       1       8       1
       1       8       1       1       8       1       1       8       1       1
       8       1       1       8       1       1       8       1       1       8
       1       1       8       1       1       8       1       1       8       1
       1       8       1       1       8       1       1       8       1       1
       8       1       1       8       1       1       8       1       1       8
       1       1       8       1       1       8       1       1       8       1
       1       8       1       1       8       1       1       8       1       1
       8       1       1       8       1       1       8       1       1       8
       1       1       8       1       1       8       1       1       8       1
       1       8       1       1       8       1       1       8       1       1
       8       1       1       8       1       1       8       1       1       8
       1       1       8       1       1       8       1       1       8       1
       1       8       1       1       8       1       1       8       1       1
       8       1       1       8       1       1       8       1       1       8
       1       1       8       1       1       8       1       1       8       1
       1       8       1       1       8       1       1       8       1       1
       8       1       1       8       1       1       8       1       1       8
       1       1       8       1       1       8       1       1       8       1
       1       8       1       1       8       1       1       8       1       1
       8       1       1       8       1       1       8       1       1       8
       1       1       8       1       1       8       1       1       8       1
       1       8       1       1       8       1       1       8       1       1
       8       1       1       8       1       1       8       1       1       8
       1       1       8       1       1       8       1       1       8       1
       1       8       1       1       8       1       1       8       1       1
       8       1       1       8       1       1       8       1       1       8
       1       1       8       1       1       8       1       1       8       1
       1       8       1       1       8       1       1       8       1       1
       8       1       1       8       1       1       8       1       1       8
       1       1       8       1       1       8       1       1       8       1
       1       8       1       1       8       1       1       8       1       1
       8       1       1       8       1       1       8       1       1       8
       1       1       8       1       1       8       1       1       8       1
       1       8       1       1       8       1       1       8       1       1
       8       1       1       8       1       1       8       1       1       8
       1       1       8       1       1       8       1       1       8       1
       1       8       1       1       8       1       1       8       1       1
       8       1       1       8       1       1       8       1       1       8
       1       1       8       1       1       8       1       1       8       1
       1       8       1       1       8       1       1       8       1       1
       8       1       1       8       1       1       8       1       1       8
       1       1       8       1       1       8       1       1       8       1
       1       8       1       1       8       1       1       8       1       1
       8       1       1       8       1       1       8       1       1       8
       1       1       8       1       1       8       1       1       8       1
       1       8       1       1       8       1       1       8       1       1
       8       1       1       8       1       1       8       1       1       8
       1       1       8       1       1       8       1       1       8       1
       1       8       1       1       8       1       1       8       1       1
       8       1       1       8       1       1       8       1       1       8
       1       1       8       1       1       8       1       1       8       1
       1       8       1       1       8       1       1       8       1       1
       8       1       1       8       1       1       8       1       1       8
       1       1       8       1       1       8       1       1       8       1
       1       8       1       1       8       1       1       8       1       1
       8       1       1       8       1       1       8       1       1       8
       1       1       8       1       1       8       1       1       8       1
       1       8       1       1       8       1       1       8       1       1
       8       1       1       8       1       1       8       1       1       8
       1       1       8       1       1       8       1       1       8       1
       1       8       1       1       8       1       1       8       1       1
       8       1       1       8       1       1       8       1       1       8
       1       1       8       1       1       8       1       1       8       1
       1       8       1       1       8       1       1       8       1       1
       8       1       1       8       1       1       8       1       1       8
       1       1       8       1       1       8       1       1       8       1
       1       8       1       1       8       1       1       8       1       1
       8       1       1       8       1       1       8       1       1       8
       1       1       8       1       1       8       1       1       8       1
       1       8       1       1       8       1       1       8       1       1
       8       1       1       8       1       1       8       1       1       8
       1       1       8       1       1       8       1       1       8       1
       1       8       1       1       8       1       1       8       1       1
       8       1       1       8       1       1       8       1       1       8
       1       1       8       1       1       8       1       1       8       1
       1       8       1       1       8       1       1       8       1       1
       8       1       1       8       1       1       8       1       1       8
       1       1       8       1       1       8       1       1       8       1
       1       8       1       1       8       1       1       8       1       1
       8       1       1       8       1       1       8       1       1       8
       1       1       8       1       1       8       1       1       8       1
       1       8       1       1       8       1       1       8       1       1
       8       1       1       8       1       1       8       1       1       8
       1       1       8       1       1       8       1       1       8       1
       1       8       1       1       8       1       1       8       1       1
       8       1       1       8       1       1       8       1       1       8
       1       1       8       1       1       8       1       1       8       1
       1       8       1       1       8       1       1       8       1       1
       8       1       1       8       1       1       8       1       1       8
       1       1       8       1       1       8       1       1       8       1
       1       8       1       1       8       1       1       8       1       1
       8       1       1       8       1       1       8       1       1       8
       1       1       8       1       1       8       1       1       8       1
       1       8       1       1       8       1       1       8       1       1
       8       1       1       8       1       1       8       1       1       8
       1       1       8       1       1       8       1       1       8       1
       1       8       1       1       8       1       1       8       1       1
       8       1       1       8       1       1       8       1       1       8
       1       1       8       1       1       8       1       1       8       1
       1       8       1       1       8       1       1       8       1       1
       8       1       1       8       1       1       8       1       1       8
       1       1       8       1       1       8       1       1       8       1
       1       8       1       1       8       1       1       8       1       1
       8       1       1       8       1       1       8       1       1       8
       1       1       8       1       1       8       1       1       8       1
       1       8       1       1       8       1       1       8       1       1
       8       1       1       8       1       1       8       1       1       8
       1       1       8       1       1       8       1       1       8       1
       1       8       1       1       8       1       1       8       1       1
       8       1       1       8       1       1       8       1       1       8
       1       1       8       1       1       8       1       1       8       1
       1       8       1       1       8       1       1       8       1       1
       8       1       1       8       1       1       8       1       1       8
       1       1       8       1       1       8       1       1       8       1
       1       8       1       1       8       1       1       8       1       1
       8       1       1       8       1       1       8       1       1       8
       1       1       8       1       1       8       1       1       8       1
       1       8       1       1       8       1       1       8       1       1
       8       1       1       8       1       1       8       1       1       8
       1       1       8       1       1       8       1       1       8       1
       1       8       1       1       8       1       1       8       1       1
       8       1       1       8       1       1       8       1       1       8
       1       1       8       1       1       8       1       1       8       1
       1       8       1       1       8       1       1       8       1       1
       8       1       1       8       1       1       8       1       1       8
       1       1       8       1       1       8       1       1       8       1
       1       8       1       1       8       1       1       8       1       1
       8       1       1       8       1       1       8       1       1       8
       1       1       8       1       1       8       1       1       8       1
       1       8       1       1       8       1       1       8       1       1
       8       1       1       8       1       1       8       1       1       8
       1       1       8       1       1       8       1       1       8       1
       1       8       1       1       8       1       1       8       1       1
       8       1       1       8       1       1       8       1       1       8
       1       1       8       1       1       8       1       1       8       1
       1       8       1       1       8       1       1       8       1       1
       8       1       1       8       1       1       8       1       1       8
       1       1       8       1       1       8       1       1       8       1
       1       8       1       1       8       1       1       8       1       1
       8       1       1       8       1       1       8       1       1       8
       1       1       8       1       1       8       1       1       8       1
       1       8       1       1       8       1       1       8       1       1
       8       1       1       8       1       1       8       1       1       8
       1       1       8       1       1       8       1       1       8       1
       1       8       1       1       8       1       1       8       1       1
       8       1       1       8       1       1       8       1       1       8
       1       1       8       1       1       8       1       1       8       1
       1       8       1       1       8       1       1       8       1       1
       8       1       1       8       1       1       8       1       1       8
       1       1       8       1       1       8       1       1       8       1
       1       8       1       1       8       1       1       8       1       1
       8       1       1       8       1       1       8       1       1       8
       1       1       8       1       1       8       1       1       8       1
       1       8       1       1       8       1       1       8       1       1
       8       1       1       8       1       1       8       1       1       8
       1       1       8       1       1       8       1       1       8       1
       1       8       1       1       8       1       1       8       1       1
       8       1       1       8       1       1       8       1       1       8
       1       1       8       1       1       8       1       1       8       1
       1       8       1       1       8       1       1       8       1       1
       8       1       1       8       1       1       8       1       1       8
       1       1       8       1       1       8       1       1       8       1
       1       8       1       1       8       1       1       8       1       1
       8       1       1       8       1       1       8       1       1       8
       1       1       8       1       1       8       1       1       8       1
       1       8       1       1       8       1       1       8       1       1
       8       1       1       8       1       1       8       1       1       8
       1       1       8       1       1       8       1       1       8       1
       1       8       1       1       8       1       1       8       1       1
       8       1       1       8       1       1       8       1       1       8
       1       1       8       1       1       8       1       1       8       1
       1       8       1       1       8       1       1       8       1       1
       8       1       1       8       1       1       8       1       1       8
       1       1       8       1       1       8       1       1       8       1
       1       8       1       1       8       1       1       8       1       1
       8       1       1       8       1       1       8       1       1       8
       1       1       8       1       1       8       1       1       8       1
       1       8       1       1       8       1       1       8       1       1
       8       1       1       8       1       1       8       1       1       8
       1       1       8       1       1       8       1       1       8       1
       1       8       1       1       8       1       1       8       1       1
       8       1       1       8       1       1       8       1       1       8
       1       1       8       1       1       8       1       1       8       1
       1       8       1       1       8       1       1       8       1       1
       8       1       1       8       1       1       8       1       1       8
       1       1       8       1       1       8       1       1       8       1
       1       8       1       1       8       1       1       8       1       1
       8       1       1       8       1       1       8       1       1       8
       1       1       8       1       1       8       1       1       8       1
       1       8       1       1       8       1       1       8       1       1
       8       1       1       8       1       1       8       1       1       8
       1       1       8       1       1       8       1       1       8       1
       1       8       1       1       8       1       1       8       1       1
       8       1       1       8       1       1       8       1       1       8
       1       1       8       1       1       8       1       1       8       1
       1       8       1       1       8       1       1       8       1       1
       8       1       1       8       1       1       8       1       1       8
       1       1       8       1       1       8       1       1       8       1
       1       8       1       1       8       1       1       8       1       1
       8       1       1       8       1       1       8       1       1       8
       1       1       8       1       1       8       1       1       8       1
       1       8       1       1       8       1       1       8       1       1
       8       1       1       8       1       1       8       1       1       8
       1       1       8       1       1       8       1       1       8       1
       1       8       1       1       8       1       1       8       1       1
       8       1       1       8       1       1       8       1       1       8
       1       1       8       1       1       8       1       1       8       1
       1       8       1       1       8       1       1       8       1       1
       8       1       1       8       1       1       8       1       1       8
       1       1       8       1       1       8       1       1       8       1
       1       8       1       1       8       1       1       8       1       1
       8       1       1       8       1       1       8       1       1       8
       1       1       8       1       1       8       1       1       8       1
       1       8       1       1       8       1       1       8       1       1
       8       1       1       8       1       1       8       1       1       8
       1       1       8       1       1       8       1       1       8       1
       1       8       1       1       8       1       1       8       1       1
       8       1       1       8       1       1       8       1       1       8
       1       1       8       1       1       8       1       1       8       1
       1       8       1       1       8       1       1       8       1       1
       8       1       1       8       1       1       8       1       1       8
       1       1       8       1       1       8       1       1       8       1
       1       8       1       1       8       1       1       8       1       1
       8       1       1       8       1       1       8       1       1       8
       1       1       8       1       1       8       1       1       8       1
       1       8       1       1       8       1       1       8       1       1
       8       1       1       8       1       1       8       1       1       8
       1       1       8       1       1       8       1       1       8       1
       1       8       1       1       8       1       1       8       1       1
       8       1       1       8       1       1       8       1       1       8
       1       1       8       1       1       8       1       1       8       1
       1       8       1       1       8       1       1       8       1       1
       8       1       1       8       1       1       8       1       1       8
       1       1       8       1       1       8       1       1       8       1
       1       8       1       1       8       1       1       8       1       1
       8       1       1       8       1       1       8       1       1       8
       1       1       8       1       1       8       1       1       8       1
       1       8       1       1       8       1       1       8       1       1
       8       1       1       8       1       1       8       1       1       8
       1       1       8       1       1       8       1       1       8       1
       1       8       1       1       8       1       1       8       1       1
       8       1       1       8       1       1       8       1       1       8
       1       1       8       1       1       8       1       1       8       1
       1       8       1       1       8       1       1       8       1       1
       8       1       1       8       1       1       8       1       1       8
       1       1       8       1       1       8       1       1       8       1
       1       8       1       1       8       1       1       8       1       1
       8       1       1       8       1       1       8       1       1       8
       1       1       8       1       1       8       1       1       8       1
       1       8       1       1       8       1       1       8       1       1
       8       1       1       8       1       1       8       1       1       8
       1       1       8       1       1       8       1       1       8       1
       1       8       1       1       8       1       1       8       1       1
       8       1       1       8       1       1       8       1       1       8
       1       1       8       1       1       8       1       1       8       1
       1       8       1       1       8       1       1       8       1       1
       8       1       1       8       1       1       8       1       1       8
       1       1       8       1       1       8       1       1       8       1
       1       8       1       1       8       1       1       8       1       1
       8       1       1       8       1       1       8       1       1       8
       1       1       8       1       1       8       1       1       8       1
       1       8       1       1       8       1       1       8       1       1
       8       1       1       8       1       1       8       1       1       8
       1       1       8       1       1       8       1       1       8       1
       1       8       1       1       8       1       1       8       1       1
       8       1       1       8       1       1       8       1       1       8
       1       1       8       1       1       8       1       1       8       1
       1       8       1       1       8       1       1       8       1       1
       8       1       1       8       1       1       8       1       1       8
       1       1       8       1       1       8       1       1       8       1
       1       8       1       1       8       1       1       8       1       1
       8       1       1       8       1       1       8       1       1       8
       1       1       8       1       1       8       1       1       8       1
       1       8       1       1       8       1       1       8       1       1
       8       1       1       8       1       1       8       1       1       8
       1       1       8       1       1       8       1       1       8       1
       1       8       1       1       8       1       1       8       1       1
       8       1       1       8       1       1       8       1       1       8
       1       1       8       1       1       8       1       1       8       1
       1       8       1       1       8       1       1       8       1       1
       8       1       1       8       1       1       8       1       1       8
       1       1       8       1       1       8       1       1       8       1
       1       8       1       1       8       1       1       8       1       1
       8       1       1       8       1       1       8       1       1       8
       1       1       8       1       1       8       1       1       8       1
       1       8       1       1       8       1       1       8       1       1
       8       1       1       8       1       1       8       1       1       8
       1       1       8       1       1       8       1       1       8       1
       1       8       1       1       8       1       1       8       1       1
       8       1       1       8       1       1       8       1       1       8
       1       1       8       1       1       8       1       1       8       1
       1       8       1       1       8       1       1       8       1       1
       8       1       1       8       1       1       8       1       1       8
       1       1       8       1       1       8       1       1       8       1
       1       8       1       1       8       1       1       8       1       1
       8       1       1       8       1       1       8       1       1       8
       1       1       8       1       1       8       1       1       8       1
       1       8       1       1       8       1       1       8       1       1
       8       1       1       8       1       1       8       1       1       8
       1       1       8       1       1       8       1       1       8       1
       1       8       1       1       8       1       1       8       1       1
       8       1       1       8       1       1       8       1       1       8
       1       1       8       1       1       8       1       1       8       1
       1       8       1       1       8       1       1       8       1       1
       8       1       1       8       1       1       8       1       1       8
       1       1       8       1       1       8       1       1       8       1
       1       8       1       1       8       1       1       8       1       1
       8       1       1       8       1       1       8       1       1       8
       1       1       8       1       1       8       1       1       8       1
       1       8       1       1       8       1       1       8       1       1
       8       1       1       8       1       1       8       1       1       8
       1       1       8       1       1       8       1       1       8       1
       1       8       1       1       8       1       1       8       1       1
       8       1       1       8       1       1       8       1       1       8
       1       1       8       1       1       8       1       1       8       1
       1       8       1       1       8       1       1       8       1       1
       8       1       1       8       1       1       8       1       1       8
       1       1       8       1       1       8       1       1       8       1
       1       8       1       1       8       1       1       8       1       1
       8       1       1       8       1       1       8       1       1       8
       1       1       8       1       1       8       1       1       8       1
       1       8       1       1       8       1       1       8       1       1
       8       1       1       8       1       1       8       1       1       8
       1       1       8       1       1       8       1       1       8       1
       1       8       1       1       8       1       1       8       1       1
       8       1       1       8       1       1       8       1       1       8
       1       1       8       1       1       8       1       1       8       1
       1       8       1       1       8       1       1       8       1       1
       8       1       1       8       1       1       8       1       1       8
       1       1       8       1       1       8       1       1       8       1
       1       8       1       1       8       1       1       8       1       1
       8       1       1       8       1       1       8       1       1       8
       1       1       8       1       1       8       1       1       8       1
       1       8       1       1       8       1       1       8       1       1
       8       1       1       8       1       1       8       1       1       8
       1       1       8       1       1       8       1       1       8       1
       1       8       1       1       8       1       1       8       1       1
       8       1       1       8       1       1       8       1       1       8
       1       1       8       1       1       8       1       1       8       1
       1       8       1       1       8       1       1       8       1       1
       8       1       1       8       1       1       8       1       1       8
       1       1       8       1       1       8       1       1       8       1
       1       8       1       1       8       1       1       8       1       1
       8       1       1       8       1       1       8       1       1       8
       1       1       8       1       1       8       1       1       8       1
       1       8       1       1       8       1       1       8       1       1
       8       1       1       8       1       1       8       1       1       8
       1       1       8       1       1       8       1       1       8       1
       1       8       1       1       8       1       1       8       1       1
       8       1       1       8       1       1       8       1       1       8
       1       1       8       1       1       8       1       1       8       1
       1       8       1       1       8       1       1       8       1       1
       8       1       1       8       1       1       8       1       1       8
       1       1       8       1       1       8       1       1       8       1
       1       8       1       1       8       1       1       8       1       1
       8       1       1       8       1       1       8       1       1       8
       1       1       8       1       1       8       1       1       8       1
       1       8       1       1       8       1       1       8       1       1
       8       1       1       8       1       1       8       1       1       8
       1       1       8       1       1       8       1       1       8       1
       1       8       1       1       8       1       1       8       1       1
       8       1       1       8       1       1       8       1       1       8
       1       1       8       1       1       8       1       1       8       1
       1       8       1       1       8       1       1       8       1       1
       8       1       1       8       1       1       8       1       1       8
       1       1       8       1       1       8       1       1       8       1
       1       8       1       1       8       1       1       8       1       1
       8       1       1       8       1       1       8       1       1       8
       1       1       8       1       1       8       1       1       8       1
       1       8       1       1       8       1       1       8       1       1
       8       1       1       8       1       1       8       1       1       8
       1       1       8       1       1       8       1       1       8       1
       1       8       1       1       8       1       1       8       1       1
       8       1       1       8       1       1       8       1       1       8
       1       1       8       1       1       8       1       1       8       1
       1       8       1       1       8       1       1       8       1       1
       8       1       1       8       1       1       8       1       1       8
       1       1       8       1       1       8       1       1       8       1
       1       8       1       1       8       1       1       8       1       1
       8       1       1       8       1       1       8       1       1       8
       1       1       8       1       1       8       1       1       8       1
       1       8       1       1       8       1       1       8       1       1
       8       1       1       8       1       1       8       1       1       8
       1       1       8       1       1       8       1       1       8       1
       1       8       1       1       8       1       1       8       1       1
       8       1       1       8       1       1       8       1       1       8
       1       1       8       1       1       8       1       1       8       1
       1       8       1       1       8       1       1       8       1       1
       8       1       1       8       1       1       8       1       1       8
       1       1       8       1       1       8       1       1       8       1
       1       8       1       1       8       1       1       8       1       1
       8       1       1       8       1       1       8       1       1       8
       1       1       8       1       1       8       1       1       8       1
       1       8       1       1       8       1       1       8       1       1
       8       1       1       8       1       1       8       1       1       8
       1       1       8       1       1       8       1       1       8       1
       1       8       1       1       8       1       1       8       1       1
       8       1       1       8       1       1       8       1       1       8
       1       1       8       1       1       8       1       1       8       1
       1       8       1       1       8       1       1       8       1       1
       8       1       1       8       1       1       8       1       1       8
       1       1       8       1       1       8       1       1       8       1
       1       8       1       1       8       1       1       8       1       1
       8       1       1       8       1       1       8       1       1       8
       1       1       8       1       1       8       1       1       8       1
       1       8       1       1       8       1       1       8       1       1
       8       1       1       8       1       1       8       1       1       8
       1       1       8       1       1       8       1       1       8       1
       1       8       1       1       8       1       1       8       1       1
       8       1       1       8       1       1       8       1       1       8
       1       1       8       1       1       8       1       1       8       1
       1       8       1       1       8       1       1       8       1       1
       8       1       1       8       1       1       8       1       1       8
       1       1       8       1       1       8       1       1       8       1
       1       8       1       1       8       1       1       8       1       1
       8       1       1       8       1       1       8       1       1       8
       1       1       8       1       1       8       1       1       8       1
       1       8       1       1       8       1       1       8       1       1
       8       1       1       8       1       1       8       1       1       8
       1       1       8       1       1       8       1       1       8       1
       1       8       1       1       8       1       1       8       1       1
       8       1       1       8       1       1       8       1       1       8
       1       1       8       1       1       8       1       1       8       1
       1       8       1       1       8       1       1       8       1       1
       8       1       1       8       1       1       8       1       1       8
       1       1       8       1       1       8       1       1       8       1
       1       8       1       1       8       1       1       8       1       1
       8       1       1       8       1       1       8       1       1       8
       1       1       8       1       1       8       1       1       8       1
       1       8       1       1       8       1       1       8       1       1
       8       1       1       8       1       1       8       1       1       8
       1       1       8       1       1       8       1       1       8       1
       1       8       1       1       8       1       1       8       1       1
       8       1       1       8       1       1       8       1       1       8
       1       1       8       1       1       8       1       1       8       1
       1       8       1       1       8       1       1       8       1       1
       8       1       1       8       1       1       8       1       1       8
       1       1       8       1       1       8       1       1       8       1
       1       8       1       1       8       1       1       8       1       1
       8       1       1       8       1       1       8       1       1       8
       1       1       8       1       1       8       1       1       8       1
       1       8       1       1       8       1       1       8       1       1
       8       1       1       8       1       1       8       1       1       8
       1       1       8       1       1       8       1       1       8       1
       1       8       1       1       8       1       1       8       1       1
       8       1       1       8       1       1       8       1       1       8
       1       1       8       1       1       8       1       1       8       1
       1       8       1       1       8       1       1       8       1       1
       8       1       1       8       1       1       8       1       1       8
       1       1       8       1       1       8       1       1       8       1
       1       8       1       1       8       1       1       8       1       1
       8       1       1       8       1       1       8       1       1       8
       1       1       8       1       1       8       1       1       8       1
       1       8       1       1       8       1       1       8       1       1
       8       1       1       8       1       1       8       1       1       8
       1       1       8       1       1       8       1       1       8       1
       1       8       1       1       8       1       1       8       1       1
       8       1       1       8       1       1       8       1       1       8
       1       1       8       1       1       8       1       1       8       1
       1       8       1       1       8       1       1       8       1       1
       8       1       1       8       1       1       8       1       1       8
       1       1       8       1       1       8       1       1       8       1
       1       8       1       1       8       1       1       8       1       1
       8       1       1       8       1       1       8       1       1       8
       1       1       8       1       1       8       1       1       8       1
       1       8       1       1       8       1       1       8       1       1
       8       1       1       8       1       1       8       1       1       8
       1       1       8       1       1       8       1       1       8       1
       1       8       1       1       8       1       1       8       1       1
       8       1       1       8       1       1       8       1       1       8
       1       1       8       1       1       8       1       1       8       1
       1       8       1       1       8       1       1       8       1       1
       8       1       1       8       1       1       8       1       1       8
       1       1       8       1       1       8       1       1       8       1
       1       8       1       1       8       1       1       8       1       1
       8       1       1       8       1       1       8       1       1       8
       1       1       8       1       1       8       1       1       8       1
       1       8       1       1       8       1       1       8       1       1
       8       1       1       8       1       1       8       1       1       8
       1       1       8       1       1       8       1       1       8       1
       1       8       1       1       8       1       1       8       1       1
       8       1       1       8       1       1       8       1       1       8
       1       1       8       1       1       8       1       1       8       1
       1       8       1       1       8       1       1       8       1       1
       8       1       1       8       1       1       8       1       1       8
       1       1       8       1       1       8       1       1       8       1
       1       8       1       1       8       1       1       8       1       1
       8       1       1       8       1       1       8       1       1       8
       1       1       8       1       1       8       1       1       8       1
       1       8       1       1       8       1       1       8       1       1
       8       1       1       8       1       1       8       1       1       8
       1       1       8       1       1       8       1       1       8       1
       1       8       1       1       8       1       1       8       1       1
       8       1       1       8       1       1       8       1       1       8
       1       1       8       1       1       8       1       1       8       1
       1       8       1       1       8       1       1       8       1       1
       8       1       1       8       1       1       8       1       1       8
       1       1       8       1       1       8       1       1       8       1
       1       8       1       1       8       1       1       8       1       1
       8       1       1       8       1       1       8       1       1       8
       1       1       8       1       1       8       1       1       8       1
       1       8       1       1       8       1       1       8       1       1
       8       1       1       8       1       1       8       1       1       8
       1       1       8       1       1       8       1       1       8       1
       1       8       1       1       8       1       1       8       1       1
       8       1       1       8       1       1       8       1       1       8
       1       1       8       1       1       8       1       1       8       1
       1       8       1       1       8       1       1       8       1       1
       8       1       1       8       1       1       8       1       1       8
       1       1       8       1       1       8       1       1       8       1
       1       8       1       1       8       1       1       8       1       1
       8       1       1       8       1       1       8       1       1       8
       1       1       8       1       1       8       1       1       8       1
       1       8       1       1       8       1       1       8       1       1
       8       1       1       8       1       1       8       1       1       8
       1       1       8       1       1       8       1       1       8       1
       1       8       1       1       8       1       1       8       1       1
       8       1       1       8       1       1       8       1       1       8
       1       1       8       1       1       8       1       1       8       1
       1       8       1       1       8       1       1       8       1       1
       8       1       1       8       1       1       8       1       1       8
       1       1       8       1       1       8       1       1       8       1
       1       8       1       1       8       1       1       8       1       1
       8       1       1       8       1       1       8       1       1       8
       1       1       8       1       1       8       1       1       8       1
       1       8       1       1       8       1       1       8       1       1
       8       1       1       8       1       1       8       1       1       8
       1       1       8       1       1       8       1       1       8       1
       1       8       1       1       8       1       1       8       1       1
       8       1       1       8       1       1       8       1       1       8
       1       1       8       1       1       8       1       1       8       1
       1       8       1       1       8       1       1       8       1       1
       8       1       1       8       1       1       8       1       1       8
       1       1       8       1       1       8       1       1       8       1
       1       8       1       1       8       1       1       8       1       1
       8       1       1       8       1       1       8       1       1       8
       1       1       8       1       1       8       1       1       8       1
       1       8       1       1       8       1       1       8       1       1
       8       1       1       8       1       1       8       1       1       8
       1       1       8       1       1       8       1       1       8       1
       1       8       1       1       8       1       1       8       1       1
       8       1       1       8       1       1       8       1       1       8
       1       1       8       1       1       8       1       1       8       1
       1       8       1       1       8       1       1       8       1       1
       8       1       1       8       1       1       8       1       1       8
       1       1       8       1       1       8       1       1       8       1
       1       8       1       1       8       1       1       8       1       1
       8       1       1       8       1       1       8       1       1       8
       1       1       8       1       1       8       1       1       8       1
       1       8       1       1       8       1       1       8       1       1
       8       1       1       8       1       1       8       1       1       8
       1       1       8       1       1       8       1       1       8       1
       1       8       1       1       8       1       1       8       1       1
       8       1       1       8       1       1       8       1       1       8
       1       1       8       1       1       8       1       1       8       1
       1       8       1       1       8       1       1       8       1       1
       8       1       1       8       1       1       8       1       1       8
       1       1       8       1       1       8       1       1       8       1
       1       8       1       1       8       1       1       8       1       1
       8       1       1       8       1       1       8       1       1       8
       1       1       8       1       1       8       1       1       8       1
       1       8       1       1       8       1       1       8       1       1
       8       1       1       8       1       1       8       1       1       8
       1       1       8       1       1       8       1       1       8       1
       1       8       1       1       8       1       1       8       1       1
       8       1       1       8       1       1       8       1       1       8
       1       1       8       1       1       8       1       1       8       1
       1       8       1       1       8       1       1       8       1       1
       8       1       1       8       1       1       8       1       1       8
       1       1       8       1       1       8       1       1       8       1
       1       8       1       1       8       1       1       8       1       1
       8       1       1       8       1       1       8       1       1       8
       1       1       8       1       1       8       1       1       8       1
       1       8       1       1       8       1       1       8       1       1
       8       1       1       8       1       1       8       1       1       8
       1       1       8       1       1       8       1       1       8       1
       1       8       1       1       8       1       1       8       1       1
       8       1       1       8       1       1       8       1       1       8
       1       1       8       1       1       8       1       1       8       1
       1       8       1       1       8       1       1       8       1       1
       8       1       1       8       1       1       8       1       1       8
       1       1       8       1       1       8       1       1       8       1
       1       8       1       1       8       1       1       8       1       1
       8       1       1       8       1       1       8       1       1       8
       1       1       8       1       1       8       1       1       8       1
       1       8       1       1       8       1       1       8       1       1
       8       1       1       8       1       1       8       1       1       8
       1       1       8       1       1       8       1       1       8       1
       1       8       1       1       8       1       1       8       1       1
       8       1       1       8       1       1       8       1       1       8
       1       1       8       1       1       8       1       1       8       1
       1       8       1       1       8       1       1       8       1       1
       8       1       1       8       1       1       8       1       1       8
       1       1       8       1       1       8       1       1       8       1
       1       8       1       1       8       1       1       8       1       1
       8       1       1       8       1       1       8       1       1       8
       1       1       8       1       1       8       1       1       8       1
       1       8       1       1       8       1       1       8       1       1
       8       1       1       8       1       1       8       1       1       8
       1       1       8       1       1       8       1       1       8       1
       1       8       1       1       8       1       1       8       1       1
       8       1       1       8       1       1       8       1       1       8
       1       1       8       1       1       8       1       1       8       1
       1       8       1       1       8       1       1       8       1       1
       8       1       1       8       1       1       8       1       1       8
       1       1       8       1       1       8       1       1       8       1
       1       8       1       1       8       1       1       8       1       1
       8       1       1       8       1       1       8       1       1       8
       1       1       8       1       1       8       1       1       8       1
       1       8       1       1       8       1       1       8       1       1
       8       1       1       8       1       1       8       1       1       8
       1       1       8       1       1       8       1       1       8       1
       1       8       1       1       8       1       1       8       1       1
       8       1       1       8       1       1       8       1       1       8
       1       1       8       1       1       8       1       1       8       1
       1       8       1       1       8       1       1       8       1       1
       8       1       1       8       1       1       8       1       1       8
       1       1       8       1       1       8       1       1       8       1
       1       8       1       1       8       1       1       8       1       1
       8       1       1       8       1       1       8       1       1       8
       1       1       8       1       1       8       1       1       8       1
       1       8       1       1       8       1       1       8       1       1
       8       1       1       8       1       1       8       1       1       8
       1       1       8       1       1       8       1       1       8       1
       1       8       1       1       8       1       1       8       1       1
       8       1       1       8       1       1       8       1       1       8
       1       1       8       1       1       8       1       1       8       1
       1       8       1       1       8       1       1       8       1       1
       8       1       1       8       1       1       8       1       1       8
       1       1       8       1       1       8       1       1       8       1
       1       8       1       1       8       1       1       8       1       1
       8       1       1       8       1       1       8       1       1       8
       1       1       8       1       1       8       1       1       8       1
       1       8       1       1       8       1       1       8       1       1
       8       1       1       8       1       1       8       1       1       8
       1       1       8       1       1       8       1       1       8       1
       1       8       1       1       8       1       1       8       1       1
       8       1       1       8       1       1       8       1       1       8
       1       1       8       1       1       8       1       1       8       1
       1       8       1       1       8       1       1       8       1       1
       8       1       1       8       1       1       8       1       1       8
       1       1       8       1       1       8       1       1       8       1
       1       8       1       1       8       1       1       8       1       1
       8       1       1       8       1       1       8       1       1       8
       1       1       8       1       1       8       1       1       8       1
       1       8       1       1       8       1       1       8       1       1
       8       1       1       8       1       1       8       1       1       8
       1       1       8       1       1       8       1       1       8       1
       1       8       1       1       8       1       1       8       1       1
       8       1       1       8       1       1       8       1       1       8
       1       1       8       1       1       8       1       1       8       1
       1       8       1       1       8       1       1       8       1       1
%FLAG MASS
%FORMAT(5E16.8)
  1.40100000E+01  1.00800000E+00  1.00800000E+00  1.00800000E+00  1.20100000E+01
  1.00800000E+00  1.00800000E+00  1.20100000E+01  1.60000000E+01  1.40100000E+01
  1.00800000E+00  1.20100000E+01  1.00800000E+00  1.20100000E+01  1.00800000E+00
  1.20100000E+01  1.00800000E+00  1.00800000E+00  1.00800000E+00  1.20100000E+01
  1.00800000E+00  1.00800000E+00  1.20100000E+01  1.00800000E+00  1.00800000E+00
  1.00800000E+00  1.20100000E+01  1.60000000E+01  1.40100000E+01  1.00800000E+00
  1.20100000E+01  1.00800000E+00  1.20100000E+01  1.00800000E+00  1.20100000E+01
  1.00800000E+00  1.00800000E+00  1.00800000E+00  1.20100000E+01  1.00800000E+00
  1.00800000E+00  1.00800000E+00  1.20100000E+01  1.60000000E+01  1.40100000E+01
  1.00800000E+00  1.20100000E+01  1.00800000E+00  1.20100000E+01  1.00800000E+00
  1.00800000E+00  1.20100000E+01  1.00800000E+00  1.00800000E+00  1.20100000E+01
  1.60000000E+01  1.60000000E+01  1.00800000E+00  1.20100000E+01  1.60000000E+01
  1.00800000E+00  1.00800000E+00  1.00800000E+00  1.40100000E+01  1.00800000E+00
  1.20100000E+01  1.00800000E+00  1.20100000E+01  1.00800000E+00  1.00800000E+00
  1.20100000E+01  1.00800000E+00  1.00800000E+00  1.20100000E+01  1.60000000E+01
  1.40100000E+01  1.00800000E+00  1.00800000E+00  1.20100000E+01  1.60000000E+01
  1.40100000E+01  1.00800000E+00  1.20100000E+01  1.00800000E+00  1.20100000E+01
  1.00800000E+00  1.00800000E+00  3.20600000E+01  1.20100000E+01  1.60000000E+01
  1.40100000E+01  1.00800000E+00  1.20100000E+01  1.00800000E+00  1.20100000E+01
  1.00800000E+00  1.00800000E+00  3.20600000E+01  1.20100000E+01  1.60000000E+01
  1.40100000E+01  1.00800000E+00  1.20100000E+01  1.00800000E+00  1.20100000E+01
  1.00800000E+00  1.20100000E+01  1.00800000E+00  1.00800000E+00  1.00800000E+00
  1.60000000E+01  1.00800000E+00  1.20100000E+01  1.60000000E+01  1.40100000E+01
  1.00800000E+00  1.20100000E+01  1.00800000E+00  1.20100000E+01  1.00800000E+00
  1.00800000E+00  1.60000000E+01  1.00800000E+00  1.20100000E+01  1.60000000E+01
  1.40100000E+01  1.00800000E+00  1.20100000E+01  1.00800000E+00  1.20100000E+01
  1.00800000E+00  1.20100000E+01  1.00800000E+00  1.00800000E+00  1.00800000E+00
  1.20100000E+01  1.00800000E+00  1.00800000E+00  1.20100000E+01  1.00800000E+00
  1.00800000E+00  1.00800000E+00  1.20100000E+01  1.60000000E+01  1.40100000E+01
  1.00800000E+00  1.20100000E+01  1.00800000E+00  1.20100000E+01  1.00800000E+00
  1.00800000E+00  3.20600000E+01  1.20100000E+01  1.60000000E+01  1.40100000E+01
  1.00800000E+00  1.20100000E+01  1.00800000E+00  1.20100000E+01  1.00800000E+00
  1.00800000E+00  1.60000000E+01  1.00800000E+00  1.20100000E+01  1.60000000E+01
  1.40100000E+01  1.00800000E+00  1.20100000E+01  1.00800000E+00  1.20100000E+01
  1.00800000E+00  1.00800000E+00  1.20100000E+01  1.00800000E+00  1.20100000E+01
  1.00800000E+00  1.00800000E+00  1.00800000E+00  1.20100000E+01  1.00800000E+00
  1.00800000E+00  1.00800000E+00  1.20100000E+01  1.60000000E+01  1.40100000E+01
  1.00800000E+00  1.20100000E+01  1.00800000E+00  1.20100000E+01  1.00800000E+00
  1.00800000E+00  1.20100000E+01  1.20100000E+01  1.00800000E+00  1.20100000E+01
  1.00800000E+00  1.20100000E+01  1.60000000E+01  1.00800000E+00  1.20100000E+01
  1.00800000E+00  1.20100000E+01  1.00800000E+00  1.20100000E+01  1.60000000E+01
  1.40100000E+01  1.00800000E+00  1.20100000E+01  1.00800000E+00  1.20100000E+01
  1.00800000E+00  1.00800000E+00  1.20100000E+01  1.00800000E+00  1.00800000E+00
  1.20100000E+01  1.60000000E+01  1.40100000E+01  1.00800000E+00  1.00800000E+00
  1.20100000E+01  1.60000000E+01  1.40100000E+01  1.00800000E+00  1.20100000E+01
  1.00800000E+00  1.20100000E+01  1.00800000E+00  1.00800000E+00  1.20100000E+01
  1.00800000E+00  1.20100000E+01  1.00800000E+00  1.00800000E+00  1.00800000E+00
  1.20100000E+01  1.00800000E+00  1.00800000E+00  1.00800000E+00  1.20100000E+01
  1.60000000E+01  1.40100000E+01  1.00800000E+00  1.20100000E+01  1.00800000E+00
  1.20100000E+01  1.00800000E+00  1.00800000E+00  1.20100000E+01  1.00800000E+00
  1.00800000E+00  1.20100000E+01  1.60000000E+01  1.60000000E+01  1.00800000E+00
  1.20100000E+01  1.60000000E+01  1.00800000E+00  1.00800000E+00  1.00800000E+00
  1.40100000E+01  1.00800000E+00  1.20100000E+01  1.00800000E+00  1.20100000E+01
  1.00800000E+00  1.00800000E+00  1.20100000E+01  1.60000000E+01  1.40100000E+01
  1.00800000E+00  1.00800000E+00  1.20100000E+01  1.60000000E+01  1.40100000E+01
  1.00800000E+00  1.20100000E+01  1.00800000E+00  1.20100000E+01  1.00800000E+00
  1.00800000E+00  1.20100000E+01  1.20100000E+01  1.00800000E+00  1.20100000E+01
  1.00800000E+00  1.20100000E+01  1.60000000E+01  1.00800000E+00  1.20100000E+01
  1.00800000E+00  1.20100000E+01  1.00800000E+00  1.20100000E+01  1.60000000E+01
  1.40100000E+01  1.00800000E+00  1.20100000E+01  1.00800000E+00  1.20100000E+01
  1.00800000E+00  1.00800000E+00  3.20600000E+01  1.20100000E+01  1.60000000E+01
  1.40100000E+01  1.00800000E+00  1.20100000E+01  1.00800000E+00  1.20100000E+01
  1.00800000E+00  1.00800000E+00  1.20100000E+01  1.60000000E+01  1.40100000E+01
  1.00800000E+00  1.00800000E+00  1.20100000E+01  1.60000000E+01  1.60000000E+01
  1.40100000E+01  1.00800000E+00  1.00800000E+00  1.00800000E+00  1.20100000E+01
  1.00800000E+00  1.20100000E+01  1.00800000E+00  1.00800000E+00  1.20100000E+01
  1.20100000E+01  1.00800000E+00  1.20100000E+01  1.00800000E+00  1.20100000E+01
  1.00800000E+00  1.20100000E+01  1.00800000E+00  1.20100000E+01  1.00800000E+00
  1.20100000E+01  1.60000000E+01  1.40100000E+01  1.00800000E+00  1.20100000E+01
  1.00800000E+00  1.20100000E+01  1.00800000E+00  1.20100000E+01  1.00800000E+00
  1.00800000E+00  1.00800000E+00  1.20100000E+01  1.00800000E+00  1.00800000E+00
  1.00800000E+00  1.20100000E+01  1.60000000E+01  1.40100000E+01  1.00800000E+00
  1.20100000E+01  1.00800000E+00  1.20100000E+01  1.00800000E+00  1.00800000E+00
  1.20100000E+01  1.60000000E+01  1.40100000E+01  1.00800000E+00  1.00800000E+00
  1.20100000E+01  1.60000000E+01  1.40100000E+01  1.00800000E+00  1.20100000E+01
  1.00800000E+00  1.20100000E+01  1.00800000E+00  1.00800000E+00  1.20100000E+01
  1.00800000E+00  1.00800000E+00  1.20100000E+01  1.60000000E+01  1.40100000E+01
  1.00800000E+00  1.00800000E+00  1.20100000E+01  1.60000000E+01  1.40100000E+01
  1.00800000E+00  1.20100000E+01  1.00800000E+00  1.20100000E+01  1.00800000E+00
  1.00800000E+00  1.20100000E+01  1.40100000E+01  1.00800000E+00  1.20100000E+01
  1.00800000E+00  1.40100000E+01  1.00800000E+00  1.20100000E+01  1.00800000E+00
  1.20100000E+01  1.60000000E+01  1.40100000E+01  1.00800000E+00  1.20100000E+01
  1.00800000E+00  1.20100000E+01  1.00800000E+00  1.00800000E+00  1.20100000E+01
  1.00800000E+00  1.20100000E+01  1.00800000E+00  1.00800000E+00  1.00800000E+00
  1.20100000E+01  1.00800000E+00  1.00800000E+00  1.00800000E+00  1.20100000E+01
  1.60000000E+01  1.40100000E+01  1.00800000E+00  1.20100000E+01  1.00800000E+00
  1.20100000E+01  1.00800000E+00  1.00800000E+00  3.20600000E+01  1.20100000E+01
  1.60000000E+01  1.40100000E+01  1.00800000E+00  1.20100000E+01  1.00800000E+00
  1.00800000E+00  1.20100000E+01  1.60000000E+01  1.40100000E+01  1.00800000E+00
  1.20100000E+01  1.00800000E+00  1.20100000E+01  1.00800000E+00  1.00800000E+00
  1.60000000E+01  1.00800000E+00  1.20100000E+01  1.60000000E+01  1.40100000E+01
  1.00800000E+00  1.20100000E+01  1.00800000E+00  1.20100000E+01  1.00800000E+00
  1.00800000E+00  1.20100000E+01  1.40100000E+01  1.00800000E+00  1.20100000E+01
  1.00800000E+00  1.40100000E+01  1.00800000E+00  1.20100000E+01  1.00800000E+00
  1.20100000E+01  1.60000000E+01  1.40100000E+01  1.00800000E+00  1.20100000E+01
  1.00800000E+00  1.20100000E+01  1.00800000E+00  1.00800000E+00  1.20100000E+01
  1.00800000E+00  1.20100000E+01  1.00800000E+00  1.00800000E+00  1.00800000E+00
  1.20100000E+01  1.00800000E+00  1.00800000E+00  1.00800000E+00  1.20100000E+01
  1.60000000E+01  1.40100000E+01  1.00800000E+00  1.20100000E+01  1.00800000E+00
  1.20100000E+01  1.00800000E+00  1.20100000E+01  1.00800000E+00  1.00800000E+00
  1.00800000E+00  1.20100000E+01  1.00800000E+00  1.00800000E+00  1.00800000E+00
  1.20100000E+01  1.60000000E+01  1.40100000E+01  1.00800000E+00  1.20100000E+01
  1.00800000E+00  1.20100000E+01  1.00800000E+00  1.00800000E+00  1.20100000E+01
  1.00800000E+00  1.00800000E+00  1.20100000E+01  1.60000000E+01  1.60000000E+01
  1.00800000E+00  1.20100000E+01  1.60000000E+01  1.00800000E+00  1.00800000E+00
  1.00800000E+00  1.40100000E+01  1.00800000E+00  1.20100000E+01  1.00800000E+00
  1.20100000E+01  1.00800000E+00  1.00800000E+00  1.00800000E+00  1.20100000E+01
  1.60000000E+01  1.40100000E+01  1.00800000E+00  1.20100000E+01  1.00800000E+00
  1.20100000E+01  1.00800000E+00  1.00800000E+00  1.20100000E+01  1.00800000E+00
  1.20100000E+01  1.00800000E+00  1.00800000E+00  1.00800000E+00  1.20100000E+01
  1.00800000E+00  1.00800000E+00  1.00800000E+00  1.20100000E+01  1.60000000E+01
  1.40100000E+01  1.00800000E+00  1.20100000E+01  1.00800000E+00  1.20100000E+01
  1.00800000E+00  1.00800000E+00  1.20100000E+01  1.20100000E+01  1.00800000E+00
  1.20100000E+01  1.00800000E+00  1.20100000E+01  1.60000000E+01  1.00800000E+00
  1.20100000E+01  1.00800000E+00  1.20100000E+01  1.00800000E+00  1.20100000E+01
  1.60000000E+01  1.40100000E+01  1.00800000E+00  1.20100000E+01  1.00800000E+00
  1.20100000E+01  1.00800000E+00  1.00800000E+00  1.20100000E+01  1.00800000E+00
  1.20100000E+01  1.00800000E+00  1.00800000E+00  1.00800000E+00  1.20100000E+01
  1.00800000E+00  1.00800000E+00  1.00800000E+00  1.20100000E+01  1.60000000E+01
  1.40100000E+01  1.00800000E+00  1.20100000E+01  1.00800000E+00  1.20100000E+01
  1.00800000E+00  1.20100000E+01  1.00800000E+00  1.00800000E+00  1.00800000E+00
  1.20100000E+01  1.00800000E+00  1.00800000E+00  1.00800000E+00  1.20100000E+01
  1.60000000E+01  1.40100000E+01  1.00800000E+00  1.20100000E+01  1.00800000E+00
  1.20100000E+01  1.00800000E+00  1.00800000E+00  3.20600000E+01  1.20100000E+01
  1.60000000E+01  1.40100000E+01  1.00800000E+00  1.20100000E+01  1.00800000E+00
  1.00800000E+00  1.20100000E+01  1.60000000E+01  1.40100000E+01  1.00800000E+00
  1.20100000E+01  1.00800000E+00  1.20100000E+01  1.00800000E+00  1.00800000E+00
  1.20100000E+01  1.00800000E+00  1.00800000E+00  1.20100000E+01  1.60000000E+01
  1.60000000E+01  1.00800000E+00  1.20100000E+01  1.60000000E+01  1.00800000E+00
  1.00800000E+00  1.00800000E+00  1.40100000E+01  1.00800000E+00  1.20100000E+01
  1.00800000E+00  1.20100000E+01  1.00800000E+00  1.00800000E+00  1.20100000E+01
  1.00800000E+00  1.00800000E+00  1.20100000E+01  1.00800000E+00  1.00800000E+00
  1.40100000E+01  1.00800000E+00  1.20100000E+01  1.40100000E+01  1.00800000E+00
  1.00800000E+00  1.40100000E+01  1.00800000E+00  1.00800000E+00  1.20100000E+01
  1.60000000E+01  1.40100000E+01  1.00800000E+00  1.20100000E+01  1.00800000E+00
  1.00800000E+00  1.20100000E+01  1.60000000E+01  1.40100000E+01  1.00800000E+00
  1.20100000E+01  1.00800000E+00  1.20100000E+01  1.00800000E+00  1.00800000E+00
  1.20100000E+01  1.20100000E+01  1.00800000E+00  1.20100000E+01  1.00800000E+00
  1.20100000E+01  1.00800000E+00  1.20100000E+01  1.00800000E+00  1.20100000E+01
  1.00800000E+00  1.20100000E+01  1.60000000E+01  1.40100000E+01  1.00800000E+00
  1.20100000E+01  1.00800000E+00  1.20100000E+01  1.00800000E+00  1.00800000E+00
  1.20100000E+01  1.20100000E+01  1.00800000E+00  1.20100000E+01  1.00800000E+00
  1.20100000E+01  1.00800000E+00  1.20100000E+01  1.00800000E+00  1.20100000E+01
  1.00800000E+00  1.20100000E+01  1.60000000E+01  1.40100000E+01  1.00800000E+00
  1.20100000E+01  1.00800000E+00  1.20100000E+01  1.00800000E+00  1.00800000E+00
  1.20100000E+01  1.20100000E+01  1.00800000E+00  1.20100000E+01  1.00800000E+00
  1.20100000E+01  1.60000000E+01  1.00800000E+00  1.20100000E+01  1.00800000E+00
  1.20100000E+01  1.00800000E+00  1.20100000E+01  1.60000000E+01  1.40100000E+01
  1.00800000E+00  1.20100000E+01  1.00800000E+00  1.20100000E+01  1.00800000E+00
  1.20100000E+01  1.00800000E+00  1.00800000E+00  1.00800000E+00  1.60000000E+01
  1.00800000E+00  1.20100000E+01  1.60000000E+01  1.40100000E+01  1.20100000E+01
  1.00800000E+00  1.00800000E+00  1.20100000E+01  1.00800000E+00  1.00800000E+00
  1.20100000E+01  1.00800000E+00  1.00800000E+00  1.20100000E+01  1.00800000E+00
  1.20100000E+01  1.60000000E+01  1.40100000E+01  1.00800000E+00  1.20100000E+01
  1.00800000E+00  1.20100000E+01  1.00800000E+00  1.00800000E+00  1.20100000E+01
  1.00800000E+00  1.00800000E+00  1.20100000E+01  1.00800000E+00  1.00800000E+00
  1.20100000E+01  1.00800000E+00  1.00800000E+00  1.40100000E+01  1.00800000E+00
  1.00800000E+00  1.00800000E+00  1.20100000E+01  1.60000000E+01  1.40100000E+01
  1.00800000E+00  1.20100000E+01  1.00800000E+00  1.20100000E+01  1.00800000E+00
  1.00800000E+00  1.00800000E+00  1.20100000E+01  1.60000000E+01  1.60000000E+01
  1.60000000E+01  1.00800000E+00  1.00800000E+00  1.60000000E+01  1.00800000E+00
  1.00800000E+00  1.60000000E+01  1.00800000E+00  1.00800000E+00  1.60000000E+01
  1.00800000E+00  1.00800000E+00  1.60000000E+01  1.00800000E+00  1.00800000E+00
  1.60000000E+01  1.00800000E+00  1.00800000E+00  1.60000000E+01  1.00800000E+00
  1.00800000E+00  1.60000000E+01  1.00800000E+00  1.00800000E+00  1.60000000E+01
  1.00800000E+00  1.00800000E+00  1.60000000E+01  1.00800000E+00  1.00800000E+00
  1.60000000E+01  1.00800000E+00  1.00800000E+00  1.60000000E+01  1.00800000E+00
  1.00800000E+00  1.60000000E+01  1.00800000E+00  1.00800000E+00  1.60000000E+01
  1.00800000E+00  1.00800000E+00  1.60000000E+01  1.00800000E+00  1.00800000E+00
  1.60000000E+01  1.00800000E+00  1.00800000E+00  1.60000000E+01  1.00800000E+00
  1.00800000E+00  1.60000000E+01  1.00800000E+00  1.00800000E+00  1.60000000E+01
  1.00800000E+00  1.00800000E+00  1.60000000E+01  1.00800000E+00  1.00800000E+00
  1.60000000E+01  1.00800000E+00  1.00800000E+00  1.60000000E+01  1.00800000E+00
  1.00800000E+00  1.60000000E+01  1.00800000E+00  1.00800000E+00  1.60000000E+01
  1.00800000E+00  1.00800000E+00  1.60000000E+01  1.00800000E+00  1.00800000E+00
  1.60000000E+01  1.00800000E+00  1.00800000E+00  1.60000000E+01  1.00800000E+00
  1.00800000E+00  1.60000000E+01  1.00800000E+00  1.00800000E+00  1.60000000E+01
  1.00800000E+00  1.00800000E+00  1.60000000E+01  1.00800000E+00  1.00800000E+00
  1.60000000E+01  1.00800000E+00  1.00800000E+00  1.60000000E+01  1.00800000E+00
  1.00800000E+00  1.60000000E+01  1.00800000E+00  1.00800000E+00  1.60000000E+01
  1.00800000E+00  1.00800000E+00  1.60000000E+01  1.00800000E+00  1.00800000E+00
  1.60000000E+01  1.00800000E+00  1.00800000E+00  1.60000000E+01  1.00800000E+00
  1.00800000E+00  1.60000000E+01  1.00800000E+00  1.00800000E+00  1.60000000E+01
  1.00800000E+00  1.00800000E+00  1.60000000E+01  1.00800000E+00  1.00800000E+00
  1.60000000E+01  1.00800000E+00  1.00800000E+00  1.60000000E+01  1.00800000E+00
  1.00800000E+00  1.60000000E+01  1.00800000E+00  1.00800000E+00  1.60000000E+01
  1.00800000E+00  1.00800000E+00  1.60000000E+01  1.00800000E+00  1.00800000E+00
  1.60000000E+01  1.00800000E+00  1.00800000E+00  1.60000000E+01  1.00800000E+00
  1.00800000E+00  1.60000000E+01  1.00800000E+00  1.00800000E+00  1.60000000E+01
  1.00800000E+00  1.00800000E+00  1.60000000E+01  1.00800000E+00  1.00800000E+00
  1.60000000E+01  1.00800000E+00  1.00800000E+00  1.60000000E+01  1.00800000E+00
  1.00800000E+00  1.60000000E+01  1.00800000E+00  1.00800000E+00  1.60000000E+01
  1.00800000E+00  1.00800000E+00  1.60000000E+01  1.00800000E+00  1.00800000E+00
  1.60000000E+01  1.00800000E+00  1.00800000E+00  1.60000000E+01  1.00800000E+00
  1.00800000E+00  1.60000000E+01  1.00800000E+00  1.00800000E+00  1.60000000E+01
  1.00800000E+00  1.00800000E+00  1.60000000E+01  1.00800000E+00  1.00800000E+00
  1.60000000E+01  1.00800000E+00  1.00800000E+00  1.60000000E+01  1.00800000E+00
  1.00800000E+00  1.60000000E+01  1.00800000E+00  1.00800000E+00  1.60000000E+01
  1.00800000E+00  1.00800000E+00  1.60000000E+01  1.00800000E+00  1.00800000E+00
  1.60000000E+01  1.00800000E+00  1.00800000E+00  1.60000000E+01  1.00800000E+00
  1.00800000E+00  1.60000000E+01  1.00800000E+00  1.00800000E+00  1.60000000E+01
  1.00800000E+00  1.00800000E+00  1.60000000E+01  1.00800000E+00  1.00800000E+00
  1.60000000E+01  1.00800000E+00  1.00800000E+00  1.60000000E+01  1.00800000E+00
  1.00800000E+00  1.60000000E+01  1.00800000E+00  1.00800000E+00  1.60000000E+01
  1.00800000E+00  1.00800000E+00  1.60000000E+01  1.00800000E+00  1.00800000E+00
  1.60000000E+01  1.00800000E+00  1.00800000E+00  1.60000000E+01  1.00800000E+00
  1.00800000E+00  1.60000000E+01  1.00800000E+00  1.00800000E+00  1.60000000E+01
  1.00800000E+00  1.00800000E+00  1.60000000E+01  1.00800000E+00  1.00800000E+00
  1.60000000E+01  1.00800000E+00  1.00800000E+00  1.60000000E+01  1.00800000E+00
  1.00800000E+00  1.60000000E+01  1.00800000E+00  1.00800000E+00  1.60000000E+01
  1.00800000E+00  1.00800000E+00  1.60000000E+01  1.00800000E+00  1.00800000E+00
  1.60000000E+01  1.00800000E+00  1.00800000E+00  1.60000000E+01  1.00800000E+00
  1.00800000E+00  1.60000000E+01  1.00800000E+00  1.00800000E+00  1.60000000E+01
  1.00800000E+00  1.00800000E+00  1.60000000E+01  1.00800000E+00  1.00800000E+00
  1.60000000E+01  1.00800000E+00  1.00800000E+00  1.60000000E+01  1.00800000E+00
  1.00800000E+00  1.60000000E+01  1.00800000E+00  1.00800000E+00  1.60000000E+01
  1.00800000E+00  1.00800000E+00  1.60000000E+01  1.00800000E+00  1.00800000E+00
  1.60000000E+01  1.00800000E+00  1.00800000E+00  1.60000000E+01  1.00800000E+00
  1.00800000E+00  1.60000000E+01  1.00800000E+00  1.00800000E+00  1.60000000E+01
  1.00800000E+00  1.00800000E+00  1.60000000E+01  1.00800000E+00  1.00800000E+00
  1.60000000E+01  1.00800000E+00  1.00800000E+00  1.60000000E+01  1.00800000E+00
  1.00800000E+00  1.60000000E+01  1.00800000E+00  1.00800000E+00  1.60000000E+01
  1.00800000E+00  1.00800000E+00  1.60000000E+01  1.00800000E+00  1.00800000E+00
  1.60000000E+01  1.00800000E+00  1.00800000E+00  1.60000000E+01  1.00800000E+00
  1.00800000E+00  1.60000000E+01  1.00800000E+00  1.00800000E+00  1.60000000E+01
  1.00800000E+00  1.00800000E+00  1.60000000E+01  1.00800000E+00  1.00800000E+00
  1.60000000E+01  1.00800000E+00  1.00800000E+00  1.60000000E+01  1.00800000E+00
  1.00800000E+00  1.60000000E+01  1.00800000E+00  1.00800000E+00  1.60000000E+01
  1.00800000E+00  1.00800000E+00  1.60000000E+01  1.00800000E+00  1.00800000E+00
  1.60000000E+01  1.00800000E+00  1.00800000E+00  1.60000000E+01  1.00800000E+00
  1.00800000E+00  1.60000000E+01  1.00800000E+00  1.00800000E+00  1.60000000E+01
  1.00800000E+00  1.00800000E+00  1.60000000E+01  1.00800000E+00  1.00800000E+00
  1.60000000E+01  1.00800000E+00  1.00800000E+00  1.60000000E+01  1.00800000E+00
  1.00800000E+00  1.60000000E+01  1.00800000E+00  1.00800000E+00  1.60000000E+01
  1.00800000E+00  1.00800000E+00  1.60000000E+01  1.00800000E+00  1.00800000E+00
  1.60000000E+01  1.00800000E+00  1.00800000E+00  1.60000000E+01  1.00800000E+00
  1.00800000E+00  1.60000000E+01  1.00800000E+00  1.00800000E+00  1.60000000E+01
  1.00800000E+00  1.00800000E+00  1.60000000E+01  1.00800000E+00  1.00800000E+00
  1.60000000E+01  1.00800000E+00  1.00800000E+00  1.60000000E+01  1.00800000E+00
  1.00800000E+00  1.60000000E+01  1.00800000E+00  1.00800000E+00  1.60000000E+01
  1.00800000E+00  1.00800000E+00  1.60000000E+01  1.00800000E+00  1.00800000E+00
  1.60000000E+01  1.00800000E+00  1.00800000E+00  1.60000000E+01  1.00800000E+00
  1.00800000E+00  1.60000000E+01  1.00800000E+00  1.00800000E+00  1.60000000E+01
  1.00800000E+00  1.00800000E+00  1.60000000E+01  1.00800000E+00  1.00800000E+00
  1.60000000E+01  1.00800000E+00  1.00800000E+00  1.60000000E+01  1.00800000E+00
  1.00800000E+00  1.60000000E+01  1.00800000E+00  1.00800000E+00  1.60000000E+01
  1.00800000E+00  1.00800000E+00  1.60000000E+01  1.00800000E+00  1.00800000E+00
  1.60000000E+01  1.00800000E+00  1.00800000E+00  1.60000000E+01  1.00800000E+00
  1.00800000E+00  1.60000000E+01  1.00800000E+00  1.00800000E+00  1.60000000E+01
  1.00800000E+00  1.00800000E+00  1.60000000E+01  1.00800000E+00  1.00800000E+00
  1.60000000E+01  1.00800000E+00  1.00800000E+00  1.60000000E+01  1.00800000E+00
  1.00800000E+00  1.60000000E+01  1.00800000E+00  1.00800000E+00  1.60000000E+01
  1.00800000E+00  1.00800000E+00  1.60000000E+01  1.00800000E+00  1.00800000E+00
  1.60000000E+01  1.00800000E+00  1.00800000E+00  1.60000000E+01  1.00800000E+00
  1.00800000E+00  1.60000000E+01  1.00800000E+00  1.00800000E+00  1.60000000E+01
  1.00800000E+00  1.00800000E+00  1.60000000E+01  1.00800000E+00  1.00800000E+00
  1.60000000E+01  1.00800000E+00  1.00800000E+00  1.60000000E+01  1.00800000E+00
  1.00800000E+00  1.60000000E+01  1.00800000E+00  1.00800000E+00  1.60000000E+01
  1.00800000E+00  1.00800000E+00  1.60000000E+01  1.00800000E+00  1.00800000E+00
  1.60000000E+01  1.00800000E+00  1.00800000E+00  1.60000000E+01  1.00800000E+00
  1.00800000E+00  1.60000000E+01  1.00800000E+00  1.00800000E+00  1.60000000E+01
  1.00800000E+00  1.00800000E+00  1.60000000E+01  1.00800000E+00  1.00800000E+00
  1.60000000E+01  1.00800000E+00  1.00800000E+00  1.60000000E+01  1.00800000E+00
  1.00800000E+00  1.60000000E+01  1.00800000E+00  1.00800000E+00  1.60000000E+01
  1.00800000E+00  1.00800000E+00  1.60000000E+01  1.00800000E+00  1.00800000E+00
  1.60000000E+01  1.00800000E+00  1.00800000E+00  1.60000000E+01  1.00800000E+00
  1.00800000E+00  1.60000000E+01  1.00800000E+00  1.00800000E+00  1.60000000E+01
  1.00800000E+00  1.00800000E+00  1.60000000E+01  1.00800000E+00  1.00800000E+00
  1.60000000E+01  1.00800000E+00  1.00800000E+00  1.60000000E+01  1.00800000E+00
  1.00800000E+00  1.60000000E+01  1.00800000E+00  1.00800000E+00  1.60000000E+01
  1.00800000E+00  1.00800000E+00  1.60000000E+01  1.00800000E+00  1.00800000E+00
  1.60000000E+01  1.00800000E+00  1.00800000E+00  1.60000000E+01  1.00800000E+00
  1.00800000E+00  1.60000000E+01  1.00800000E+00  1.00800000E+00  1.60000000E+01
  1.00800000E+00  1.00800000E+00  1.60000000E+01  1.00800000E+00  1.00800000E+00
  1.60000000E+01  1.00800000E+00  1.00800000E+00  1.60000000E+01  1.00800000E+00
  1.00800000E+00  1.60000000E+01  1.00800000E+00  1.00800000E+00  1.60000000E+01
  1.00800000E+00  1.00800000E+00  1.60000000E+01  1.00800000E+00  1.00800000E+00
  1.60000000E+01  1.00800000E+00  1.00800000E+00  1.60000000E+01  1.00800000E+00
  1.00800000E+00  1.60000000E+01  1.00800000E+00  1.00800000E+00  1.60000000E+01
  1.00800000E+00  1.00800000E+00  1.60000000E+01  1.00800000E+00  1.00800000E+00
  1.60000000E+01  1.00800000E+00  1.00800000E+00  1.60000000E+01  1.00800000E+00
  1.00800000E+00  1.60000000E+01  1.00800000E+00  1.00800000E+00  1.60000000E+01
  1.00800000E+00  1.00800000E+00  1.60000000E+01  1.00800000E+00  1.00800000E+00
  1.60000000E+01  1.00800000E+00  1.00800000E+00  1.60000000E+01  1.00800000E+00
  1.00800000E+00  1.60000000E+01  1.00800000E+00  1.00800000E+00  1.60000000E+01
  1.00800000E+00  1.00800000E+00  1.60000000E+01  1.00800000E+00  1.00800000E+00
  1.60000000E+01  1.00800000E+00  1.00800000E+00  1.60000000E+01  1.00800000E+00
  1.00800000E+00  1.60000000E+01  1.00800000E+00  1.00800000E+00  1.60000000E+01
  1.00800000E+00  1.00800000E+00  1.60000000E+01  1.00800000E+00  1.00800000E+00
  1.60000000E+01  1.00800000E+00  1.00800000E+00  1.60000000E+01  1.00800000E+00
  1.00800000E+00  1.60000000E+01  1.00800000E+00  1.00800000E+00  1.60000000E+01
  1.00800000E+00  1.00800000E+00  1.60000000E+01  1.00800000E+00  1.00800000E+00
  1.60000000E+01  1.00800000E+00  1.00800000E+00  1.60000000E+01  1.00800000E+00
  1.00800000E+00  1.60000000E+01  1.00800000E+00  1.00800000E+00  1.60000000E+01
  1.00800000E+00  1.00800000E+00  1.60000000E+01  1.00800000E+00  1.00800000E+00
  1.60000000E+01  1.00800000E+00  1.00800000E+00  1.60000000E+01  1.00800000E+00
  1.00800000E+00  1.60000000E+01  1.00800000E+00  1.00800000E+00  1.60000000E+01
  1.00800000E+00  1.00800000E+00  1.60000000E+01  1.00800000E+00  1.00800000E+00
  1.60000000E+01  1.00800000E+00  1.00800000E+00  1.60000000E+01  1.00800000E+00
  1.00800000E+00  1.60000000E+01  1.00800000E+00  1.00800000E+00  1.60000000E+01
  1.00800000E+00  1.00800000E+00  1.60000000E+01  1.00800000E+00  1.00800000E+00
  1.60000000E+01  1.00800000E+00  1.00800000E+00  1.60000000E+01  1.00800000E+00
  1.00800000E+00  1.60000000E+01  1.00800000E+00  1.00800000E+00  1.60000000E+01
  1.00800000E+00  1.00800000E+00  1.60000000E+01  1.00800000E+00  1.00800000E+00
  1.60000000E+01  1.00800000E+00  1.00800000E+00  1.60000000E+01  1.00800000E+00
  1.00800000E+00  1.60000000E+01  1.00800000E+00  1.00800000E+00  1.60000000E+01
  1.00800000E+00  1.00800000E+00  1.60000000E+01  1.00800000E+00  1.00800000E+00
  1.60000000E+01  1.00800000E+00  1.00800000E+00  1.60000000E+01  1.00800000E+00
  1.00800000E+00  1.60000000E+01  1.00800000E+00  1.00800000E+00  1.60000000E+01
  1.00800000E+00  1.00800000E+00  1.60000000E+01  1.00800000E+00  1.00800000E+00
  1.60000000E+01  1.00800000E+00  1.00800000E+00  1.60000000E+01  1.00800000E+00
  1.00800000E+00  1.60000000E+01  1.00800000E+00  1.00800000E+00  1.60000000E+01
  1.00800000E+00  1.00800000E+00  1.60000000E+01  1.00800000E+00  1.00800000E+00
  1.60000000E+01  1.00800000E+00  1.00800000E+00  1.60000000E+01  1.00800000E+00
  1.00800000E+00  1.60000000E+01  1.00800000E+00  1.00800000E+00  1.60000000E+01
  1.00800000E+00  1.00800000E+00  1.60000000E+01  1.00800000E+00  1.00800000E+00
  1.60000000E+01  1.00800000E+00  1.00800000E+00  1.60000000E+01  1.00800000E+00
  1.00800000E+00  1.60000000E+01  1.00800000E+00  1.00800000E+00  1.60000000E+01
  1.00800000E+00  1.00800000E+00  1.60000000E+01  1.00800000E+00  1.00800000E+00
  1.60000000E+01  1.00800000E+00  1.00800000E+00  1.60000000E+01  1.00800000E+00
  1.00800000E+00  1.60000000E+01  1.00800000E+00  1.00800000E+00  1.60000000E+01
  1.00800000E+00  1.00800000E+00  1.60000000E+01  1.00800000E+00  1.00800000E+00
  1.60000000E+01  1.00800000E+00  1.00800000E+00  1.60000000E+01  1.00800000E+00
  1.00800000E+00  1.60000000E+01  1.00800000E+00  1.00800000E+00  1.60000000E+01
  1.00800000E+00  1.00800000E+00  1.60000000E+01  1.00800000E+00  1.00800000E+00
  1.60000000E+01  1.00800000E+00  1.00800000E+00  1.60000000E+01  1.00800000E+00
  1.00800000E+00  1.60000000E+01  1.00800000E+00  1.00800000E+00  1.60000000E+01
  1.00800000E+00  1.00800000E+00  1.60000000E+01  1.00800000E+00  1.00800000E+00
  1.60000000E+01  1.00800000E+00  1.00800000E+00  1.60000000E+01  1.00800000E+00
  1.00800000E+00  1.60000000E+01  1.00800000E+00  1.00800000E+00  1.60000000E+01
  1.00800000E+00  1.00800000E+00  1.60000000E+01  1.00800000E+00  1.00800000E+00
  1.60000000E+01  1.00800000E+00  1.00800000E+00  1.60000000E+01  1.00800000E+00
  1.00800000E+00  1.60000000E+01  1.00800000E+00  1.00800000E+00  1.60000000E+01
  1.00800000E+00  1.00800000E+00  1.60000000E+01  1.00800000E+00  1.00800000E+00
  1.60000000E+01  1.00800000E+00  1.00800000E+00  1.60000000E+01  1.00800000E+00
  1.00800000E+00  1.60000000E+01  1.00800000E+00  1.00800000E+00  1.60000000E+01
  1.00800000E+00  1.00800000E+00  1.60000000E+01  1.00800000E+00  1.00800000E+00
  1.60000000E+01  1.00800000E+00  1.00800000E+00  1.60000000E+01  1.00800000E+00
  1.00800000E+00  1.60000000E+01  1.00800000E+00  1.00800000E+00  1.60000000E+01
  1.00800000E+00  1.00800000E+00  1.60000000E+01  1.00800000E+00  1.00800000E+00
  1.60000000E+01  1.00800000E+00  1.00800000E+00  1.60000000E+01  1.00800000E+00
  1.00800000E+00  1.60000000E+01  1.00800000E+00  1.00800000E+00  1.60000000E+01
  1.00800000E+00  1.00800000E+00  1.60000000E+01  1.00800000E+00  1.00800000E+00
  1.60000000E+01  1.00800000E+00  1.00800000E+00  1.60000000E+01  1.00800000E+00
  1.00800000E+00  1.60000000E+01  1.00800000E+00  1.00800000E+00  1.60000000E+01
  1.00800000E+00  1.00800000E+00  1.60000000E+01  1.00800000E+00  1.00800000E+00
  1.60000000E+01  1.00800000E+00  1.00800000E+00  1.60000000E+01  1.00800000E+00
  1.00800000E+00  1.60000000E+01  1.00800000E+00  1.00800000E+00  1.60000000E+01
  1.00800000E+00  1.00800000E+00  1.60000000E+01  1.00800000E+00  1.00800000E+00
  1.60000000E+01  1.00800000E+00  1.00800000E+00  1.60000000E+01  1.00800000E+00
  1.00800000E+00  1.60000000E+01  1.00800000E+00  1.00800000E+00  1.60000000E+01
  1.00800000E+00  1.00800000E+00  1.60000000E+01  1.00800000E+00  1.00800000E+00
  1.60000000E+01  1.00800000E+00  1.00800000E+00  1.60000000E+01  1.00800000E+00
  1.00800000E+00  1.60000000E+01  1.00800000E+00  1.00800000E+00  1.60000000E+01
  1.00800000E+00  1.00800000E+00  1.60000000E+01  1.00800000E+00  1.00800000E+00
  1.60000000E+01  1.00800000E+00  1.00800000E+00  1.60000000E+01  1.00800000E+00
  1.00800000E+00  1.60000000E+01  1.00800000E+00  1.00800000E+00  1.60000000E+01
  1.00800000E+00  1.00800000E+00  1.60000000E+01  1.00800000E+00  1.00800000E+00
  1.60000000E+01  1.00800000E+00  1.00800000E+00  1.60000000E+01  1.00800000E+00
  1.00800000E+00  1.60000000E+01  1.00800000E+00  1.00800000E+00  1.60000000E+01
  1.00800000E+00  1.00800000E+00  1.60000000E+01  1.00800000E+00  1.00800000E+00
  1.60000000E+01  1.00800000E+00  1.00800000E+00  1.60000000E+01  1.00800000E+00
  1.00800000E+00  1.60000000E+01  1.00800000E+00  1.00800000E+00  1.60000000E+01
  1.00800000E+00  1.00800000E+00  1.60000000E+01  1.00800000E+00  1.00800000E+00
  1.60000000E+01  1.00800000E+00  1.00800000E+00  1.60000000E+01  1.00800000E+00
  1.00800000E+00  1.60000000E+01  1.00800000E+00  1.00800000E+00  1.60000000E+01
  1.00800000E+00  1.00800000E+00  1.60000000E+01  1.00800000E+00  1.00800000E+00
  1.60000000E+01  1.00800000E+00  1.00800000E+00  1.60000000E+01  1.00800000E+00
  1.00800000E+00  1.60000000E+01  1.00800000E+00  1.00800000E+00  1.60000000E+01
  1.00800000E+00  1.00800000E+00  1.60000000E+01  1.00800000E+00  1.00800000E+00
  1.60000000E+01  1.00800000E+00  1.00800000E+00  1.60000000E+01  1.00800000E+00
  1.00800000E+00  1.60000000E+01  1.00800000E+00  1.00800000E+00  1.60000000E+01
  1.00800000E+00  1.00800000E+00  1.60000000E+01  1.00800000E+00  1.00800000E+00
  1.60000000E+01  1.00800000E+00  1.00800000E+00  1.60000000E+01  1.00800000E+00
  1.00800000E+00  1.60000000E+01  1.00800000E+00  1.00800000E+00  1.60000000E+01
  1.00800000E+00  1.00800000E+00  1.60000000E+01  1.00800000E+00  1.00800000E+00
  1.60000000E+01  1.00800000E+00  1.00800000E+00  1.60000000E+01  1.00800000E+00
  1.00800000E+00  1.60000000E+01  1.00800000E+00  1.00800000E+00  1.60000000E+01
  1.00800000E+00  1.00800000E+00  1.60000000E+01  1.00800000E+00  1.00800000E+00
  1.60000000E+01  1.00800000E+00  1.00800000E+00  1.60000000E+01  1.00800000E+00
  1.00800000E+00  1.60000000E+01  1.00800000E+00  1.00800000E+00  1.60000000E+01
  1.00800000E+00  1.00800000E+00  1.60000000E+01  1.00800000E+00  1.00800000E+00
  1.60000000E+01  1.00800000E+00  1.00800000E+00  1.60000000E+01  1.00800000E+00
  1.00800000E+00  1.60000000E+01  1.00800000E+00  1.00800000E+00  1.60000000E+01
  1.00800000E+00  1.00800000E+00  1.60000000E+01  1.00800000E+00  1.00800000E+00
  1.60000000E+01  1.00800000E+00  1.00800000E+00  1.60000000E+01  1.00800000E+00
  1.00800000E+00  1.60000000E+01  1.00800000E+00  1.00800000E+00  1.60000000E+01
  1.00800000E+00  1.00800000E+00  1.60000000E+01  1.00800000E+00  1.00800000E+00
  1.60000000E+01  1.00800000E+00  1.00800000E+00  1.60000000E+01  1.00800000E+00
  1.00800000E+00  1.60000000E+01  1.00800000E+00  1.00800000E+00  1.60000000E+01
  1.00800000E+00  1.00800000E+00  1.60000000E+01  1.00800000E+00  1.00800000E+00
  1.60000000E+01  1.00800000E+00  1.00800000E+00  1.60000000E+01  1.00800000E+00
  1.00800000E+00  1.60000000E+01  1.00800000E+00  1.00800000E+00  1.60000000E+01
  1.00800000E+00  1.00800000E+00  1.60000000E+01  1.00800000E+00  1.00800000E+00
  1.60000000E+01  1.00800000E+00  1.00800000E+00  1.60000000E+01  1.00800000E+00
  1.00800000E+00  1.60000000E+01  1.00800000E+00  1.00800000E+00  1.60000000E+01
  1.00800000E+00  1.00800000E+00  1.60000000E+01  1.00800000E+00  1.00800000E+00
  1.60000000E+01  1.00800000E+00  1.00800000E+00  1.60000000E+01  1.00800000E+00
  1.00800000E+00  1.60000000E+01  1.00800000E+00  1.00800000E+00  1.60000000E+01
  1.00800000E+00  1.00800000E+00  1.60000000E+01  1.00800000E+00  1.00800000E+00
  1.60000000E+01  1.00800000E+00  1.00800000E+00  1.60000000E+01  1.00800000E+00
  1.00800000E+00  1.60000000E+01  1.00800000E+00  1.00800000E+00  1.60000000E+01
  1.00800000E+00  1.00800000E+00  1.60000000E+01  1.00800000E+00  1.00800000E+00
  1.60000000E+01  1.00800000E+00  1.00800000E+00  1.60000000E+01  1.00800000E+00
  1.00800000E+00  1.60000000E+01  1.00800000E+00  1.00800000E+00  1.60000000E+01
  1.00800000E+00  1.00800000E+00  1.60000000E+01  1.00800000E+00  1.00800000E+00
  1.60000000E+01  1.00800000E+00  1.00800000E+00  1.60000000E+01  1.00800000E+00
  1.00800000E+00  1.60000000E+01  1.00800000E+00  1.00800000E+00  1.60000000E+01
  1.00800000E+00  1.00800000E+00  1.60000000E+01  1.00800000E+00  1.00800000E+00
  1.60000000E+01  1.00800000E+00  1.00800000E+00  1.60000000E+01  1.00800000E+00
  1.00800000E+00  1.60000000E+01  1.00800000E+00  1.00800000E+00  1.60000000E+01
  1.00800000E+00  1.00800000E+00  1.60000000E+01  1.00800000E+00  1.00800000E+00
  1.60000000E+01  1.00800000E+00  1.00800000E+00  1.60000000E+01  1.00800000E+00
  1.00800000E+00  1.60000000E+01  1.00800000E+00  1.00800000E+00  1.60000000E+01
  1.00800000E+00  1.00800000E+00  1.60000000E+01  1.00800000E+00  1.00800000E+00
  1.60000000E+01  1.00800000E+00  1.00800000E+00  1.60000000E+01  1.00800000E+00
  1.00800000E+00  1.60000000E+01  1.00800000E+00  1.00800000E+00  1.60000000E+01
  1.00800000E+00  1.00800000E+00  1.60000000E+01  1.00800000E+00  1.00800000E+00
  1.60000000E+01  1.00800000E+00  1.00800000E+00  1.60000000E+01  1.00800000E+00
  1.00800000E+00  1.60000000E+01  1.00800000E+00  1.00800000E+00  1.60000000E+01
  1.00800000E+00  1.00800000E+00  1.60000000E+01  1.00800000E+00  1.00800000E+00
  1.60000000E+01  1.00800000E+00  1.00800000E+00  1.60000000E+01  1.00800000E+00
  1.00800000E+00  1.60000000E+01  1.00800000E+00  1.00800000E+00  1.60000000E+01
  1.00800000E+00  1.00800000E+00  1.60000000E+01  1.00800000E+00  1.00800000E+00
  1.60000000E+01  1.00800000E+00  1.00800000E+00  1.60000000E+01  1.00800000E+00
  1.00800000E+00  1.60000000E+01  1.00800000E+00  1.00800000E+00  1.60000000E+01
  1.00800000E+00  1.00800000E+00  1.60000000E+01  1.00800000E+00  1.00800000E+00
  1.60000000E+01  1.00800000E+00  1.00800000E+00  1.60000000E+01  1.00800000E+00
  1.00800000E+00  1.60000000E+01  1.00800000E+00  1.00800000E+00  1.60000000E+01
  1.00800000E+00  1.00800000E+00  1.60000000E+01  1.00800000E+00  1.00800000E+00
  1.60000000E+01  1.00800000E+00  1.00800000E+00  1.60000000E+01  1.00800000E+00
  1.00800000E+00  1.60000000E+01  1.00800000E+00  1.00800000E+00  1.60000000E+01
  1.00800000E+00  1.00800000E+00  1.60000000E+01  1.00800000E+00  1.00800000E+00
  1.60000000E+01  1.00800000E+00  1.00800000E+00  1.60000000E+01  1.00800000E+00
  1.00800000E+00  1.60000000E+01  1.00800000E+00  1.00800000E+00  1.60000000E+01
  1.00800000E+00  1.00800000E+00  1.60000000E+01  1.00800000E+00  1.00800000E+00
  1.60000000E+01  1.00800000E+00  1.00800000E+00  1.60000000E+01  1.00800000E+00
  1.00800000E+00  1.60000000E+01  1.00800000E+00  1.00800000E+00  1.60000000E+01
  1.00800000E+00  1.00800000E+00  1.60000000E+01  1.00800000E+00  1.00800000E+00
  1.60000000E+01  1.00800000E+00  1.00800000E+00  1.60000000E+01  1.00800000E+00
  1.00800000E+00  1.60000000E+01  1.00800000E+00  1.00800000E+00  1.60000000E+01
  1.00800000E+00  1.00800000E+00  1.60000000E+01  1.00800000E+00  1.00800000E+00
  1.60000000E+01  1.00800000E+00  1.00800000E+00  1.60000000E+01  1.00800000E+00
  1.00800000E+00  1.60000000E+01  1.00800000E+00  1.00800000E+00  1.60000000E+01
  1.00800000E+00  1.00800000E+00  1.60000000E+01  1.00800000E+00  1.00800000E+00
  1.60000000E+01  1.00800000E+00  1.00800000E+00  1.60000000E+01  1.00800000E+00
  1.00800000E+00  1.60000000E+01  1.00800000E+00  1.00800000E+00  1.60000000E+01
  1.00800000E+00  1.00800000E+00  1.60000000E+01  1.00800000E+00  1.00800000E+00
  1.60000000E+01  1.00800000E+00  1.00800000E+00  1.60000000E+01  1.00800000E+00
  1.00800000E+00  1.60000000E+01  1.00800000E+00  1.00800000E+00  1.60000000E+01
  1.00800000E+00  1.00800000E+00  1.60000000E+01  1.00800000E+00  1.00800000E+00
  1.60000000E+01  1.00800000E+00  1.00800000E+00  1.60000000E+01  1.00800000E+00
  1.00800000E+00  1.60000000E+01  1.00800000E+00  1.00800000E+00  1.60000000E+01
  1.00800000E+00  1.00800000E+00  1.60000000E+01  1.00800000E+00  1.00800000E+00
  1.60000000E+01  1.00800000E+00  1.00800000E+00  1.60000000E+01  1.00800000E+00
  1.00800000E+00  1.60000000E+01  1.00800000E+00  1.00800000E+00  1.60000000E+01
  1.00800000E+00  1.00800000E+00  1.60000000E+01  1.00800000E+00  1.00800000E+00
  1.60000000E+01  1.00800000E+00  1.00800000E+00  1.60000000E+01  1.00800000E+00
  1.00800000E+00  1.60000000E+01  1.00800000E+00  1.00800000E+00  1.60000000E+01
  1.00800000E+00  1.00800000E+00  1.60000000E+01  1.00800000E+00  1.00800000E+00
  1.60000000E+01  1.00800000E+00  1.00800000E+00  1.60000000E+01  1.00800000E+00
  1.00800000E+00  1.60000000E+01  1.00800000E+00  1.00800000E+00  1.60000000E+01
  1.00800000E+00  1.00800000E+00  1.60000000E+01  1.00800000E+00  1.00800000E+00
  1.60000000E+01  1.00800000E+00  1.00800000E+00  1.60000000E+01  1.00800000E+00
  1.00800000E+00  1.60000000E+01  1.00800000E+00  1.00800000E+00  1.60000000E+01
  1.00800000E+00  1.00800000E+00  1.60000000E+01  1.00800000E+00  1.00800000E+00
  1.60000000E+01  1.00800000E+00  1.00800000E+00  1.60000000E+01  1.00800000E+00
  1.00800000E+00  1.60000000E+01  1.00800000E+00  1.00800000E+00  1.60000000E+01
  1.00800000E+00  1.00800000E+00  1.60000000E+01  1.00800000E+00  1.00800000E+00
  1.60000000E+01  1.00800000E+00  1.00800000E+00  1.60000000E+01  1.00800000E+00
  1.00800000E+00  1.60000000E+01  1.00800000E+00  1.00800000E+00  1.60000000E+01
  1.00800000E+00  1.00800000E+00  1.60000000E+01  1.00800000E+00  1.00800000E+00
  1.60000000E+01  1.00800000E+00  1.00800000E+00  1.60000000E+01  1.00800000E+00
  1.00800000E+00  1.60000000E+01  1.00800000E+00  1.00800000E+00  1.60000000E+01
  1.00800000E+00  1.00800000E+00  1.60000000E+01  1.00800000E+00  1.00800000E+00
  1.60000000E+01  1.00800000E+00  1.00800000E+00  1.60000000E+01  1.00800000E+00
  1.00800000E+00  1.60000000E+01  1.00800000E+00  1.00800000E+00  1.60000000E+01
  1.00800000E+00  1.00800000E+00  1.60000000E+01  1.00800000E+00  1.00800000E+00
  1.60000000E+01  1.00800000E+00  1.00800000E+00  1.60000000E+01  1.00800000E+00
  1.00800000E+00  1.60000000E+01  1.00800000E+00  1.00800000E+00  1.60000000E+01
  1.00800000E+00  1.00800000E+00  1.60000000E+01  1.00800000E+00  1.00800000E+00
  1.60000000E+01  1.00800000E+00  1.00800000E+00  1.60000000E+01  1.00800000E+00
  1.00800000E+00  1.60000000E+01  1.00800000E+00  1.00800000E+00  1.60000000E+01
  1.00800000E+00  1.00800000E+00  1.60000000E+01  1.00800000E+00  1.00800000E+00
  1.60000000E+01  1.00800000E+00  1.00800000E+00  1.60000000E+01  1.00800000E+00
  1.00800000E+00  1.60000000E+01  1.00800000E+00  1.00800000E+00  1.60000000E+01
  1.00800000E+00  1.00800000E+00  1.60000000E+01  1.00800000E+00  1.00800000E+00
  1.60000000E+01  1.00800000E+00  1.00800000E+00  1.60000000E+01  1.00800000E+00
  1.00800000E+00  1.60000000E+01  1.00800000E+00  1.00800000E+00  1.60000000E+01
  1.00800000E+00  1.00800000E+00  1.60000000E+01  1.00800000E+00  1.00800000E+00
  1.60000000E+01  1.00800000E+00  1.00800000E+00  1.60000000E+01  1.00800000E+00
  1.00800000E+00  1.60000000E+01  1.00800000E+00  1.00800000E+00  1.60000000E+01
  1.00800000E+00  1.00800000E+00  1.60000000E+01  1.00800000E+00  1.00800000E+00
  1.60000000E+01  1.00800000E+00  1.00800000E+00  1.60000000E+01  1.00800000E+00
  1.00800000E+00  1.60000000E+01  1.00800000E+00  1.00800000E+00  1.60000000E+01
  1.00800000E+00  1.00800000E+00  1.60000000E+01  1.00800000E+00  1.00800000E+00
  1.60000000E+01  1.00800000E+00  1.00800000E+00  1.60000000E+01  1.00800000E+00
  1.00800000E+00  1.60000000E+01  1.00800000E+00  1.00800000E+00  1.60000000E+01
  1.00800000E+00  1.00800000E+00  1.60000000E+01  1.00800000E+00  1.00800000E+00
  1.60000000E+01  1.00800000E+00  1.00800000E+00  1.60000000E+01  1.00800000E+00
  1.00800000E+00  1.60000000E+01  1.00800000E+00  1.00800000E+00  1.60000000E+01
  1.00800000E+00  1.00800000E+00  1.60000000E+01  1.00800000E+00  1.00800000E+00
  1.60000000E+01  1.00800000E+00  1.00800000E+00  1.60000000E+01  1.00800000E+00
  1.00800000E+00  1.60000000E+01  1.00800000E+00  1.00800000E+00  1.60000000E+01
  1.00800000E+00  1.00800000E+00  1.60000000E+01  1.00800000E+00  1.00800000E+00
  1.60000000E+01  1.00800000E+00  1.00800000E+00  1.60000000E+01  1.00800000E+00
  1.00800000E+00  1.60000000E+01  1.00800000E+00  1.00800000E+00  1.60000000E+01
  1.00800000E+00  1.00800000E+00  1.60000000E+01  1.00800000E+00  1.00800000E+00
  1.60000000E+01  1.00800000E+00  1.00800000E+00  1.60000000E+01  1.00800000E+00
  1.00800000E+00  1.60000000E+01  1.00800000E+00  1.00800000E+00  1.60000000E+01
  1.00800000E+00  1.00800000E+00  1.60000000E+01  1.00800000E+00  1.00800000E+00
  1.60000000E+01  1.00800000E+00  1.00800000E+00  1.60000000E+01  1.00800000E+00
  1.00800000E+00  1.60000000E+01  1.00800000E+00  1.00800000E+00  1.60000000E+01
  1.00800000E+00  1.00800000E+00  1.60000000E+01  1.00800000E+00  1.00800000E+00
  1.60000000E+01  1.00800000E+00  1.00800000E+00  1.60000000E+01  1.00800000E+00
  1.00800000E+00  1.60000000E+01  1.00800000E+00  1.00800000E+00  1.60000000E+01
  1.00800000E+00  1.00800000E+00  1.60000000E+01  1.00800000E+00  1.00800000E+00
  1.60000000E+01  1.00800000E+00  1.00800000E+00  1.60000000E+01  1.00800000E+00
  1.00800000E+00  1.60000000E+01  1.00800000E+00  1.00800000E+00  1.60000000E+01
  1.00800000E+00  1.00800000E+00  1.60000000E+01  1.00800000E+00  1.00800000E+00
  1.60000000E+01  1.00800000E+00  1.00800000E+00  1.60000000E+01  1.00800000E+00
  1.00800000E+00  1.60000000E+01  1.00800000E+00  1.00800000E+00  1.60000000E+01
  1.00800000E+00  1.00800000E+00  1.60000000E+01  1.00800000E+00  1.00800000E+00
  1.60000000E+01  1.00800000E+00  1.00800000E+00  1.60000000E+01  1.00800000E+00
  1.00800000E+00  1.60000000E+01  1.00800000E+00  1.00800000E+00  1.60000000E+01
  1.00800000E+00  1.00800000E+00  1.60000000E+01  1.00800000E+00  1.00800000E+00
  1.60000000E+01  1.00800000E+00  1.00800000E+00  1.60000000E+01  1.00800000E+00
  1.00800000E+00  1.60000000E+01  1.00800000E+00  1.00800000E+00  1.60000000E+01
  1.00800000E+00  1.00800000E+00  1.60000000E+01  1.00800000E+00  1.00800000E+00
  1.60000000E+01  1.00800000E+00  1.00800000E+00  1.60000000E+01  1.00800000E+00
  1.00800000E+00  1.60000000E+01  1.00800000E+00  1.00800000E+00  1.60000000E+01
  1.00800000E+00  1.00800000E+00  1.60000000E+01  1.00800000E+00  1.00800000E+00
  1.60000000E+01  1.00800000E+00  1.00800000E+00  1.60000000E+01  1.00800000E+00
  1.00800000E+00  1.60000000E+01  1.00800000E+00  1.00800000E+00  1.60000000E+01
  1.00800000E+00  1.00800000E+00  1.60000000E+01  1.00800000E+00  1.00800000E+00
  1.60000000E+01  1.00800000E+00  1.00800000E+00  1.60000000E+01  1.00800000E+00
  1.00800000E+00  1.60000000E+01  1.00800000E+00  1.00800000E+00  1.60000000E+01
  1.00800000E+00  1.00800000E+00  1.60000000E+01  1.00800000E+00  1.00800000E+00
  1.60000000E+01  1.00800000E+00  1.00800000E+00  1.60000000E+01  1.00800000E+00
  1.00800000E+00  1.60000000E+01  1.00800000E+00  1.00800000E+00  1.60000000E+01
  1.00800000E+00  1.00800000E+00  1.60000000E+01  1.00800000E+00  1.00800000E+00
  1.60000000E+01  1.00800000E+00  1.00800000E+00  1.60000000E+01  1.00800000E+00
  1.00800000E+00  1.60000000E+01  1.00800000E+00  1.00800000E+00  1.60000000E+01
  1.00800000E+00  1.00800000E+00  1.60000000E+01  1.00800000E+00  1.00800000E+00
  1.60000000E+01  1.00800000E+00  1.00800000E+00  1.60000000E+01  1.00800000E+00
  1.00800000E+00  1.60000000E+01  1.00800000E+00  1.00800000E+00  1.60000000E+01
  1.00800000E+00  1.00800000E+00  1.60000000E+01  1.00800000E+00  1.00800000E+00
  1.60000000E+01  1.00800000E+00  1.00800000E+00  1.60000000E+01  1.00800000E+00
  1.00800000E+00  1.60000000E+01  1.00800000E+00  1.00800000E+00  1.60000000E+01
  1.00800000E+00  1.00800000E+00  1.60000000E+01  1.00800000E+00  1.00800000E+00
  1.60000000E+01  1.00800000E+00  1.00800000E+00  1.60000000E+01  1.00800000E+00
  1.00800000E+00  1.60000000E+01  1.00800000E+00  1.00800000E+00  1.60000000E+01
  1.00800000E+00  1.00800000E+00  1.60000000E+01  1.00800000E+00  1.00800000E+00
  1.60000000E+01  1.00800000E+00  1.00800000E+00  1.60000000E+01  1.00800000E+00
  1.00800000E+00  1.60000000E+01  1.00800000E+00  1.00800000E+00  1.60000000E+01
  1.00800000E+00  1.00800000E+00  1.60000000E+01  1.00800000E+00  1.00800000E+00
  1.60000000E+01  1.00800000E+00  1.00800000E+00  1.60000000E+01  1.00800000E+00
  1.00800000E+00  1.60000000E+01  1.00800000E+00  1.00800000E+00  1.60000000E+01
  1.00800000E+00  1.00800000E+00  1.60000000E+01  1.00800000E+00  1.00800000E+00
  1.60000000E+01  1.00800000E+00  1.00800000E+00  1.60000000E+01  1.00800000E+00
  1.00800000E+00  1.60000000E+01  1.00800000E+00  1.00800000E+00  1.60000000E+01
  1.00800000E+00  1.00800000E+00  1.60000000E+01  1.00800000E+00  1.00800000E+00
  1.60000000E+01  1.00800000E+00  1.00800000E+00  1.60000000E+01  1.00800000E+00
  1.00800000E+00  1.60000000E+01  1.00800000E+00  1.00800000E+00  1.60000000E+01
  1.00800000E+00  1.00800000E+00  1.60000000E+01  1.00800000E+00  1.00800000E+00
  1.60000000E+01  1.00800000E+00  1.00800000E+00  1.60000000E+01  1.00800000E+00
  1.00800000E+00  1.60000000E+01  1.00800000E+00  1.00800000E+00  1.60000000E+01
  1.00800000E+00  1.00800000E+00  1.60000000E+01  1.00800000E+00  1.00800000E+00
  1.60000000E+01  1.00800000E+00  1.00800000E+00  1.60000000E+01  1.00800000E+00
  1.00800000E+00  1.60000000E+01  1.00800000E+00  1.00800000E+00  1.60000000E+01
  1.00800000E+00  1.00800000E+00  1.60000000E+01  1.00800000E+00  1.00800000E+00
  1.60000000E+01  1.00800000E+00  1.00800000E+00  1.60000000E+01  1.00800000E+00
  1.00800000E+00  1.60000000E+01  1.00800000E+00  1.00800000E+00  1.60000000E+01
  1.00800000E+00  1.00800000E+00  1.60000000E+01  1.00800000E+00  1.00800000E+00
  1.60000000E+01  1.00800000E+00  1.00800000E+00  1.60000000E+01  1.00800000E+00
  1.00800000E+00  1.60000000E+01  1.00800000E+00  1.00800000E+00  1.60000000E+01
  1.00800000E+00  1.00800000E+00  1.60000000E+01  1.00800000E+00  1.00800000E+00
  1.60000000E+01  1.00800000E+00  1.00800000E+00  1.60000000E+01  1.00800000E+00
  1.00800000E+00  1.60000000E+01  1.00800000E+00  1.00800000E+00  1.60000000E+01
  1.00800000E+00  1.00800000E+00  1.60000000E+01  1.00800000E+00  1.00800000E+00
  1.60000000E+01  1.00800000E+00  1.00800000E+00  1.60000000E+01  1.00800000E+00
  1.00800000E+00  1.60000000E+01  1.00800000E+00  1.00800000E+00  1.60000000E+01
  1.00800000E+00  1.00800000E+00  1.60000000E+01  1.00800000E+00  1.00800000E+00
  1.60000000E+01  1.00800000E+00  1.00800000E+00  1.60000000E+01  1.00800000E+00
  1.00800000E+00  1.60000000E+01  1.00800000E+00  1.00800000E+00  1.60000000E+01
  1.00800000E+00  1.00800000E+00  1.60000000E+01  1.00800000E+00  1.00800000E+00
  1.60000000E+01  1.00800000E+00  1.00800000E+00  1.60000000E+01  1.00800000E+00
  1.00800000E+00  1.60000000E+01  1.00800000E+00  1.00800000E+00  1.60000000E+01
  1.00800000E+00  1.00800000E+00  1.60000000E+01  1.00800000E+00  1.00800000E+00
  1.60000000E+01  1.00800000E+00  1.00800000E+00  1.60000000E+01  1.00800000E+00
  1.00800000E+00  1.60000000E+01  1.00800000E+00  1.00800000E+00  1.60000000E+01
  1.00800000E+00  1.00800000E+00  1.60000000E+01  1.00800000E+00  1.00800000E+00
  1.60000000E+01  1.00800000E+00  1.00800000E+00  1.60000000E+01  1.00800000E+00
  1.00800000E+00  1.60000000E+01  1.00800000E+00  1.00800000E+00  1.60000000E+01
  1.00800000E+00  1.00800000E+00  1.60000000E+01  1.00800000E+00  1.00800000E+00
  1.60000000E+01  1.00800000E+00  1.00800000E+00  1.60000000E+01  1.00800000E+00
  1.00800000E+00  1.60000000E+01  1.00800000E+00  1.00800000E+00  1.60000000E+01
  1.00800000E+00  1.00800000E+00  1.60000000E+01  1.00800000E+00  1.00800000E+00
  1.60000000E+01  1.00800000E+00  1.00800000E+00  1.60000000E+01  1.00800000E+00
  1.00800000E+00  1.60000000E+01  1.00800000E+00  1.00800000E+00  1.60000000E+01
  1.00800000E+00  1.00800000E+00  1.60000000E+01  1.00800000E+00  1.00800000E+00
  1.60000000E+01  1.00800000E+00  1.00800000E+00  1.60000000E+01  1.00800000E+00
  1.00800000E+00  1.60000000E+01  1.00800000E+00  1.00800000E+00  1.60000000E+01
  1.00800000E+00  1.00800000E+00  1.60000000E+01  1.00800000E+00  1.00800000E+00
  1.60000000E+01  1.00800000E+00  1.00800000E+00  1.60000000E+01  1.00800000E+00
  1.00800000E+00  1.60000000E+01  1.00800000E+00  1.00800000E+00  1.60000000E+01
  1.00800000E+00  1.00800000E+00  1.60000000E+01  1.00800000E+00  1.00800000E+00
  1.60000000E+01  1.00800000E+00  1.00800000E+00  1.60000000E+01  1.00800000E+00
  1.00800000E+00  1.60000000E+01  1.00800000E+00  1.00800000E+00  1.60000000E+01
  1.00800000E+00  1.00800000E+00  1.60000000E+01  1.00800000E+00  1.00800000E+00
  1.60000000E+01  1.00800000E+00  1.00800000E+00  1.60000000E+01  1.00800000E+00
  1.00800000E+00  1.60000000E+01  1.00800000E+00  1.00800000E+00  1.60000000E+01
  1.00800000E+00  1.00800000E+00  1.60000000E+01  1.00800000E+00  1.00800000E+00
  1.60000000E+01  1.00800000E+00  1.00800000E+00  1.60000000E+01  1.00800000E+00
  1.00800000E+00  1.60000000E+01  1.00800000E+00  1.00800000E+00  1.60000000E+01
  1.00800000E+00  1.00800000E+00  1.60000000E+01  1.00800000E+00  1.00800000E+00
  1.60000000E+01  1.00800000E+00  1.00800000E+00  1.60000000E+01  1.00800000E+00
  1.00800000E+00  1.60000000E+01  1.00800000E+00  1.00800000E+00  1.60000000E+01
  1.00800000E+00  1.00800000E+00  1.60000000E+01  1.00800000E+00  1.00800000E+00
  1.60000000E+01  1.00800000E+00  1.00800000E+00  1.60000000E+01  1.00800000E+00
  1.00800000E+00  1.60000000E+01  1.00800000E+00  1.00800000E+00  1.60000000E+01
  1.00800000E+00  1.00800000E+00  1.60000000E+01  1.00800000E+00  1.00800000E+00
  1.60000000E+01  1.00800000E+00  1.00800000E+00  1.60000000E+01  1.00800000E+00
  1.00800000E+00  1.60000000E+01  1.00800000E+00  1.00800000E+00  1.60000000E+01
  1.00800000E+00  1.00800000E+00  1.60000000E+01  1.00800000E+00  1.00800000E+00
  1.60000000E+01  1.00800000E+00  1.00800000E+00  1.60000000E+01  1.00800000E+00
  1.00800000E+00  1.60000000E+01  1.00800000E+00  1.00800000E+00  1.60000000E+01
  1.00800000E+00  1.00800000E+00  1.60000000E+01  1.00800000E+00  1.00800000E+00
  1.60000000E+01  1.00800000E+00  1.00800000E+00  1.60000000E+01  1.00800000E+00
  1.00800000E+00  1.60000000E+01  1.00800000E+00  1.00800000E+00  1.60000000E+01
  1.00800000E+00  1.00800000E+00  1.60000000E+01  1.00800000E+00  1.00800000E+00
  1.60000000E+01  1.00800000E+00  1.00800000E+00  1.60000000E+01  1.00800000E+00
  1.00800000E+00  1.60000000E+01  1.00800000E+00  1.00800000E+00  1.60000000E+01
  1.00800000E+00  1.00800000E+00  1.60000000E+01  1.00800000E+00  1.00800000E+00
  1.60000000E+01  1.00800000E+00  1.00800000E+00  1.60000000E+01  1.00800000E+00
  1.00800000E+00  1.60000000E+01  1.00800000E+00  1.00800000E+00  1.60000000E+01
  1.00800000E+00  1.00800000E+00  1.60000000E+01  1.00800000E+00  1.00800000E+00
  1.60000000E+01  1.00800000E+00  1.00800000E+00  1.60000000E+01  1.00800000E+00
  1.00800000E+00  1.60000000E+01  1.00800000E+00  1.00800000E+00  1.60000000E+01
  1.00800000E+00  1.00800000E+00  1.60000000E+01  1.00800000E+00  1.00800000E+00
  1.60000000E+01  1.00800000E+00  1.00800000E+00  1.60000000E+01  1.00800000E+00
  1.00800000E+00  1.60000000E+01  1.00800000E+00  1.00800000E+00  1.60000000E+01
  1.00800000E+00  1.00800000E+00  1.60000000E+01  1.00800000E+00  1.00800000E+00
  1.60000000E+01  1.00800000E+00  1.00800000E+00  1.60000000E+01  1.00800000E+00
  1.00800000E+00  1.60000000E+01  1.00800000E+00  1.00800000E+00  1.60000000E+01
  1.00800000E+00  1.00800000E+00  1.60000000E+01  1.00800000E+00  1.00800000E+00
  1.60000000E+01  1.00800000E+00  1.00800000E+00  1.60000000E+01  1.00800000E+00
  1.00800000E+00  1.60000000E+01  1.00800000E+00  1.00800000E+00  1.60000000E+01
  1.00800000E+00  1.00800000E+00  1.60000000E+01  1.00800000E+00  1.00800000E+00
  1.60000000E+01  1.00800000E+00  1.00800000E+00  1.60000000E+01  1.00800000E+00
  1.00800000E+00  1.60000000E+01  1.00800000E+00  1.00800000E+00  1.60000000E+01
  1.00800000E+00  1.00800000E+00  1.60000000E+01  1.00800000E+00  1.00800000E+00
  1.60000000E+01  1.00800000E+00  1.00800000E+00  1.60000000E+01  1.00800000E+00
  1.00800000E+00  1.60000000E+01  1.00800000E+00  1.00800000E+00  1.60000000E+01
  1.00800000E+00  1.00800000E+00  1.60000000E+01  1.00800000E+00  1.00800000E+00
  1.60000000E+01  1.00800000E+00  1.00800000E+00  1.60000000E+01  1.00800000E+00
  1.00800000E+00  1.60000000E+01  1.00800000E+00  1.00800000E+00  1.60000000E+01
  1.00800000E+00  1.00800000E+00  1.60000000E+01  1.00800000E+00  1.00800000E+00
  1.60000000E+01  1.00800000E+00  1.00800000E+00  1.60000000E+01  1.00800000E+00
  1.00800000E+00  1.60000000E+01  1.00800000E+00  1.00800000E+00  1.60000000E+01
  1.00800000E+00  1.00800000E+00  1.60000000E+01  1.00800000E+00  1.00800000E+00
  1.60000000E+01  1.00800000E+00  1.00800000E+00  1.60000000E+01  1.00800000E+00
  1.00800000E+00  1.60000000E+01  1.00800000E+00  1.00800000E+00  1.60000000E+01
  1.00800000E+00  1.00800000E+00  1.60000000E+01  1.00800000E+00  1.00800000E+00
  1.60000000E+01  1.00800000E+00  1.00800000E+00  1.60000000E+01  1.00800000E+00
  1.00800000E+00  1.60000000E+01  1.00800000E+00  1.00800000E+00  1.60000000E+01
  1.00800000E+00  1.00800000E+00  1.60000000E+01  1.00800000E+00  1.00800000E+00
  1.60000000E+01  1.00800000E+00  1.00800000E+00  1.60000000E+01  1.00800000E+00
  1.00800000E+00  1.60000000E+01  1.00800000E+00  1.00800000E+00  1.60000000E+01
  1.00800000E+00  1.00800000E+00  1.60000000E+01  1.00800000E+00  1.00800000E+00
  1.60000000E+01  1.00800000E+00  1.00800000E+00  1.60000000E+01  1.00800000E+00
  1.00800000E+00  1.60000000E+01  1.00800000E+00  1.00800000E+00  1.60000000E+01
  1.00800000E+00  1.00800000E+00  1.60000000E+01  1.00800000E+00  1.00800000E+00
  1.60000000E+01  1.00800000E+00  1.00800000E+00  1.60000000E+01  1.00800000E+00
  1.00800000E+00  1.60000000E+01  1.00800000E+00  1.00800000E+00  1.60000000E+01
  1.00800000E+00  1.00800000E+00  1.60000000E+01  1.00800000E+00  1.00800000E+00
  1.60000000E+01  1.00800000E+00  1.00800000E+00  1.60000000E+01  1.00800000E+00
  1.00800000E+00  1.60000000E+01  1.00800000E+00  1.00800000E+00  1.60000000E+01
  1.00800000E+00  1.00800000E+00  1.60000000E+01  1.00800000E+00  1.00800000E+00
  1.60000000E+01  1.00800000E+00  1.00800000E+00  1.60000000E+01  1.00800000E+00
  1.00800000E+00  1.60000000E+01  1.00800000E+00  1.00800000E+00  1.60000000E+01
  1.00800000E+00  1.00800000E+00  1.60000000E+01  1.00800000E+00  1.00800000E+00
  1.60000000E+01  1.00800000E+00  1.00800000E+00  1.60000000E+01  1.00800000E+00
  1.00800000E+00  1.60000000E+01  1.00800000E+00  1.00800000E+00  1.60000000E+01
  1.00800000E+00  1.00800000E+00  1.60000000E+01  1.00800000E+00  1.00800000E+00
  1.60000000E+01  1.00800000E+00  1.00800000E+00  1.60000000E+01  1.00800000E+00
  1.00800000E+00  1.60000000E+01  1.00800000E+00  1.00800000E+00  1.60000000E+01
  1.00800000E+00  1.00800000E+00  1.60000000E+01  1.00800000E+00  1.00800000E+00
  1.60000000E+01  1.00800000E+00  1.00800000E+00  1.60000000E+01  1.00800000E+00
  1.00800000E+00  1.60000000E+01  1.00800000E+00  1.00800000E+00  1.60000000E+01
  1.00800000E+00  1.00800000E+00  1.60000000E+01  1.00800000E+00  1.00800000E+00
  1.60000000E+01  1.00800000E+00  1.00800000E+00  1.60000000E+01  1.00800000E+00
  1.00800000E+00  1.60000000E+01  1.00800000E+00  1.00800000E+00  1.60000000E+01
  1.00800000E+00  1.00800000E+00  1.60000000E+01  1.00800000E+00  1.00800000E+00
  1.60000000E+01  1.00800000E+00  1.00800000E+00  1.60000000E+01  1.00800000E+00
  1.00800000E+00  1.60000000E+01  1.00800000E+00  1.00800000E+00  1.60000000E+01
  1.00800000E+00  1.00800000E+00  1.60000000E+01  1.00800000E+00  1.00800000E+00
  1.60000000E+01  1.00800000E+00  1.00800000E+00  1.60000000E+01  1.00800000E+00
  1.00800000E+00  1.60000000E+01  1.00800000E+00  1.00800000E+00  1.60000000E+01
  1.00800000E+00  1.00800000E+00  1.60000000E+01  1.00800000E+00  1.00800000E+00
  1.60000000E+01  1.00800000E+00  1.00800000E+00  1.60000000E+01  1.00800000E+00
  1.00800000E+00  1.60000000E+01  1.00800000E+00  1.00800000E+00  1.60000000E+01
  1.00800000E+00  1.00800000E+00  1.60000000E+01  1.00800000E+00  1.00800000E+00
  1.60000000E+01  1.00800000E+00  1.00800000E+00  1.60000000E+01  1.00800000E+00
  1.00800000E+00  1.60000000E+01  1.00800000E+00  1.00800000E+00  1.60000000E+01
  1.00800000E+00  1.00800000E+00  1.60000000E+01  1.00800000E+00  1.00800000E+00
  1.60000000E+01  1.00800000E+00  1.00800000E+00  1.60000000E+01  1.00800000E+00
  1.00800000E+00  1.60000000E+01  1.00800000E+00  1.00800000E+00  1.60000000E+01
  1.00800000E+00  1.00800000E+00  1.60000000E+01  1.00800000E+00  1.00800000E+00
  1.60000000E+01  1.00800000E+00  1.00800000E+00  1.60000000E+01  1.00800000E+00
  1.00800000E+00  1.60000000E+01  1.00800000E+00  1.00800000E+00  1.60000000E+01
  1.00800000E+00  1.00800000E+00  1.60000000E+01  1.00800000E+00  1.00800000E+00
  1.60000000E+01  1.00800000E+00  1.00800000E+00  1.60000000E+01  1.00800000E+00
  1.00800000E+00  1.60000000E+01  1.00800000E+00  1.00800000E+00  1.60000000E+01
  1.00800000E+00  1.00800000E+00  1.60000000E+01  1.00800000E+00  1.00800000E+00
  1.60000000E+01  1.00800000E+00  1.00800000E+00  1.60000000E+01  1.00800000E+00
  1.00800000E+00  1.60000000E+01  1.00800000E+00  1.00800000E+00  1.60000000E+01
  1.00800000E+00  1.00800000E+00  1.60000000E+01  1.00800000E+00  1.00800000E+00
  1.60000000E+01  1.00800000E+00  1.00800000E+00  1.60000000E+01  1.00800000E+00
  1.00800000E+00  1.60000000E+01  1.00800000E+00  1.00800000E+00  1.60000000E+01
  1.00800000E+00  1.00800000E+00  1.60000000E+01  1.00800000E+00  1.00800000E+00
  1.60000000E+01  1.00800000E+00  1.00800000E+00  1.60000000E+01  1.00800000E+00
  1.00800000E+00  1.60000000E+01  1.00800000E+00  1.00800000E+00  1.60000000E+01
  1.00800000E+00  1.00800000E+00  1.60000000E+01  1.00800000E+00  1.00800000E+00
  1.60000000E+01  1.00800000E+00  1.00800000E+00  1.60000000E+01  1.00800000E+00
  1.00800000E+00  1.60000000E+01  1.00800000E+00  1.00800000E+00  1.60000000E+01
  1.00800000E+00  1.00800000E+00  1.60000000E+01  1.00800000E+00  1.00800000E+00
  1.60000000E+01  1.00800000E+00  1.00800000E+00  1.60000000E+01  1.00800000E+00
  1.00800000E+00  1.60000000E+01  1.00800000E+00  1.00800000E+00  1.60000000E+01
  1.00800000E+00  1.00800000E+00  1.60000000E+01  1.00800000E+00  1.00800000E+00
  1.60000000E+01  1.00800000E+00  1.00800000E+00  1.60000000E+01  1.00800000E+00
  1.00800000E+00  1.60000000E+01  1.00800000E+00  1.00800000E+00  1.60000000E+01
  1.00800000E+00  1.00800000E+00  1.60000000E+01  1.00800000E+00  1.00800000E+00
  1.60000000E+01  1.00800000E+00  1.00800000E+00  1.60000000E+01  1.00800000E+00
  1.00800000E+00  1.60000000E+01  1.00800000E+00  1.00800000E+00  1.60000000E+01
  1.00800000E+00  1.00800000E+00  1.60000000E+01  1.00800000E+00  1.00800000E+00
  1.60000000E+01  1.00800000E+00  1.00800000E+00  1.60000000E+01  1.00800000E+00
  1.00800000E+00  1.60000000E+01  1.00800000E+00  1.00800000E+00  1.60000000E+01
  1.00800000E+00  1.00800000E+00  1.60000000E+01  1.00800000E+00  1.00800000E+00
  1.60000000E+01  1.00800000E+00  1.00800000E+00  1.60000000E+01  1.00800000E+00
  1.00800000E+00  1.60000000E+01  1.00800000E+00  1.00800000E+00  1.60000000E+01
  1.00800000E+00  1.00800000E+00  1.60000000E+01  1.00800000E+00  1.00800000E+00
  1.60000000E+01  1.00800000E+00  1.00800000E+00  1.60000000E+01  1.00800000E+00
  1.00800000E+00  1.60000000E+01  1.00800000E+00  1.00800000E+00  1.60000000E+01
  1.00800000E+00  1.00800000E+00  1.60000000E+01  1.00800000E+00  1.00800000E+00
  1.60000000E+01  1.00800000E+00  1.00800000E+00  1.60000000E+01  1.00800000E+00
  1.00800000E+00  1.60000000E+01  1.00800000E+00  1.00800000E+00  1.60000000E+01
  1.00800000E+00  1.00800000E+00  1.60000000E+01  1.00800000E+00  1.00800000E+00
  1.60000000E+01  1.00800000E+00  1.00800000E+00  1.60000000E+01  1.00800000E+00
  1.00800000E+00  1.60000000E+01  1.00800000E+00  1.00800000E+00  1.60000000E+01
  1.00800000E+00  1.00800000E+00  1.60000000E+01  1.00800000E+00  1.00800000E+00
  1.60000000E+01  1.00800000E+00  1.00800000E+00  1.60000000E+01  1.00800000E+00
  1.00800000E+00  1.60000000E+01  1.00800000E+00  1.00800000E+00  1.60000000E+01
  1.00800000E+00  1.00800000E+00  1.60000000E+01  1.00800000E+00  1.00800000E+00
  1.60000000E+01  1.00800000E+00  1.00800000E+00  1.60000000E+01  1.00800000E+00
  1.00800000E+00  1.60000000E+01  1.00800000E+00  1.00800000E+00  1.60000000E+01
  1.00800000E+00  1.00800000E+00  1.60000000E+01  1.00800000E+00  1.00800000E+00
  1.60000000E+01  1.00800000E+00  1.00800000E+00  1.60000000E+01  1.00800000E+00
  1.00800000E+00  1.60000000E+01  1.00800000E+00  1.00800000E+00  1.60000000E+01
  1.00800000E+00  1.00800000E+00  1.60000000E+01  1.00800000E+00  1.00800000E+00
  1.60000000E+01  1.00800000E+00  1.00800000E+00  1.60000000E+01  1.00800000E+00
  1.00800000E+00  1.60000000E+01  1.00800000E+00  1.00800000E+00  1.60000000E+01
  1.00800000E+00  1.00800000E+00  1.60000000E+01  1.00800000E+00  1.00800000E+00
  1.60000000E+01  1.00800000E+00  1.00800000E+00  1.60000000E+01  1.00800000E+00
  1.00800000E+00  1.60000000E+01  1.00800000E+00  1.00800000E+00  1.60000000E+01
  1.00800000E+00  1.00800000E+00  1.60000000E+01  1.00800000E+00  1.00800000E+00
  1.60000000E+01  1.00800000E+00  1.00800000E+00  1.60000000E+01  1.00800000E+00
  1.00800000E+00  1.60000000E+01  1.00800000E+00  1.00800000E+00  1.60000000E+01
  1.00800000E+00  1.00800000E+00  1.60000000E+01  1.00800000E+00  1.00800000E+00
  1.60000000E+01  1.00800000E+00  1.00800000E+00  1.60000000E+01  1.00800000E+00
  1.00800000E+00  1.60000000E+01  1.00800000E+00  1.00800000E+00  1.60000000E+01
  1.00800000E+00  1.00800000E+00  1.60000000E+01  1.00800000E+00  1.00800000E+00
  1.60000000E+01  1.00800000E+00  1.00800000E+00  1.60000000E+01  1.00800000E+00
  1.00800000E+00  1.60000000E+01  1.00800000E+00  1.00800000E+00  1.60000000E+01
  1.00800000E+00  1.00800000E+00  1.60000000E+01  1.00800000E+00  1.00800000E+00
  1.60000000E+01  1.00800000E+00  1.00800000E+00  1.60000000E+01  1.00800000E+00
  1.00800000E+00  1.60000000E+01  1.00800000E+00  1.00800000E+00  1.60000000E+01
  1.00800000E+00  1.00800000E+00  1.60000000E+01  1.00800000E+00  1.00800000E+00
  1.60000000E+01  1.00800000E+00  1.00800000E+00  1.60000000E+01  1.00800000E+00
  1.00800000E+00  1.60000000E+01  1.00800000E+00  1.00800000E+00  1.60000000E+01
  1.00800000E+00  1.00800000E+00  1.60000000E+01  1.00800000E+00  1.00800000E+00
  1.60000000E+01  1.00800000E+00  1.00800000E+00  1.60000000E+01  1.00800000E+00
  1.00800000E+00  1.60000000E+01  1.00800000E+00  1.00800000E+00  1.60000000E+01
  1.00800000E+00  1.00800000E+00  1.60000000E+01  1.00800000E+00  1.00800000E+00
  1.60000000E+01  1.00800000E+00  1.00800000E+00  1.60000000E+01  1.00800000E+00
  1.00800000E+00  1.60000000E+01  1.00800000E+00  1.00800000E+00  1.60000000E+01
  1.00800000E+00  1.00800000E+00  1.60000000E+01  1.00800000E+00  1.00800000E+00
  1.60000000E+01  1.00800000E+00  1.00800000E+00  1.60000000E+01  1.00800000E+00
  1.00800000E+00  1.60000000E+01  1.00800000E+00  1.00800000E+00  1.60000000E+01
  1.00800000E+00  1.00800000E+00  1.60000000E+01  1.00800000E+00  1.00800000E+00
  1.60000000E+01  1.00800000E+00  1.00800000E+00  1.60000000E+01  1.00800000E+00
  1.00800000E+00  1.60000000E+01  1.00800000E+00  1.00800000E+00  1.60000000E+01
  1.00800000E+00  1.00800000E+00  1.60000000E+01  1.00800000E+00  1.00800000E+00
  1.60000000E+01  1.00800000E+00  1.00800000E+00  1.60000000E+01  1.00800000E+00
  1.00800000E+00  1.60000000E+01  1.00800000E+00  1.00800000E+00  1.60000000E+01
  1.00800000E+00  1.00800000E+00  1.60000000E+01  1.00800000E+00  1.00800000E+00
  1.60000000E+01  1.00800000E+00  1.00800000E+00  1.60000000E+01  1.00800000E+00
  1.00800000E+00  1.60000000E+01  1.00800000E+00  1.00800000E+00  1.60000000E+01
  1.00800000E+00  1.00800000E+00  1.60000000E+01  1.00800000E+00  1.00800000E+00
  1.60000000E+01  1.00800000E+00  1.00800000E+00  1.60000000E+01  1.00800000E+00
  1.00800000E+00  1.60000000E+01  1.00800000E+00  1.00800000E+00  1.60000000E+01
  1.00800000E+00  1.00800000E+00  1.60000000E+01  1.00800000E+00  1.00800000E+00
  1.60000000E+01  1.00800000E+00  1.00800000E+00  1.60000000E+01  1.00800000E+00
  1.00800000E+00  1.60000000E+01  1.00800000E+00  1.00800000E+00  1.60000000E+01
  1.00800000E+00  1.00800000E+00  1.60000000E+01  1.00800000E+00  1.00800000E+00
  1.60000000E+01  1.00800000E+00  1.00800000E+00  1.60000000E+01  1.00800000E+00
  1.00800000E+00  1.60000000E+01  1.00800000E+00  1.00800000E+00  1.60000000E+01
  1.00800000E+00  1.00800000E+00  1.60000000E+01  1.00800000E+00  1.00800000E+00
  1.60000000E+01  1.00800000E+00  1.00800000E+00  1.60000000E+01  1.00800000E+00
  1.00800000E+00  1.60000000E+01  1.00800000E+00  1.00800000E+00  1.60000000E+01
  1.00800000E+00  1.00800000E+00  1.60000000E+01  1.00800000E+00  1.00800000E+00
  1.60000000E+01  1.00800000E+00  1.00800000E+00  1.60000000E+01  1.00800000E+00
  1.00800000E+00  1.60000000E+01  1.00800000E+00  1.00800000E+00  1.60000000E+01
  1.00800000E+00  1.00800000E+00  1.60000000E+01  1.00800000E+00  1.00800000E+00
  1.60000000E+01  1.00800000E+00  1.00800000E+00  1.60000000E+01  1.00800000E+00
  1.00800000E+00  1.60000000E+01  1.00800000E+00  1.00800000E+00  1.60000000E+01
  1.00800000E+00  1.00800000E+00  1.60000000E+01  1.00800000E+00  1.00800000E+00
  1.60000000E+01  1.00800000E+00  1.00800000E+00  1.60000000E+01  1.00800000E+00
  1.00800000E+00  1.60000000E+01  1.00800000E+00  1.00800000E+00  1.60000000E+01
  1.00800000E+00  1.00800000E+00  1.60000000E+01  1.00800000E+00  1.00800000E+00
  1.60000000E+01  1.00800000E+00  1.00800000E+00  1.60000000E+01  1.00800000E+00
  1.00800000E+00  1.60000000E+01  1.00800000E+00  1.00800000E+00  1.60000000E+01
  1.00800000E+00  1.00800000E+00  1.60000000E+01  1.00800000E+00  1.00800000E+00
  1.60000000E+01  1.00800000E+00  1.00800000E+00  1.60000000E+01  1.00800000E+00
  1.00800000E+00  1.60000000E+01  1.00800000E+00  1.00800000E+00  1.60000000E+01
  1.00800000E+00  1.00800000E+00  1.60000000E+01  1.00800000E+00  1.00800000E+00
  1.60000000E+01  1.00800000E+00  1.00800000E+00  1.60000000E+01  1.00800000E+00
  1.00800000E+00  1.60000000E+01  1.00800000E+00  1.00800000E+00  1.60000000E+01
  1.00800000E+00  1.00800000E+00  1.60000000E+01  1.00800000E+00  1.00800000E+00
  1.60000000E+01  1.00800000E+00  1.00800000E+00  1.60000000E+01  1.00800000E+00
  1.00800000E+00  1.60000000E+01  1.00800000E+00  1.00800000E+00  1.60000000E+01
  1.00800000E+00  1.00800000E+00  1.60000000E+01  1.00800000E+00  1.00800000E+00
  1.60000000E+01  1.00800000E+00  1.00800000E+00  1.60000000E+01  1.00800000E+00
  1.00800000E+00  1.60000000E+01  1.00800000E+00  1.00800000E+00  1.60000000E+01
  1.00800000E+00  1.00800000E+00  1.60000000E+01  1.00800000E+00  1.00800000E+00
  1.60000000E+01  1.00800000E+00  1.00800000E+00  1.60000000E+01  1.00800000E+00
  1.00800000E+00  1.60000000E+01  1.00800000E+00  1.00800000E+00  1.60000000E+01
  1.00800000E+00  1.00800000E+00  1.60000000E+01  1.00800000E+00  1.00800000E+00
  1.60000000E+01  1.00800000E+00  1.00800000E+00  1.60000000E+01  1.00800000E+00
  1.00800000E+00  1.60000000E+01  1.00800000E+00  1.00800000E+00  1.60000000E+01
  1.00800000E+00  1.00800000E+00  1.60000000E+01  1.00800000E+00  1.00800000E+00
  1.60000000E+01  1.00800000E+00  1.00800000E+00  1.60000000E+01  1.00800000E+00
  1.00800000E+00  1.60000000E+01  1.00800000E+00  1.00800000E+00  1.60000000E+01
  1.00800000E+00  1.00800000E+00  1.60000000E+01  1.00800000E+00  1.00800000E+00
  1.60000000E+01  1.00800000E+00  1.00800000E+00  1.60000000E+01  1.00800000E+00
  1.00800000E+00  1.60000000E+01  1.00800000E+00  1.00800000E+00  1.60000000E+01
  1.00800000E+00  1.00800000E+00  1.60000000E+01  1.00800000E+00  1.00800000E+00
  1.60000000E+01  1.00800000E+00  1.00800000E+00  1.60000000E+01  1.00800000E+00
  1.00800000E+00  1.60000000E+01  1.00800000E+00  1.00800000E+00  1.60000000E+01
  1.00800000E+00  1.00800000E+00  1.60000000E+01  1.00800000E+00  1.00800000E+00
  1.60000000E+01  1.00800000E+00  1.00800000E+00  1.60000000E+01  1.00800000E+00
  1.00800000E+00  1.60000000E+01  1.00800000E+00  1.00800000E+00  1.60000000E+01
  1.00800000E+00  1.00800000E+00  1.60000000E+01  1.00800000E+00  1.00800000E+00
  1.60000000E+01  1.00800000E+00  1.00800000E+00  1.60000000E+01  1.00800000E+00
  1.00800000E+00  1.60000000E+01  1.00800000E+00  1.00800000E+00  1.60000000E+01
  1.00800000E+00  1.00800000E+00  1.60000000E+01  1.00800000E+00  1.00800000E+00
  1.60000000E+01  1.00800000E+00  1.00800000E+00  1.60000000E+01  1.00800000E+00
  1.00800000E+00  1.60000000E+01  1.00800000E+00  1.00800000E+00  1.60000000E+01
  1.00800000E+00  1.00800000E+00  1.60000000E+01  1.00800000E+00  1.00800000E+00
  1.60000000E+01  1.00800000E+00  1.00800000E+00  1.60000000E+01  1.00800000E+00
  1.00800000E+00  1.60000000E+01  1.00800000E+00  1.00800000E+00  1.60000000E+01
  1.00800000E+00  1.00800000E+00  1.60000000E+01  1.00800000E+00  1.00800000E+00
  1.60000000E+01  1.00800000E+00  1.00800000E+00  1.60000000E+01  1.00800000E+00
  1.00800000E+00  1.60000000E+01  1.00800000E+00  1.00800000E+00  1.60000000E+01
  1.00800000E+00  1.00800000E+00  1.60000000E+01  1.00800000E+00  1.00800000E+00
  1.60000000E+01  1.00800000E+00  1.00800000E+00  1.60000000E+01  1.00800000E+00
  1.00800000E+00  1.60000000E+01  1.00800000E+00  1.00800000E+00  1.60000000E+01
  1.00800000E+00  1.00800000E+00  1.60000000E+01  1.00800000E+00  1.00800000E+00
  1.60000000E+01  1.00800000E+00  1.00800000E+00  1.60000000E+01  1.00800000E+00
  1.00800000E+00  1.60000000E+01  1.00800000E+00  1.00800000E+00  1.60000000E+01
  1.00800000E+00  1.00800000E+00  1.60000000E+01  1.00800000E+00  1.00800000E+00
  1.60000000E+01  1.00800000E+00  1.00800000E+00  1.60000000E+01  1.00800000E+00
  1.00800000E+00  1.60000000E+01  1.00800000E+00  1.00800000E+00  1.60000000E+01
  1.00800000E+00  1.00800000E+00  1.60000000E+01  1.00800000E+00  1.00800000E+00
  1.60000000E+01  1.00800000E+00  1.00800000E+00  1.60000000E+01  1.00800000E+00
  1.00800000E+00  1.60000000E+01  1.00800000E+00  1.00800000E+00  1.60000000E+01
  1.00800000E+00  1.00800000E+00  1.60000000E+01  1.00800000E+00  1.00800000E+00
  1.60000000E+01  1.00800000E+00  1.00800000E+00  1.60000000E+01  1.00800000E+00
  1.00800000E+00  1.60000000E+01  1.00800000E+00  1.00800000E+00  1.60000000E+01
  1.00800000E+00  1.00800000E+00  1.60000000E+01  1.00800000E+00  1.00800000E+00
  1.60000000E+01  1.00800000E+00  1.00800000E+00  1.60000000E+01  1.00800000E+00
  1.00800000E+00  1.60000000E+01  1.00800000E+00  1.00800000E+00  1.60000000E+01
  1.00800000E+00  1.00800000E+00  1.60000000E+01  1.00800000E+00  1.00800000E+00
  1.60000000E+01  1.00800000E+00  1.00800000E+00  1.60000000E+01  1.00800000E+00
  1.00800000E+00  1.60000000E+01  1.00800000E+00  1.00800000E+00  1.60000000E+01
  1.00800000E+00  1.00800000E+00  1.60000000E+01  1.00800000E+00  1.00800000E+00
  1.60000000E+01  1.00800000E+00  1.00800000E+00  1.60000000E+01  1.00800000E+00
  1.00800000E+00  1.60000000E+01  1.00800000E+00  1.00800000E+00  1.60000000E+01
  1.00800000E+00  1.00800000E+00  1.60000000E+01  1.00800000E+00  1.00800000E+00
  1.60000000E+01  1.00800000E+00  1.00800000E+00  1.60000000E+01  1.00800000E+00
  1.00800000E+00  1.60000000E+01  1.00800000E+00  1.00800000E+00  1.60000000E+01
  1.00800000E+00  1.00800000E+00  1.60000000E+01  1.00800000E+00  1.00800000E+00
  1.60000000E+01  1.00800000E+00  1.00800000E+00  1.60000000E+01  1.00800000E+00
  1.00800000E+00  1.60000000E+01  1.00800000E+00  1.00800000E+00  1.60000000E+01
  1.00800000E+00  1.00800000E+00  1.60000000E+01  1.00800000E+00  1.00800000E+00
  1.60000000E+01  1.00800000E+00  1.00800000E+00  1.60000000E+01  1.00800000E+00
  1.00800000E+00  1.60000000E+01  1.00800000E+00  1.00800000E+00  1.60000000E+01
  1.00800000E+00  1.00800000E+00  1.60000000E+01  1.00800000E+00  1.00800000E+00
  1.60000000E+01  1.00800000E+00  1.00800000E+00  1.60000000E+01  1.00800000E+00
  1.00800000E+00  1.60000000E+01  1.00800000E+00  1.00800000E+00  1.60000000E+01
  1.00800000E+00  1.00800000E+00  1.60000000E+01  1.00800000E+00  1.00800000E+00
  1.60000000E+01  1.00800000E+00  1.00800000E+00  1.60000000E+01  1.00800000E+00
  1.00800000E+00  1.60000000E+01  1.00800000E+00  1.00800000E+00  1.60000000E+01
  1.00800000E+00  1.00800000E+00  1.60000000E+01  1.00800000E+00  1.00800000E+00
  1.60000000E+01  1.00800000E+00  1.00800000E+00  1.60000000E+01  1.00800000E+00
  1.00800000E+00  1.60000000E+01  1.00800000E+00  1.00800000E+00  1.60000000E+01
  1.00800000E+00  1.00800000E+00  1.60000000E+01  1.00800000E+00  1.00800000E+00
  1.60000000E+01  1.00800000E+00  1.00800000E+00  1.60000000E+01  1.00800000E+00
  1.00800000E+00  1.60000000E+01  1.00800000E+00  1.00800000E+00  1.60000000E+01
  1.00800000E+00  1.00800000E+00  1.60000000E+01  1.00800000E+00  1.00800000E+00
  1.60000000E+01  1.00800000E+00  1.00800000E+00  1.60000000E+01  1.00800000E+00
  1.00800000E+00  1.60000000E+01  1.00800000E+00  1.00800000E+00  1.60000000E+01
  1.00800000E+00  1.00800000E+00  1.60000000E+01  1.00800000E+00  1.00800000E+00
  1.60000000E+01  1.00800000E+00  1.00800000E+00  1.60000000E+01  1.00800000E+00
  1.00800000E+00  1.60000000E+01  1.00800000E+00  1.00800000E+00  1.60000000E+01
  1.00800000E+00  1.00800000E+00  1.60000000E+01  1.00800000E+00  1.00800000E+00
  1.60000000E+01  1.00800000E+00  1.00800000E+00  1.60000000E+01  1.00800000E+00
  1.00800000E+00  1.60000000E+01  1.00800000E+00  1.00800000E+00  1.60000000E+01
  1.00800000E+00  1.00800000E+00  1.60000000E+01  1.00800000E+00  1.00800000E+00
  1.60000000E+01  1.00800000E+00  1.00800000E+00  1.60000000E+01  1.00800000E+00
  1.00800000E+00  1.60000000E+01  1.00800000E+00  1.00800000E+00  1.60000000E+01
  1.00800000E+00  1.00800000E+00  1.60000000E+01  1.00800000E+00  1.00800000E+00
  1.60000000E+01  1.00800000E+00  1.00800000E+00  1.60000000E+01  1.00800000E+00
  1.00800000E+00  1.60000000E+01  1.00800000E+00  1.00800000E+00  1.60000000E+01
  1.00800000E+00  1.00800000E+00  1.60000000E+01  1.00800000E+00  1.00800000E+00
  1.60000000E+01  1.00800000E+00  1.00800000E+00  1.60000000E+01  1.00800000E+00
  1.00800000E+00  1.60000000E+01  1.00800000E+00  1.00800000E+00  1.60000000E+01
  1.00800000E+00  1.00800000E+00  1.60000000E+01  1.00800000E+00  1.00800000E+00
  1.60000000E+01  1.00800000E+00  1.00800000E+00  1.60000000E+01  1.00800000E+00
  1.00800000E+00  1.60000000E+01  1.00800000E+00  1.00800000E+00  1.60000000E+01
  1.00800000E+00  1.00800000E+00  1.60000000E+01  1.00800000E+00  1.00800000E+00
  1.60000000E+01  1.00800000E+00  1.00800000E+00  1.60000000E+01  1.00800000E+00
  1.00800000E+00  1.60000000E+01  1.00800000E+00  1.00800000E+00  1.60000000E+01
  1.00800000E+00  1.00800000E+00  1.60000000E+01  1.00800000E+00  1.00800000E+00
  1.60000000E+01  1.00800000E+00  1.00800000E+00  1.60000000E+01  1.00800000E+00
  1.00800000E+00  1.60000000E+01  1.00800000E+00  1.00800000E+00  1.60000000E+01
  1.00800000E+00  1.00800000E+00  1.60000000E+01  1.00800000E+00  1.00800000E+00
  1.60000000E+01  1.00800000E+00  1.00800000E+00  1.60000000E+01  1.00800000E+00
  1.00800000E+00  1.60000000E+01  1.00800000E+00  1.00800000E+00  1.60000000E+01
  1.00800000E+00  1.00800000E+00  1.60000000E+01  1.00800000E+00  1.00800000E+00
  1.60000000E+01  1.00800000E+00  1.00800000E+00  1.60000000E+01  1.00800000E+00
  1.00800000E+00  1.60000000E+01  1.00800000E+00  1.00800000E+00  1.60000000E+01
  1.00800000E+00  1.00800000E+00  1.60000000E+01  1.00800000E+00  1.00800000E+00
  1.60000000E+01  1.00800000E+00  1.00800000E+00  1.60000000E+01  1.00800000E+00
  1.00800000E+00  1.60000000E+01  1.00800000E+00  1.00800000E+00  1.60000000E+01
  1.00800000E+00  1.00800000E+00  1.60000000E+01  1.00800000E+00  1.00800000E+00
  1.60000000E+01  1.00800000E+00  1.00800000E+00  1.60000000E+01  1.00800000E+00
  1.00800000E+00  1.60000000E+01  1.00800000E+00  1.00800000E+00  1.60000000E+01
  1.00800000E+00  1.00800000E+00  1.60000000E+01  1.00800000E+00  1.00800000E+00
  1.60000000E+01  1.00800000E+00  1.00800000E+00  1.60000000E+01  1.00800000E+00
  1.00800000E+00  1.60000000E+01  1.00800000E+00  1.00800000E+00  1.60000000E+01
  1.00800000E+00  1.00800000E+00  1.60000000E+01  1.00800000E+00  1.00800000E+00
  1.60000000E+01  1.00800000E+00  1.00800000E+00  1.60000000E+01  1.00800000E+00
  1.00800000E+00  1.60000000E+01  1.00800000E+00  1.00800000E+00  1.60000000E+01
  1.00800000E+00  1.00800000E+00  1.60000000E+01  1.00800000E+00  1.00800000E+00
  1.60000000E+01  1.00800000E+00  1.00800000E+00  1.60000000E+01  1.00800000E+00
  1.00800000E+00  1.60000000E+01  1.00800000E+00  1.00800000E+00  1.60000000E+01
  1.00800000E+00  1.00800000E+00  1.60000000E+01  1.00800000E+00  1.00800000E+00
  1.60000000E+01  1.00800000E+00  1.00800000E+00  1.60000000E+01  1.00800000E+00
  1.00800000E+00  1.60000000E+01  1.00800000E+00  1.00800000E+00  1.60000000E+01
  1.00800000E+00  1.00800000E+00  1.60000000E+01  1.00800000E+00  1.00800000E+00
  1.60000000E+01  1.00800000E+00  1.00800000E+00  1.60000000E+01  1.00800000E+00
  1.00800000E+00  1.60000000E+01  1.00800000E+00  1.00800000E+00  1.60000000E+01
  1.00800000E+00  1.00800000E+00  1.60000000E+01  1.00800000E+00  1.00800000E+00
  1.60000000E+01  1.00800000E+00  1.00800000E+00  1.60000000E+01  1.00800000E+00
  1.00800000E+00  1.60000000E+01  1.00800000E+00  1.00800000E+00  1.60000000E+01
  1.00800000E+00  1.00800000E+00  1.60000000E+01  1.00800000E+00  1.00800000E+00
  1.60000000E+01  1.00800000E+00  1.00800000E+00  1.60000000E+01  1.00800000E+00
  1.00800000E+00  1.60000000E+01  1.00800000E+00  1.00800000E+00  1.60000000E+01
  1.00800000E+00  1.00800000E+00  1.60000000E+01  1.00800000E+00  1.00800000E+00
  1.60000000E+01  1.00800000E+00  1.00800000E+00  1.60000000E+01  1.00800000E+00
  1.00800000E+00  1.60000000E+01  1.00800000E+00  1.00800000E+00  1.60000000E+01
  1.00800000E+00  1.00800000E+00  1.60000000E+01  1.00800000E+00  1.00800000E+00
  1.60000000E+01  1.00800000E+00  1.00800000E+00  1.60000000E+01  1.00800000E+00
  1.00800000E+00  1.60000000E+01  1.00800000E+00  1.00800000E+00  1.60000000E+01
  1.00800000E+00  1.00800000E+00  1.60000000E+01  1.00800000E+00  1.00800000E+00
  1.60000000E+01  1.00800000E+00  1.00800000E+00  1.60000000E+01  1.00800000E+00
  1.00800000E+00  1.60000000E+01  1.00800000E+00  1.00800000E+00  1.60000000E+01
  1.00800000E+00  1.00800000E+00  1.60000000E+01  1.00800000E+00  1.00800000E+00
  1.60000000E+01  1.00800000E+00  1.00800000E+00  1.60000000E+01  1.00800000E+00
  1.00800000E+00  1.60000000E+01  1.00800000E+00  1.00800000E+00  1.60000000E+01
  1.00800000E+00  1.00800000E+00  1.60000000E+01  1.00800000E+00  1.00800000E+00
  1.60000000E+01  1.00800000E+00  1.00800000E+00  1.60000000E+01  1.00800000E+00
  1.00800000E+00  1.60000000E+01  1.00800000E+00  1.00800000E+00  1.60000000E+01
  1.00800000E+00  1.00800000E+00  1.60000000E+01  1.00800000E+00  1.00800000E+00
  1.60000000E+01  1.00800000E+00  1.00800000E+00  1.60000000E+01  1.00800000E+00
  1.00800000E+00  1.60000000E+01  1.00800000E+00  1.00800000E+00  1.60000000E+01
  1.00800000E+00  1.00800000E+00  1.60000000E+01  1.00800000E+00  1.00800000E+00
  1.60000000E+01  1.00800000E+00  1.00800000E+00  1.60000000E+01  1.00800000E+00
  1.00800000E+00  1.60000000E+01  1.00800000E+00  1.00800000E+00  1.60000000E+01
  1.00800000E+00  1.00800000E+00  1.60000000E+01  1.00800000E+00  1.00800000E+00
  1.60000000E+01  1.00800000E+00  1.00800000E+00  1.60000000E+01  1.00800000E+00
  1.00800000E+00  1.60000000E+01  1.00800000E+00  1.00800000E+00  1.60000000E+01
  1.00800000E+00  1.00800000E+00  1.60000000E+01  1.00800000E+00  1.00800000E+00
  1.60000000E+01  1.00800000E+00  1.00800000E+00  1.60000000E+01  1.00800000E+00
  1.00800000E+00  1.60000000E+01  1.00800000E+00  1.00800000E+00  1.60000000E+01
  1.00800000E+00  1.00800000E+00  1.60000000E+01  1.00800000E+00  1.00800000E+00
  1.60000000E+01  1.00800000E+00  1.00800000E+00  1.60000000E+01  1.00800000E+00
  1.00800000E+00  1.60000000E+01  1.00800000E+00  1.00800000E+00  1.60000000E+01
  1.00800000E+00  1.00800000E+00  1.60000000E+01  1.00800000E+00  1.00800000E+00
  1.60000000E+01  1.00800000E+00  1.00800000E+00  1.60000000E+01  1.00800000E+00
  1.00800000E+00  1.60000000E+01  1.00800000E+00  1.00800000E+00  1.60000000E+01
  1.00800000E+00  1.00800000E+00  1.60000000E+01  1.00800000E+00  1.00800000E+00
  1.60000000E+01  1.00800000E+00  1.00800000E+00  1.60000000E+01  1.00800000E+00
  1.00800000E+00  1.60000000E+01  1.00800000E+00  1.00800000E+00  1.60000000E+01
  1.00800000E+00  1.00800000E+00  1.60000000E+01  1.00800000E+00  1.00800000E+00
  1.60000000E+01  1.00800000E+00  1.00800000E+00  1.60000000E+01  1.00800000E+00
  1.00800000E+00  1.60000000E+01  1.00800000E+00  1.00800000E+00  1.60000000E+01
  1.00800000E+00  1.00800000E+00  1.60000000E+01  1.00800000E+00  1.00800000E+00
  1.60000000E+01  1.00800000E+00  1.00800000E+00  1.60000000E+01  1.00800000E+00
  1.00800000E+00  1.60000000E+01  1.00800000E+00  1.00800000E+00  1.60000000E+01
  1.00800000E+00  1.00800000E+00  1.60000000E+01  1.00800000E+00  1.00800000E+00
  1.60000000E+01  1.00800000E+00  1.00800000E+00  1.60000000E+01  1.00800000E+00
  1.00800000E+00  1.60000000E+01  1.00800000E+00  1.00800000E+00  1.60000000E+01
  1.00800000E+00  1.00800000E+00  1.60000000E+01  1.00800000E+00  1.00800000E+00
  1.60000000E+01  1.00800000E+00  1.00800000E+00  1.60000000E+01  1.00800000E+00
  1.00800000E+00  1.60000000E+01  1.00800000E+00  1.00800000E+00  1.60000000E+01
  1.00800000E+00  1.00800000E+00  1.60000000E+01  1.00800000E+00  1.00800000E+00
  1.60000000E+01  1.00800000E+00  1.00800000E+00  1.60000000E+01  1.00800000E+00
  1.00800000E+00  1.60000000E+01  1.00800000E+00  1.00800000E+00  1.60000000E+01
  1.00800000E+00  1.00800000E+00  1.60000000E+01  1.00800000E+00  1.00800000E+00
  1.60000000E+01  1.00800000E+00  1.00800000E+00  1.60000000E+01  1.00800000E+00
  1.00800000E+00  1.60000000E+01  1.00800000E+00  1.00800000E+00  1.60000000E+01
  1.00800000E+00  1.00800000E+00  1.60000000E+01  1.00800000E+00  1.00800000E+00
  1.60000000E+01  1.00800000E+00  1.00800000E+00  1.60000000E+01  1.00800000E+00
  1.00800000E+00  1.60000000E+01  1.00800000E+00  1.00800000E+00  1.60000000E+01
  1.00800000E+00  1.00800000E+00  1.60000000E+01  1.00800000E+00  1.00800000E+00
  1.60000000E+01  1.00800000E+00  1.00800000E+00  1.60000000E+01  1.00800000E+00
  1.00800000E+00  1.60000000E+01  1.00800000E+00  1.00800000E+00  1.60000000E+01
  1.00800000E+00  1.00800000E+00  1.60000000E+01  1.00800000E+00  1.00800000E+00
  1.60000000E+01  1.00800000E+00  1.00800000E+00  1.60000000E+01  1.00800000E+00
  1.00800000E+00  1.60000000E+01  1.00800000E+00  1.00800000E+00  1.60000000E+01
  1.00800000E+00  1.00800000E+00  1.60000000E+01  1.00800000E+00  1.00800000E+00
  1.60000000E+01  1.00800000E+00  1.00800000E+00  1.60000000E+01  1.00800000E+00
  1.00800000E+00  1.60000000E+01  1.00800000E+00  1.00800000E+00  1.60000000E+01
  1.00800000E+00  1.00800000E+00  1.60000000E+01  1.00800000E+00  1.00800000E+00
  1.60000000E+01  1.00800000E+00  1.00800000E+00  1.60000000E+01  1.00800000E+00
  1.00800000E+00  1.60000000E+01  1.00800000E+00  1.00800000E+00  1.60000000E+01
  1.00800000E+00  1.00800000E+00  1.60000000E+01  1.00800000E+00  1.00800000E+00
  1.60000000E+01  1.00800000E+00  1.00800000E+00  1.60000000E+01  1.00800000E+00
  1.00800000E+00  1.60000000E+01  1.00800000E+00  1.00800000E+00  1.60000000E+01
  1.00800000E+00  1.00800000E+00  1.60000000E+01  1.00800000E+00  1.00800000E+00
  1.60000000E+01  1.00800000E+00  1.00800000E+00  1.60000000E+01  1.00800000E+00
  1.00800000E+00  1.60000000E+01  1.00800000E+00  1.00800000E+00  1.60000000E+01
  1.00800000E+00  1.00800000E+00  1.60000000E+01  1.00800000E+00  1.00800000E+00
  1.60000000E+01  1.00800000E+00  1.00800000E+00  1.60000000E+01  1.00800000E+00
  1.00800000E+00  1.60000000E+01  1.00800000E+00  1.00800000E+00  1.60000000E+01
  1.00800000E+00  1.00800000E+00  1.60000000E+01  1.00800000E+00  1.00800000E+00
  1.60000000E+01  1.00800000E+00  1.00800000E+00  1.60000000E+01  1.00800000E+00
  1.00800000E+00  1.60000000E+01  1.00800000E+00  1.00800000E+00  1.60000000E+01
  1.00800000E+00  1.00800000E+00  1.60000000E+01  1.00800000E+00  1.00800000E+00
  1.60000000E+01  1.00800000E+00  1.00800000E+00  1.60000000E+01  1.00800000E+00
  1.00800000E+00  1.60000000E+01  1.00800000E+00  1.00800000E+00  1.60000000E+01
  1.00800000E+00  1.00800000E+00  1.60000000E+01  1.00800000E+00  1.00800000E+00
  1.60000000E+01  1.00800000E+00  1.00800000E+00  1.60000000E+01  1.00800000E+00
  1.00800000E+00  1.60000000E+01  1.00800000E+00  1.00800000E+00  1.60000000E+01
  1.00800000E+00  1.00800000E+00  1.60000000E+01  1.00800000E+00  1.00800000E+00
  1.60000000E+01  1.00800000E+00  1.00800000E+00  1.60000000E+01  1.00800000E+00
  1.00800000E+00  1.60000000E+01  1.00800000E+00  1.00800000E+00  1.60000000E+01
  1.00800000E+00  1.00800000E+00  1.60000000E+01  1.00800000E+00  1.00800000E+00
  1.60000000E+01  1.00800000E+00  1.00800000E+00  1.60000000E+01  1.00800000E+00
  1.00800000E+00  1.60000000E+01  1.00800000E+00  1.00800000E+00  1.60000000E+01
  1.00800000E+00  1.00800000E+00  1.60000000E+01  1.00800000E+00  1.00800000E+00
  1.60000000E+01  1.00800000E+00  1.00800000E+00  1.60000000E+01  1.00800000E+00
  1.00800000E+00  1.60000000E+01  1.00800000E+00  1.00800000E+00  1.60000000E+01
  1.00800000E+00  1.00800000E+00  1.60000000E+01  1.00800000E+00  1.00800000E+00
  1.60000000E+01  1.00800000E+00  1.00800000E+00  1.60000000E+01  1.00800000E+00
  1.00800000E+00  1.60000000E+01  1.00800000E+00  1.00800000E+00  1.60000000E+01
  1.00800000E+00  1.00800000E+00  1.60000000E+01  1.00800000E+00  1.00800000E+00
  1.60000000E+01  1.00800000E+00  1.00800000E+00  1.60000000E+01  1.00800000E+00
  1.00800000E+00  1.60000000E+01  1.00800000E+00  1.00800000E+00  1.60000000E+01
  1.00800000E+00  1.00800000E+00  1.60000000E+01  1.00800000E+00  1.00800000E+00
  1.60000000E+01  1.00800000E+00  1.00800000E+00  1.60000000E+01  1.00800000E+00
  1.00800000E+00  1.60000000E+01  1.00800000E+00  1.00800000E+00  1.60000000E+01
  1.00800000E+00  1.00800000E+00  1.60000000E+01  1.00800000E+00  1.00800000E+00
  1.60000000E+01  1.00800000E+00  1.00800000E+00  1.60000000E+01  1.00800000E+00
  1.00800000E+00  1.60000000E+01  1.00800000E+00  1.00800000E+00  1.60000000E+01
  1.00800000E+00  1.00800000E+00  1.60000000E+01  1.00800000E+00  1.00800000E+00
  1.60000000E+01  1.00800000E+00  1.00800000E+00  1.60000000E+01  1.00800000E+00
  1.00800000E+00  1.60000000E+01  1.00800000E+00  1.00800000E+00  1.60000000E+01
  1.00800000E+00  1.00800000E+00  1.60000000E+01  1.00800000E+00  1.00800000E+00
  1.60000000E+01  1.00800000E+00  1.00800000E+00  1.60000000E+01  1.00800000E+00
  1.00800000E+00  1.60000000E+01  1.00800000E+00  1.00800000E+00  1.60000000E+01
  1.00800000E+00  1.00800000E+00  1.60000000E+01  1.00800000E+00  1.00800000E+00
  1.60000000E+01  1.00800000E+00  1.00800000E+00  1.60000000E+01  1.00800000E+00
  1.00800000E+00  1.60000000E+01  1.00800000E+00  1.00800000E+00  1.60000000E+01
  1.00800000E+00  1.00800000E+00  1.60000000E+01  1.00800000E+00  1.00800000E+00
  1.60000000E+01  1.00800000E+00  1.00800000E+00  1.60000000E+01  1.00800000E+00
  1.00800000E+00  1.60000000E+01  1.00800000E+00  1.00800000E+00  1.60000000E+01
  1.00800000E+00  1.00800000E+00  1.60000000E+01  1.00800000E+00  1.00800000E+00
  1.60000000E+01  1.00800000E+00  1.00800000E+00  1.60000000E+01  1.00800000E+00
  1.00800000E+00  1.60000000E+01  1.00800000E+00  1.00800000E+00  1.60000000E+01
  1.00800000E+00  1.00800000E+00  1.60000000E+01  1.00800000E+00  1.00800000E+00
  1.60000000E+01  1.00800000E+00  1.00800000E+00  1.60000000E+01  1.00800000E+00
  1.00800000E+00  1.60000000E+01  1.00800000E+00  1.00800000E+00  1.60000000E+01
  1.00800000E+00  1.00800000E+00  1.60000000E+01  1.00800000E+00  1.00800000E+00
  1.60000000E+01  1.00800000E+00  1.00800000E+00  1.60000000E+01  1.00800000E+00
  1.00800000E+00  1.60000000E+01  1.00800000E+00  1.00800000E+00  1.60000000E+01
  1.00800000E+00  1.00800000E+00  1.60000000E+01  1.00800000E+00  1.00800000E+00
  1.60000000E+01  1.00800000E+00  1.00800000E+00  1.60000000E+01  1.00800000E+00
  1.00800000E+00  1.60000000E+01  1.00800000E+00  1.00800000E+00  1.60000000E+01
  1.00800000E+00  1.00800000E+00  1.60000000E+01  1.00800000E+00  1.00800000E+00
  1.60000000E+01  1.00800000E+00  1.00800000E+00  1.60000000E+01  1.00800000E+00
  1.00800000E+00  1.60000000E+01  1.00800000E+00  1.00800000E+00  1.60000000E+01
  1.00800000E+00  1.00800000E+00  1.60000000E+01  1.00800000E+00  1.00800000E+00
  1.60000000E+01  1.00800000E+00  1.00800000E+00  1.60000000E+01  1.00800000E+00
  1.00800000E+00  1.60000000E+01  1.00800000E+00  1.00800000E+00  1.60000000E+01
  1.00800000E+00  1.00800000E+00  1.60000000E+01  1.00800000E+00  1.00800000E+00
  1.60000000E+01  1.00800000E+00  1.00800000E+00  1.60000000E+01  1.00800000E+00
  1.00800000E+00  1.60000000E+01  1.00800000E+00  1.00800000E+00  1.60000000E+01
  1.00800000E+00  1.00800000E+00  1.60000000E+01  1.00800000E+00  1.00800000E+00
  1.60000000E+01  1.00800000E+00  1.00800000E+00  1.60000000E+01  1.00800000E+00
  1.00800000E+00  1.60000000E+01  1.00800000E+00  1.00800000E+00  1.60000000E+01
  1.00800000E+00  1.00800000E+00  1.60000000E+01  1.00800000E+00  1.00800000E+00
  1.60000000E+01  1.00800000E+00  1.00800000E+00  1.60000000E+01  1.00800000E+00
  1.00800000E+00  1.60000000E+01  1.00800000E+00  1.00800000E+00  1.60000000E+01
  1.00800000E+00  1.00800000E+00  1.60000000E+01  1.00800000E+00  1.00800000E+00
  1.60000000E+01  1.00800000E+00  1.00800000E+00  1.60000000E+01  1.00800000E+00
  1.00800000E+00  1.60000000E+01  1.00800000E+00  1.00800000E+00  1.60000000E+01
  1.00800000E+00  1.00800000E+00  1.60000000E+01  1.00800000E+00  1.00800000E+00
  1.60000000E+01  1.00800000E+00  1.00800000E+00  1.60000000E+01  1.00800000E+00
  1.00800000E+00  1.60000000E+01  1.00800000E+00  1.00800000E+00  1.60000000E+01
  1.00800000E+00  1.00800000E+00  1.60000000E+01  1.00800000E+00  1.00800000E+00
  1.60000000E+01  1.00800000E+00  1.00800000E+00  1.60000000E+01  1.00800000E+00
  1.00800000E+00  1.60000000E+01  1.00800000E+00  1.00800000E+00  1.60000000E+01
  1.00800000E+00  1.00800000E+00  1.60000000E+01  1.00800000E+00  1.00800000E+00
  1.60000000E+01  1.00800000E+00  1.00800000E+00  1.60000000E+01  1.00800000E+00
  1.00800000E+00  1.60000000E+01  1.00800000E+00  1.00800000E+00  1.60000000E+01
  1.00800000E+00  1.00800000E+00  1.60000000E+01  1.00800000E+00  1.00800000E+00
  1.60000000E+01  1.00800000E+00  1.00800000E+00  1.60000000E+01  1.00800000E+00
  1.00800000E+00  1.60000000E+01  1.00800000E+00  1.00800000E+00  1.60000000E+01
  1.00800000E+00  1.00800000E+00  1.60000000E+01  1.00800000E+00  1.00800000E+00
  1.60000000E+01  1.00800000E+00  1.00800000E+00  1.60000000E+01  1.00800000E+00
  1.00800000E+00  1.60000000E+01  1.00800000E+00  1.00800000E+00  1.60000000E+01
  1.00800000E+00  1.00800000E+00  1.60000000E+01  1.00800000E+00  1.00800000E+00
  1.60000000E+01  1.00800000E+00  1.00800000E+00  1.60000000E+01  1.00800000E+00
  1.00800000E+00  1.60000000E+01  1.00800000E+00  1.00800000E+00  1.60000000E+01
  1.00800000E+00  1.00800000E+00  1.60000000E+01  1.00800000E+00  1.00800000E+00
  1.60000000E+01  1.00800000E+00  1.00800000E+00  1.60000000E+01  1.00800000E+00
  1.00800000E+00  1.60000000E+01  1.00800000E+00  1.00800000E+00  1.60000000E+01
  1.00800000E+00  1.00800000E+00  1.60000000E+01  1.00800000E+00  1.00800000E+00
  1.60000000E+01  1.00800000E+00  1.00800000E+00  1.60000000E+01  1.00800000E+00
  1.00800000E+00  1.60000000E+01  1.00800000E+00  1.00800000E+00  1.60000000E+01
  1.00800000E+00  1.00800000E+00  1.60000000E+01  1.00800000E+00  1.00800000E+00
  1.60000000E+01  1.00800000E+00  1.00800000E+00  1.60000000E+01  1.00800000E+00
  1.00800000E+00  1.60000000E+01  1.00800000E+00  1.00800000E+00  1.60000000E+01
  1.00800000E+00  1.00800000E+00  1.60000000E+01  1.00800000E+00  1.00800000E+00
  1.60000000E+01  1.00800000E+00  1.00800000E+00  1.60000000E+01  1.00800000E+00
  1.00800000E+00  1.60000000E+01  1.00800000E+00  1.00800000E+00  1.60000000E+01
  1.00800000E+00  1.00800000E+00  1.60000000E+01  1.00800000E+00  1.00800000E+00
  1.60000000E+01  1.00800000E+00  1.00800000E+00  1.60000000E+01  1.00800000E+00
  1.00800000E+00  1.60000000E+01  1.00800000E+00  1.00800000E+00  1.60000000E+01
  1.00800000E+00  1.00800000E+00  1.60000000E+01  1.00800000E+00  1.00800000E+00
  1.60000000E+01  1.00800000E+00  1.00800000E+00  1.60000000E+01  1.00800000E+00
  1.00800000E+00  1.60000000E+01  1.00800000E+00  1.00800000E+00  1.60000000E+01
  1.00800000E+00  1.00800000E+00  1.60000000E+01  1.00800000E+00  1.00800000E+00
  1.60000000E+01  1.00800000E+00  1.00800000E+00  1.60000000E+01  1.00800000E+00
  1.00800000E+00  1.60000000E+01  1.00800000E+00  1.00800000E+00  1.60000000E+01
  1.00800000E+00  1.00800000E+00  1.60000000E+01  1.00800000E+00  1.00800000E+00
  1.60000000E+01  1.00800000E+00  1.00800000E+00  1.60000000E+01  1.00800000E+00
  1.00800000E+00  1.60000000E+01  1.00800000E+00  1.00800000E+00  1.60000000E+01
  1.00800000E+00  1.00800000E+00  1.60000000E+01  1.00800000E+00  1.00800000E+00
  1.60000000E+01  1.00800000E+00  1.00800000E+00  1.60000000E+01  1.00800000E+00
  1.00800000E+00  1.60000000E+01  1.00800000E+00  1.00800000E+00  1.60000000E+01
  1.00800000E+00  1.00800000E+00  1.60000000E+01  1.00800000E+00  1.00800000E+00
  1.60000000E+01  1.00800000E+00  1.00800000E+00  1.60000000E+01  1.00800000E+00
  1.00800000E+00  1.60000000E+01  1.00800000E+00  1.00800000E+00  1.60000000E+01
  1.00800000E+00  1.00800000E+00  1.60000000E+01  1.00800000E+00  1.00800000E+00
  1.60000000E+01  1.00800000E+00  1.00800000E+00  1.60000000E+01  1.00800000E+00
  1.00800000E+00  1.60000000E+01  1.00800000E+00  1.00800000E+00  1.60000000E+01
  1.00800000E+00  1.00800000E+00  1.60000000E+01  1.00800000E+00  1.00800000E+00
  1.60000000E+01  1.00800000E+00  1.00800000E+00  1.60000000E+01  1.00800000E+00
  1.00800000E+00  1.60000000E+01  1.00800000E+00  1.00800000E+00  1.60000000E+01
  1.00800000E+00  1.00800000E+00  1.60000000E+01  1.00800000E+00  1.00800000E+00
  1.60000000E+01  1.00800000E+00  1.00800000E+00  1.60000000E+01  1.00800000E+00
  1.00800000E+00  1.60000000E+01  1.00800000E+00  1.00800000E+00  1.60000000E+01
  1.00800000E+00  1.00800000E+00  1.60000000E+01  1.00800000E+00  1.00800000E+00
  1.60000000E+01  1.00800000E+00  1.00800000E+00  1.60000000E+01  1.00800000E+00
  1.00800000E+00  1.60000000E+01  1.00800000E+00  1.00800000E+00  1.60000000E+01
  1.00800000E+00  1.00800000E+00  1.60000000E+01  1.00800000E+00  1.00800000E+00
  1.60000000E+01  1.00800000E+00  1.00800000E+00  1.60000000E+01  1.00800000E+00
  1.00800000E+00  1.60000000E+01  1.00800000E+00  1.00800000E+00  1.60000000E+01
  1.00800000E+00  1.00800000E+00  1.60000000E+01  1.00800000E+00  1.00800000E+00
  1.60000000E+01  1.00800000E+00  1.00800000E+00  1.60000000E+01  1.00800000E+00
  1.00800000E+00  1.60000000E+01  1.00800000E+00  1.00800000E+00  1.60000000E+01
  1.00800000E+00  1.00800000E+00  1.60000000E+01  1.00800000E+00  1.00800000E+00
  1.60000000E+01  1.00800000E+00  1.00800000E+00  1.60000000E+01  1.00800000E+00
  1.00800000E+00  1.60000000E+01  1.00800000E+00  1.00800000E+00  1.60000000E+01
  1.00800000E+00  1.00800000E+00  1.60000000E+01  1.00800000E+00  1.00800000E+00
  1.60000000E+01  1.00800000E+00  1.00800000E+00  1.60000000E+01  1.00800000E+00
  1.00800000E+00  1.60000000E+01  1.00800000E+00  1.00800000E+00  1.60000000E+01
  1.00800000E+00  1.00800000E+00  1.60000000E+01  1.00800000E+00  1.00800000E+00
  1.60000000E+01  1.00800000E+00  1.00800000E+00  1.60000000E+01  1.00800000E+00
  1.00800000E+00  1.60000000E+01  1.00800000E+00  1.00800000E+00  1.60000000E+01
  1.00800000E+00  1.00800000E+00  1.60000000E+01  1.00800000E+00  1.00800000E+00
  1.60000000E+01  1.00800000E+00  1.00800000E+00  1.60000000E+01  1.00800000E+00
  1.00800000E+00  1.60000000E+01  1.00800000E+00  1.00800000E+00  1.60000000E+01
  1.00800000E+00  1.00800000E+00  1.60000000E+01  1.00800000E+00  1.00800000E+00
  1.60000000E+01  1.00800000E+00  1.00800000E+00  1.60000000E+01  1.00800000E+00
  1.00800000E+00  1.60000000E+01  1.00800000E+00  1.00800000E+00  1.60000000E+01
  1.00800000E+00  1.00800000E+00  1.60000000E+01  1.00800000E+00  1.00800000E+00
  1.60000000E+01  1.00800000E+00  1.00800000E+00  1.60000000E+01  1.00800000E+00
  1.00800000E+00  1.60000000E+01  1.00800000E+00  1.00800000E+00  1.60000000E+01
  1.00800000E+00  1.00800000E+00  1.60000000E+01  1.00800000E+00  1.00800000E+00
  1.60000000E+01  1.00800000E+00  1.00800000E+00  1.60000000E+01  1.00800000E+00
  1.00800000E+00  1.60000000E+01  1.00800000E+00  1.00800000E+00  1.60000000E+01
  1.00800000E+00  1.00800000E+00  1.60000000E+01  1.00800000E+00  1.00800000E+00
  1.60000000E+01  1.00800000E+00  1.00800000E+00  1.60000000E+01  1.00800000E+00
  1.00800000E+00  1.60000000E+01  1.00800000E+00  1.00800000E+00  1.60000000E+01
  1.00800000E+00  1.00800000E+00  1.60000000E+01  1.00800000E+00  1.00800000E+00
  1.60000000E+01  1.00800000E+00  1.00800000E+00  1.60000000E+01  1.00800000E+00
  1.00800000E+00  1.60000000E+01  1.00800000E+00  1.00800000E+00  1.60000000E+01
  1.00800000E+00  1.00800000E+00  1.60000000E+01  1.00800000E+00  1.00800000E+00
  1.60000000E+01  1.00800000E+00  1.00800000E+00  1.60000000E+01  1.00800000E+00
  1.00800000E+00  1.60000000E+01  1.00800000E+00  1.00800000E+00  1.60000000E+01
  1.00800000E+00  1.00800000E+00  1.60000000E+01  1.00800000E+00  1.00800000E+00
  1.60000000E+01  1.00800000E+00  1.00800000E+00  1.60000000E+01  1.00800000E+00
  1.00800000E+00  1.60000000E+01  1.00800000E+00  1.00800000E+00  1.60000000E+01
  1.00800000E+00  1.00800000E+00  1.60000000E+01  1.00800000E+00  1.00800000E+00
  1.60000000E+01  1.00800000E+00  1.00800000E+00  1.60000000E+01  1.00800000E+00
  1.00800000E+00  1.60000000E+01  1.00800000E+00  1.00800000E+00  1.60000000E+01
  1.00800000E+00  1.00800000E+00  1.60000000E+01  1.00800000E+00  1.00800000E+00
  1.60000000E+01  1.00800000E+00  1.00800000E+00  1.60000000E+01  1.00800000E+00
  1.00800000E+00  1.60000000E+01  1.00800000E+00  1.00800000E+00  1.60000000E+01
  1.00800000E+00  1.00800000E+00  1.60000000E+01  1.00800000E+00  1.00800000E+00
  1.60000000E+01  1.00800000E+00  1.00800000E+00  1.60000000E+01  1.00800000E+00
  1.00800000E+00  1.60000000E+01  1.00800000E+00  1.00800000E+00  1.60000000E+01
  1.00800000E+00  1.00800000E+00  1.60000000E+01  1.00800000E+00  1.00800000E+00
  1.60000000E+01  1.00800000E+00  1.00800000E+00  1.60000000E+01  1.00800000E+00
  1.00800000E+00  1.60000000E+01  1.00800000E+00  1.00800000E+00  1.60000000E+01
  1.00800000E+00  1.00800000E+00  1.60000000E+01  1.00800000E+00  1.00800000E+00
  1.60000000E+01  1.00800000E+00  1.00800000E+00  1.60000000E+01  1.00800000E+00
  1.00800000E+00  1.60000000E+01  1.00800000E+00  1.00800000E+00  1.60000000E+01
  1.00800000E+00  1.00800000E+00  1.60000000E+01  1.00800000E+00  1.00800000E+00
  1.60000000E+01  1.00800000E+00  1.00800000E+00  1.60000000E+01  1.00800000E+00
  1.00800000E+00  1.60000000E+01  1.00800000E+00  1.00800000E+00  1.60000000E+01
  1.00800000E+00  1.00800000E+00  1.60000000E+01  1.00800000E+00  1.00800000E+00
  1.60000000E+01  1.00800000E+00  1.00800000E+00  1.60000000E+01  1.00800000E+00
  1.00800000E+00  1.60000000E+01  1.00800000E+00  1.00800000E+00  1.60000000E+01
  1.00800000E+00  1.00800000E+00  1.60000000E+01  1.00800000E+00  1.00800000E+00
  1.60000000E+01  1.00800000E+00  1.00800000E+00  1.60000000E+01  1.00800000E+00
  1.00800000E+00  1.60000000E+01  1.00800000E+00  1.00800000E+00  1.60000000E+01
  1.00800000E+00  1.00800000E+00  1.60000000E+01  1.00800000E+00  1.00800000E+00
  1.60000000E+01  1.00800000E+00  1.00800000E+00  1.60000000E+01  1.00800000E+00
  1.00800000E+00  1.60000000E+01  1.00800000E+00  1.00800000E+00  1.60000000E+01
  1.00800000E+00  1.00800000E+00  1.60000000E+01  1.00800000E+00  1.00800000E+00
  1.60000000E+01  1.00800000E+00  1.00800000E+00  1.60000000E+01  1.00800000E+00
  1.00800000E+00  1.60000000E+01  1.00800000E+00  1.00800000E+00  1.60000000E+01
  1.00800000E+00  1.00800000E+00  1.60000000E+01  1.00800000E+00  1.00800000E+00
  1.60000000E+01  1.00800000E+00  1.00800000E+00  1.60000000E+01  1.00800000E+00
  1.00800000E+00  1.60000000E+01  1.00800000E+00  1.00800000E+00  1.60000000E+01
  1.00800000E+00  1.00800000E+00  1.60000000E+01  1.00800000E+00  1.00800000E+00
  1.60000000E+01  1.00800000E+00  1.00800000E+00  1.60000000E+01  1.00800000E+00
  1.00800000E+00  1.60000000E+01  1.00800000E+00  1.00800000E+00  1.60000000E+01
  1.00800000E+00  1.00800000E+00  1.60000000E+01  1.00800000E+00  1.00800000E+00
  1.60000000E+01  1.00800000E+00  1.00800000E+00  1.60000000E+01  1.00800000E+00
  1.00800000E+00  1.60000000E+01  1.00800000E+00  1.00800000E+00  1.60000000E+01
  1.00800000E+00  1.00800000E+00  1.60000000E+01  1.00800000E+00  1.00800000E+00
  1.60000000E+01  1.00800000E+00  1.00800000E+00  1.60000000E+01  1.00800000E+00
  1.00800000E+00  1.60000000E+01  1.00800000E+00  1.00800000E+00  1.60000000E+01
  1.00800000E+00  1.00800000E+00  1.60000000E+01  1.00800000E+00  1.00800000E+00
  1.60000000E+01  1.00800000E+00  1.00800000E+00  1.60000000E+01  1.00800000E+00
  1.00800000E+00  1.60000000E+01  1.00800000E+00  1.00800000E+00  1.60000000E+01
  1.00800000E+00  1.00800000E+00  1.60000000E+01  1.00800000E+00  1.00800000E+00
  1.60000000E+01  1.00800000E+00  1.00800000E+00  1.60000000E+01  1.00800000E+00
  1.00800000E+00  1.60000000E+01  1.00800000E+00  1.00800000E+00  1.60000000E+01
  1.00800000E+00  1.00800000E+00  1.60000000E+01  1.00800000E+00  1.00800000E+00
  1.60000000E+01  1.00800000E+00  1.00800000E+00  1.60000000E+01  1.00800000E+00
  1.00800000E+00  1.60000000E+01  1.00800000E+00  1.00800000E+00  1.60000000E+01
  1.00800000E+00  1.00800000E+00  1.60000000E+01  1.00800000E+00  1.00800000E+00
  1.60000000E+01  1.00800000E+00  1.00800000E+00  1.60000000E+01  1.00800000E+00
  1.00800000E+00  1.60000000E+01  1.00800000E+00  1.00800000E+00  1.60000000E+01
  1.00800000E+00  1.00800000E+00  1.60000000E+01  1.00800000E+00  1.00800000E+00
  1.60000000E+01  1.00800000E+00  1.00800000E+00  1.60000000E+01  1.00800000E+00
  1.00800000E+00  1.60000000E+01  1.00800000E+00  1.00800000E+00  1.60000000E+01
  1.00800000E+00  1.00800000E+00  1.60000000E+01  1.00800000E+00  1.00800000E+00
  1.60000000E+01  1.00800000E+00  1.00800000E+00  1.60000000E+01  1.00800000E+00
  1.00800000E+00  1.60000000E+01  1.00800000E+00  1.00800000E+00  1.60000000E+01
  1.00800000E+00  1.00800000E+00  1.60000000E+01  1.00800000E+00  1.00800000E+00
  1.60000000E+01  1.00800000E+00  1.00800000E+00  1.60000000E+01  1.00800000E+00
  1.00800000E+00  1.60000000E+01  1.00800000E+00  1.00800000E+00  1.60000000E+01
  1.00800000E+00  1.00800000E+00  1.60000000E+01  1.00800000E+00  1.00800000E+00
  1.60000000E+01  1.00800000E+00  1.00800000E+00  1.60000000E+01  1.00800000E+00
  1.00800000E+00  1.60000000E+01  1.00800000E+00  1.00800000E+00  1.60000000E+01
  1.00800000E+00  1.00800000E+00  1.60000000E+01  1.00800000E+00  1.00800000E+00
  1.60000000E+01  1.00800000E+00  1.00800000E+00  1.60000000E+01  1.00800000E+00
  1.00800000E+00  1.60000000E+01  1.00800000E+00  1.00800000E+00  1.60000000E+01
  1.00800000E+00  1.00800000E+00  1.60000000E+01  1.00800000E+00  1.00800000E+00
  1.60000000E+01  1.00800000E+00  1.00800000E+00  1.60000000E+01  1.00800000E+00
  1.00800000E+00  1.60000000E+01  1.00800000E+00  1.00800000E+00  1.60000000E+01
  1.00800000E+00  1.00800000E+00  1.60000000E+01  1.00800000E+00  1.00800000E+00
  1.60000000E+01  1.00800000E+00  1.00800000E+00  1.60000000E+01  1.00800000E+00
  1.00800000E+00  1.60000000E+01  1.00800000E+00  1.00800000E+00  1.60000000E+01
  1.00800000E+00  1.00800000E+00  1.60000000E+01  1.00800000E+00  1.00800000E+00
  1.60000000E+01  1.00800000E+00  1.00800000E+00  1.60000000E+01  1.00800000E+00
  1.00800000E+00  1.60000000E+01  1.00800000E+00  1.00800000E+00  1.60000000E+01
  1.00800000E+00  1.00800000E+00  1.60000000E+01  1.00800000E+00  1.00800000E+00
  1.60000000E+01  1.00800000E+00  1.00800000E+00  1.60000000E+01  1.00800000E+00
  1.00800000E+00  1.60000000E+01  1.00800000E+00  1.00800000E+00  1.60000000E+01
  1.00800000E+00  1.00800000E+00  1.60000000E+01  1.00800000E+00  1.00800000E+00
  1.60000000E+01  1.00800000E+00  1.00800000E+00  1.60000000E+01  1.00800000E+00
  1.00800000E+00  1.60000000E+01  1.00800000E+00  1.00800000E+00  1.60000000E+01
  1.00800000E+00  1.00800000E+00  1.60000000E+01  1.00800000E+00  1.00800000E+00
  1.60000000E+01  1.00800000E+00  1.00800000E+00  1.60000000E+01  1.00800000E+00
  1.00800000E+00  1.60000000E+01  1.00800000E+00  1.00800000E+00  1.60000000E+01
  1.00800000E+00  1.00800000E+00  1.60000000E+01  1.00800000E+00  1.00800000E+00
  1.60000000E+01  1.00800000E+00  1.00800000E+00  1.60000000E+01  1.00800000E+00
  1.00800000E+00  1.60000000E+01  1.00800000E+00  1.00800000E+00  1.60000000E+01
  1.00800000E+00  1.00800000E+00  1.60000000E+01  1.00800000E+00  1.00800000E+00
  1.60000000E+01  1.00800000E+00  1.00800000E+00  1.60000000E+01  1.00800000E+00
  1.00800000E+00  1.60000000E+01  1.00800000E+00  1.00800000E+00  1.60000000E+01
  1.00800000E+00  1.00800000E+00  1.60000000E+01  1.00800000E+00  1.00800000E+00
  1.60000000E+01  1.00800000E+00  1.00800000E+00  1.60000000E+01  1.00800000E+00
  1.00800000E+00  1.60000000E+01  1.00800000E+00  1.00800000E+00  1.60000000E+01
  1.00800000E+00  1.00800000E+00  1.60000000E+01  1.00800000E+00  1.00800000E+00
  1.60000000E+01  1.00800000E+00  1.00800000E+00  1.60000000E+01  1.00800000E+00
  1.00800000E+00  1.60000000E+01  1.00800000E+00  1.00800000E+00  1.60000000E+01
  1.00800000E+00  1.00800000E+00  1.60000000E+01  1.00800000E+00  1.00800000E+00
  1.60000000E+01  1.00800000E+00  1.00800000E+00  1.60000000E+01  1.00800000E+00
  1.00800000E+00  1.60000000E+01  1.00800000E+00  1.00800000E+00  1.60000000E+01
  1.00800000E+00  1.00800000E+00  1.60000000E+01  1.00800000E+00  1.00800000E+00
  1.60000000E+01  1.00800000E+00  1.00800000E+00  1.60000000E+01  1.00800000E+00
  1.00800000E+00  1.60000000E+01  1.00800000E+00  1.00800000E+00  1.60000000E+01
  1.00800000E+00  1.00800000E+00  1.60000000E+01  1.00800000E+00  1.00800000E+00
  1.60000000E+01  1.00800000E+00  1.00800000E+00  1.60000000E+01  1.00800000E+00
  1.00800000E+00  1.60000000E+01  1.00800000E+00  1.00800000E+00  1.60000000E+01
  1.00800000E+00  1.00800000E+00  1.60000000E+01  1.00800000E+00  1.00800000E+00
  1.60000000E+01  1.00800000E+00  1.00800000E+00  1.60000000E+01  1.00800000E+00
  1.00800000E+00  1.60000000E+01  1.00800000E+00  1.00800000E+00  1.60000000E+01
  1.00800000E+00  1.00800000E+00  1.60000000E+01  1.00800000E+00  1.00800000E+00
  1.60000000E+01  1.00800000E+00  1.00800000E+00  1.60000000E+01  1.00800000E+00
  1.00800000E+00  1.60000000E+01  1.00800000E+00  1.00800000E+00  1.60000000E+01
  1.00800000E+00  1.00800000E+00  1.60000000E+01  1.00800000E+00  1.00800000E+00
  1.60000000E+01  1.00800000E+00  1.00800000E+00  1.60000000E+01  1.00800000E+00
  1.00800000E+00  1.60000000E+01  1.00800000E+00  1.00800000E+00  1.60000000E+01
  1.00800000E+00  1.00800000E+00  1.60000000E+01  1.00800000E+00  1.00800000E+00
  1.60000000E+01  1.00800000E+00  1.00800000E+00  1.60000000E+01  1.00800000E+00
  1.00800000E+00  1.60000000E+01  1.00800000E+00  1.00800000E+00  1.60000000E+01
  1.00800000E+00  1.00800000E+00  1.60000000E+01  1.00800000E+00  1.00800000E+00
  1.60000000E+01  1.00800000E+00  1.00800000E+00  1.60000000E+01  1.00800000E+00
  1.00800000E+00  1.60000000E+01  1.00800000E+00  1.00800000E+00  1.60000000E+01
  1.00800000E+00  1.00800000E+00  1.60000000E+01  1.00800000E+00  1.00800000E+00
  1.60000000E+01  1.00800000E+00  1.00800000E+00  1.60000000E+01  1.00800000E+00
  1.00800000E+00  1.60000000E+01  1.00800000E+00  1.00800000E+00  1.60000000E+01
  1.00800000E+00  1.00800000E+00  1.60000000E+01  1.00800000E+00  1.00800000E+00
  1.60000000E+01  1.00800000E+00  1.00800000E+00  1.60000000E+01  1.00800000E+00
  1.00800000E+00  1.60000000E+01  1.00800000E+00  1.00800000E+00  1.60000000E+01
  1.00800000E+00  1.00800000E+00  1.60000000E+01  1.00800000E+00  1.00800000E+00
  1.60000000E+01  1.00800000E+00  1.00800000E+00  1.60000000E+01  1.00800000E+00
  1.00800000E+00  1.60000000E+01  1.00800000E+00  1.00800000E+00  1.60000000E+01
  1.00800000E+00  1.00800000E+00  1.60000000E+01  1.00800000E+00  1.00800000E+00
  1.60000000E+01  1.00800000E+00  1.00800000E+00  1.60000000E+01  1.00800000E+00
  1.00800000E+00  1.60000000E+01  1.00800000E+00  1.00800000E+00  1.60000000E+01
  1.00800000E+00  1.00800000E+00  1.60000000E+01  1.00800000E+00  1.00800000E+00
  1.60000000E+01  1.00800000E+00  1.00800000E+00  1.60000000E+01  1.00800000E+00
  1.00800000E+00  1.60000000E+01  1.00800000E+00  1.00800000E+00  1.60000000E+01
  1.00800000E+00  1.00800000E+00  1.60000000E+01  1.00800000E+00  1.00800000E+00
  1.60000000E+01  1.00800000E+00  1.00800000E+00  1.60000000E+01  1.00800000E+00
  1.00800000E+00  1.60000000E+01  1.00800000E+00  1.00800000E+00  1.60000000E+01
  1.00800000E+00  1.00800000E+00  1.60000000E+01  1.00800000E+00  1.00800000E+00
  1.60000000E+01  1.00800000E+00  1.00800000E+00  1.60000000E+01  1.00800000E+00
  1.00800000E+00  1.60000000E+01  1.00800000E+00  1.00800000E+00  1.60000000E+01
  1.00800000E+00  1.00800000E+00  1.60000000E+01  1.00800000E+00  1.00800000E+00
  1.60000000E+01  1.00800000E+00  1.00800000E+00  1.60000000E+01  1.00800000E+00
  1.00800000E+00  1.60000000E+01  1.00800000E+00  1.00800000E+00  1.60000000E+01
  1.00800000E+00  1.00800000E+00  1.60000000E+01  1.00800000E+00  1.00800000E+00
  1.60000000E+01  1.00800000E+00  1.00800000E+00  1.60000000E+01  1.00800000E+00
  1.00800000E+00  1.60000000E+01  1.00800000E+00  1.00800000E+00  1.60000000E+01
  1.00800000E+00  1.00800000E+00  1.60000000E+01  1.00800000E+00  1.00800000E+00
  1.60000000E+01  1.00800000E+00  1.00800000E+00  1.60000000E+01  1.00800000E+00
  1.00800000E+00  1.60000000E+01  1.00800000E+00  1.00800000E+00  1.60000000E+01
  1.00800000E+00  1.00800000E+00  1.60000000E+01  1.00800000E+00  1.00800000E+00
  1.60000000E+01  1.00800000E+00  1.00800000E+00  1.60000000E+01  1.00800000E+00
  1.00800000E+00  1.60000000E+01  1.00800000E+00  1.00800000E+00  1.60000000E+01
  1.00800000E+00  1.00800000E+00  1.60000000E+01  1.00800000E+00  1.00800000E+00
  1.60000000E+01  1.00800000E+00  1.00800000E+00  1.60000000E+01  1.00800000E+00
  1.00800000E+00  1.60000000E+01  1.00800000E+00  1.00800000E+00  1.60000000E+01
  1.00800000E+00  1.00800000E+00  1.60000000E+01  1.00800000E+00  1.00800000E+00
  1.60000000E+01  1.00800000E+00  1.00800000E+00  1.60000000E+01  1.00800000E+00
  1.00800000E+00  1.60000000E+01  1.00800000E+00  1.00800000E+00  1.60000000E+01
  1.00800000E+00  1.00800000E+00  1.60000000E+01  1.00800000E+00  1.00800000E+00
  1.60000000E+01  1.00800000E+00  1.00800000E+00  1.60000000E+01  1.00800000E+00
  1.00800000E+00  1.60000000E+01  1.00800000E+00  1.00800000E+00  1.60000000E+01
  1.00800000E+00  1.00800000E+00  1.60000000E+01  1.00800000E+00  1.00800000E+00
  1.60000000E+01  1.00800000E+00  1.00800000E+00  1.60000000E+01  1.00800000E+00
  1.00800000E+00  1.60000000E+01  1.00800000E+00  1.00800000E+00  1.60000000E+01
  1.00800000E+00  1.00800000E+00  1.60000000E+01  1.00800000E+00  1.00800000E+00
  1.60000000E+01  1.00800000E+00  1.00800000E+00  1.60000000E+01  1.00800000E+00
  1.00800000E+00  1.60000000E+01  1.00800000E+00  1.00800000E+00  1.60000000E+01
  1.00800000E+00  1.00800000E+00  1.60000000E+01  1.00800000E+00  1.00800000E+00
  1.60000000E+01  1.00800000E+00  1.00800000E+00  1.60000000E+01  1.00800000E+00
  1.00800000E+00  1.60000000E+01  1.00800000E+00  1.00800000E+00  1.60000000E+01
  1.00800000E+00  1.00800000E+00  1.60000000E+01  1.00800000E+00  1.00800000E+00
  1.60000000E+01  1.00800000E+00  1.00800000E+00  1.60000000E+01  1.00800000E+00
  1.00800000E+00  1.60000000E+01  1.00800000E+00  1.00800000E+00  1.60000000E+01
  1.00800000E+00  1.00800000E+00  1.60000000E+01  1.00800000E+00  1.00800000E+00
  1.60000000E+01  1.00800000E+00  1.00800000E+00  1.60000000E+01  1.00800000E+00
  1.00800000E+00  1.60000000E+01  1.00800000E+00  1.00800000E+00  1.60000000E+01
  1.00800000E+00  1.00800000E+00  1.60000000E+01  1.00800000E+00  1.00800000E+00
  1.60000000E+01  1.00800000E+00  1.00800000E+00  1.60000000E+01  1.00800000E+00
  1.00800000E+00  1.60000000E+01  1.00800000E+00  1.00800000E+00  1.60000000E+01
  1.00800000E+00  1.00800000E+00  1.60000000E+01  1.00800000E+00  1.00800000E+00
  1.60000000E+01  1.00800000E+00  1.00800000E+00  1.60000000E+01  1.00800000E+00
  1.00800000E+00  1.60000000E+01  1.00800000E+00  1.00800000E+00  1.60000000E+01
  1.00800000E+00  1.00800000E+00  1.60000000E+01  1.00800000E+00  1.00800000E+00
  1.60000000E+01  1.00800000E+00  1.00800000E+00  1.60000000E+01  1.00800000E+00
  1.00800000E+00  1.60000000E+01  1.00800000E+00  1.00800000E+00  1.60000000E+01
  1.00800000E+00  1.00800000E+00  1.60000000E+01  1.00800000E+00  1.00800000E+00
  1.60000000E+01  1.00800000E+00  1.00800000E+00  1.60000000E+01  1.00800000E+00
  1.00800000E+00  1.60000000E+01  1.00800000E+00  1.00800000E+00  1.60000000E+01
  1.00800000E+00  1.00800000E+00  1.60000000E+01  1.00800000E+00  1.00800000E+00
  1.60000000E+01  1.00800000E+00  1.00800000E+00  1.60000000E+01  1.00800000E+00
  1.00800000E+00  1.60000000E+01  1.00800000E+00  1.00800000E+00  1.60000000E+01
  1.00800000E+00  1.00800000E+00  1.60000000E+01  1.00800000E+00  1.00800000E+00
  1.60000000E+01  1.00800000E+00  1.00800000E+00  1.60000000E+01  1.00800000E+00
  1.00800000E+00  1.60000000E+01  1.00800000E+00  1.00800000E+00  1.60000000E+01
  1.00800000E+00  1.00800000E+00  1.60000000E+01  1.00800000E+00  1.00800000E+00
  1.60000000E+01  1.00800000E+00  1.00800000E+00  1.60000000E+01  1.00800000E+00
  1.00800000E+00  1.60000000E+01  1.00800000E+00  1.00800000E+00  1.60000000E+01
  1.00800000E+00  1.00800000E+00  1.60000000E+01  1.00800000E+00  1.00800000E+00
  1.60000000E+01  1.00800000E+00  1.00800000E+00  1.60000000E+01  1.00800000E+00
  1.00800000E+00  1.60000000E+01  1.00800000E+00  1.00800000E+00  1.60000000E+01
  1.00800000E+00  1.00800000E+00  1.60000000E+01  1.00800000E+00  1.00800000E+00
  1.60000000E+01  1.00800000E+00  1.00800000E+00  1.60000000E+01  1.00800000E+00
  1.00800000E+00  1.60000000E+01  1.00800000E+00  1.00800000E+00  1.60000000E+01
  1.00800000E+00  1.00800000E+00  1.60000000E+01  1.00800000E+00  1.00800000E+00
  1.60000000E+01  1.00800000E+00  1.00800000E+00  1.60000000E+01  1.00800000E+00
  1.00800000E+00  1.60000000E+01  1.00800000E+00  1.00800000E+00  1.60000000E+01
  1.00800000E+00  1.00800000E+00  1.60000000E+01  1.00800000E+00  1.00800000E+00
  1.60000000E+01  1.00800000E+00  1.00800000E+00  1.60000000E+01  1.00800000E+00
  1.00800000E+00  1.60000000E+01  1.00800000E+00  1.00800000E+00  1.60000000E+01
  1.00800000E+00  1.00800000E+00  1.60000000E+01  1.00800000E+00  1.00800000E+00
  1.60000000E+01  1.00800000E+00  1.00800000E+00  1.60000000E+01  1.00800000E+00
  1.00800000E+00  1.60000000E+01  1.00800000E+00  1.00800000E+00  1.60000000E+01
  1.00800000E+00  1.00800000E+00  1.60000000E+01  1.00800000E+00  1.00800000E+00
  1.60000000E+01  1.00800000E+00  1.00800000E+00  1.60000000E+01  1.00800000E+00
  1.00800000E+00  1.60000000E+01  1.00800000E+00  1.00800000E+00  1.60000000E+01
  1.00800000E+00  1.00800000E+00  1.60000000E+01  1.00800000E+00  1.00800000E+00
  1.60000000E+01  1.00800000E+00  1.00800000E+00  1.60000000E+01  1.00800000E+00
  1.00800000E+00  1.60000000E+01  1.00800000E+00  1.00800000E+00  1.60000000E+01
  1.00800000E+00  1.00800000E+00  1.60000000E+01  1.00800000E+00  1.00800000E+00
  1.60000000E+01  1.00800000E+00  1.00800000E+00  1.60000000E+01  1.00800000E+00
  1.00800000E+00  1.60000000E+01  1.00800000E+00  1.00800000E+00  1.60000000E+01
  1.00800000E+00  1.00800000E+00  1.60000000E+01  1.00800000E+00  1.00800000E+00
  1.60000000E+01  1.00800000E+00  1.00800000E+00  1.60000000E+01  1.00800000E+00
  1.00800000E+00  1.60000000E+01  1.00800000E+00  1.00800000E+00  1.60000000E+01
  1.00800000E+00  1.00800000E+00  1.60000000E+01  1.00800000E+00  1.00800000E+00
  1.60000000E+01  1.00800000E+00  1.00800000E+00  1.60000000E+01  1.00800000E+00
  1.00800000E+00  1.60000000E+01  1.00800000E+00  1.00800000E+00  1.60000000E+01
  1.00800000E+00  1.00800000E+00  1.60000000E+01  1.00800000E+00  1.00800000E+00
  1.60000000E+01  1.00800000E+00  1.00800000E+00  1.60000000E+01  1.00800000E+00
  1.00800000E+00  1.60000000E+01  1.00800000E+00  1.00800000E+00  1.60000000E+01
  1.00800000E+00  1.00800000E+00  1.60000000E+01  1.00800000E+00  1.00800000E+00
  1.60000000E+01  1.00800000E+00  1.00800000E+00  1.60000000E+01  1.00800000E+00
  1.00800000E+00  1.60000000E+01  1.00800000E+00  1.00800000E+00  1.60000000E+01
  1.00800000E+00  1.00800000E+00  1.60000000E+01  1.00800000E+00  1.00800000E+00
  1.60000000E+01  1.00800000E+00  1.00800000E+00  1.60000000E+01  1.00800000E+00
  1.00800000E+00  1.60000000E+01  1.00800000E+00  1.00800000E+00  1.60000000E+01
  1.00800000E+00  1.00800000E+00  1.60000000E+01  1.00800000E+00  1.00800000E+00
  1.60000000E+01  1.00800000E+00  1.00800000E+00  1.60000000E+01  1.00800000E+00
  1.00800000E+00  1.60000000E+01  1.00800000E+00  1.00800000E+00  1.60000000E+01
  1.00800000E+00  1.00800000E+00  1.60000000E+01  1.00800000E+00  1.00800000E+00
  1.60000000E+01  1.00800000E+00  1.00800000E+00  1.60000000E+01  1.00800000E+00
  1.00800000E+00  1.60000000E+01  1.00800000E+00  1.00800000E+00  1.60000000E+01
  1.00800000E+00  1.00800000E+00  1.60000000E+01  1.00800000E+00  1.00800000E+00
  1.60000000E+01  1.00800000E+00  1.00800000E+00  1.60000000E+01  1.00800000E+00
  1.00800000E+00  1.60000000E+01  1.00800000E+00  1.00800000E+00  1.60000000E+01
  1.00800000E+00  1.00800000E+00  1.60000000E+01  1.00800000E+00  1.00800000E+00
  1.60000000E+01  1.00800000E+00  1.00800000E+00  1.60000000E+01  1.00800000E+00
  1.00800000E+00  1.60000000E+01  1.00800000E+00  1.00800000E+00  1.60000000E+01
  1.00800000E+00  1.00800000E+00  1.60000000E+01  1.00800000E+00  1.00800000E+00
  1.60000000E+01  1.00800000E+00  1.00800000E+00  1.60000000E+01  1.00800000E+00
  1.00800000E+00  1.60000000E+01  1.00800000E+00  1.00800000E+00  1.60000000E+01
  1.00800000E+00  1.00800000E+00  1.60000000E+01  1.00800000E+00  1.00800000E+00
  1.60000000E+01  1.00800000E+00  1.00800000E+00  1.60000000E+01  1.00800000E+00
  1.00800000E+00  1.60000000E+01  1.00800000E+00  1.00800000E+00  1.60000000E+01
  1.00800000E+00  1.00800000E+00  1.60000000E+01  1.00800000E+00  1.00800000E+00
  1.60000000E+01  1.00800000E+00  1.00800000E+00  1.60000000E+01  1.00800000E+00
  1.00800000E+00  1.60000000E+01  1.00800000E+00  1.00800000E+00  1.60000000E+01
  1.00800000E+00  1.00800000E+00  1.60000000E+01  1.00800000E+00  1.00800000E+00
  1.60000000E+01  1.00800000E+00  1.00800000E+00  1.60000000E+01  1.00800000E+00
  1.00800000E+00  1.60000000E+01  1.00800000E+00  1.00800000E+00  1.60000000E+01
  1.00800000E+00  1.00800000E+00  1.60000000E+01  1.00800000E+00  1.00800000E+00
  1.60000000E+01  1.00800000E+00  1.00800000E+00  1.60000000E+01  1.00800000E+00
  1.00800000E+00  1.60000000E+01  1.00800000E+00  1.00800000E+00  1.60000000E+01
  1.00800000E+00  1.00800000E+00  1.60000000E+01  1.00800000E+00  1.00800000E+00
  1.60000000E+01  1.00800000E+00  1.00800000E+00  1.60000000E+01  1.00800000E+00
  1.00800000E+00  1.60000000E+01  1.00800000E+00  1.00800000E+00  1.60000000E+01
  1.00800000E+00  1.00800000E+00  1.60000000E+01  1.00800000E+00  1.00800000E+00
  1.60000000E+01  1.00800000E+00  1.00800000E+00  1.60000000E+01  1.00800000E+00
  1.00800000E+00  1.60000000E+01  1.00800000E+00  1.00800000E+00  1.60000000E+01
  1.00800000E+00  1.00800000E+00  1.60000000E+01  1.00800000E+00  1.00800000E+00
  1.60000000E+01  1.00800000E+00  1.00800000E+00  1.60000000E+01  1.00800000E+00
  1.00800000E+00  1.60000000E+01  1.00800000E+00  1.00800000E+00  1.60000000E+01
  1.00800000E+00  1.00800000E+00  1.60000000E+01  1.00800000E+00  1.00800000E+00
  1.60000000E+01  1.00800000E+00  1.00800000E+00  1.60000000E+01  1.00800000E+00
  1.00800000E+00  1.60000000E+01  1.00800000E+00  1.00800000E+00  1.60000000E+01
  1.00800000E+00  1.00800000E+00  1.60000000E+01  1.00800000E+00  1.00800000E+00
  1.60000000E+01  1.00800000E+00  1.00800000E+00  1.60000000E+01  1.00800000E+00
  1.00800000E+00  1.60000000E+01  1.00800000E+00  1.00800000E+00  1.60000000E+01
  1.00800000E+00  1.00800000E+00  1.60000000E+01  1.00800000E+00  1.00800000E+00
  1.60000000E+01  1.00800000E+00  1.00800000E+00  1.60000000E+01  1.00800000E+00
  1.00800000E+00  1.60000000E+01  1.00800000E+00  1.00800000E+00  1.60000000E+01
  1.00800000E+00  1.00800000E+00  1.60000000E+01  1.00800000E+00  1.00800000E+00
  1.60000000E+01  1.00800000E+00  1.00800000E+00  1.60000000E+01  1.00800000E+00
  1.00800000E+00  1.60000000E+01  1.00800000E+00  1.00800000E+00  1.60000000E+01
  1.00800000E+00  1.00800000E+00  1.60000000E+01  1.00800000E+00  1.00800000E+00
  1.60000000E+01  1.00800000E+00  1.00800000E+00  1.60000000E+01  1.00800000E+00
  1.00800000E+00  1.60000000E+01  1.00800000E+00  1.00800000E+00  1.60000000E+01
  1.00800000E+00  1.00800000E+00  1.60000000E+01  1.00800000E+00  1.00800000E+00
  1.60000000E+01  1.00800000E+00  1.00800000E+00  1.60000000E+01  1.00800000E+00
  1.00800000E+00  1.60000000E+01  1.00800000E+00  1.00800000E+00  1.60000000E+01
  1.00800000E+00  1.00800000E+00  1.60000000E+01  1.00800000E+00  1.00800000E+00
  1.60000000E+01  1.00800000E+00  1.00800000E+00  1.60000000E+01  1.00800000E+00
  1.00800000E+00  1.60000000E+01  1.00800000E+00  1.00800000E+00  1.60000000E+01
  1.00800000E+00  1.00800000E+00  1.60000000E+01  1.00800000E+00  1.00800000E+00
  1.60000000E+01  1.00800000E+00  1.00800000E+00  1.60000000E+01  1.00800000E+00
  1.00800000E+00  1.60000000E+01  1.00800000E+00  1.00800000E+00  1.60000000E+01
  1.00800000E+00  1.00800000E+00  1.60000000E+01  1.00800000E+00  1.00800000E+00
  1.60000000E+01  1.00800000E+00  1.00800000E+00  1.60000000E+01  1.00800000E+00
  1.00800000E+00  1.60000000E+01  1.00800000E+00  1.00800000E+00  1.60000000E+01
  1.00800000E+00  1.00800000E+00  1.60000000E+01  1.00800000E+00  1.00800000E+00
  1.60000000E+01  1.00800000E+00  1.00800000E+00  1.60000000E+01  1.00800000E+00
  1.00800000E+00  1.60000000E+01  1.00800000E+00  1.00800000E+00  1.60000000E+01
  1.00800000E+00  1.00800000E+00  1.60000000E+01  1.00800000E+00  1.00800000E+00
  1.60000000E+01  1.00800000E+00  1.00800000E+00  1.60000000E+01  1.00800000E+00
  1.00800000E+00  1.60000000E+01  1.00800000E+00  1.00800000E+00  1.60000000E+01
  1.00800000E+00  1.00800000E+00  1.60000000E+01  1.00800000E+00  1.00800000E+00
  1.60000000E+01  1.00800000E+00  1.00800000E+00  1.60000000E+01  1.00800000E+00
  1.00800000E+00  1.60000000E+01  1.00800000E+00  1.00800000E+00  1.60000000E+01
  1.00800000E+00  1.00800000E+00  1.60000000E+01  1.00800000E+00  1.00800000E+00
  1.60000000E+01  1.00800000E+00  1.00800000E+00  1.60000000E+01  1.00800000E+00
  1.00800000E+00  1.60000000E+01  1.00800000E+00  1.00800000E+00  1.60000000E+01
  1.00800000E+00  1.00800000E+00  1.60000000E+01  1.00800000E+00  1.00800000E+00
  1.60000000E+01  1.00800000E+00  1.00800000E+00  1.60000000E+01  1.00800000E+00
  1.00800000E+00  1.60000000E+01  1.00800000E+00  1.00800000E+00  1.60000000E+01
  1.00800000E+00  1.00800000E+00  1.60000000E+01  1.00800000E+00  1.00800000E+00
  1.60000000E+01  1.00800000E+00  1.00800000E+00  1.60000000E+01  1.00800000E+00
  1.00800000E+00  1.60000000E+01  1.00800000E+00  1.00800000E+00  1.60000000E+01
  1.00800000E+00  1.00800000E+00  1.60000000E+01  1.00800000E+00  1.00800000E+00
  1.60000000E+01  1.00800000E+00  1.00800000E+00  1.60000000E+01  1.00800000E+00
  1.00800000E+00  1.60000000E+01  1.00800000E+00  1.00800000E+00  1.60000000E+01
  1.00800000E+00  1.00800000E+00  1.60000000E+01  1.00800000E+00  1.00800000E+00
  1.60000000E+01  1.00800000E+00  1.00800000E+00  1.60000000E+01  1.00800000E+00
  1.00800000E+00  1.60000000E+01  1.00800000E+00  1.00800000E+00  1.60000000E+01
  1.00800000E+00  1.00800000E+00  1.60000000E+01  1.00800000E+00  1.00800000E+00
  1.60000000E+01  1.00800000E+00  1.00800000E+00  1.60000000E+01  1.00800000E+00
  1.00800000E+00  1.60000000E+01  1.00800000E+00  1.00800000E+00  1.60000000E+01
  1.00800000E+00  1.00800000E+00  1.60000000E+01  1.00800000E+00  1.00800000E+00
  1.60000000E+01  1.00800000E+00  1.00800000E+00  1.60000000E+01  1.00800000E+00
  1.00800000E+00  1.60000000E+01  1.00800000E+00  1.00800000E+00  1.60000000E+01
  1.00800000E+00  1.00800000E+00  1.60000000E+01  1.00800000E+00  1.00800000E+00
  1.60000000E+01  1.00800000E+00  1.00800000E+00  1.60000000E+01  1.00800000E+00
  1.00800000E+00  1.60000000E+01  1.00800000E+00  1.00800000E+00  1.60000000E+01
  1.00800000E+00  1.00800000E+00  1.60000000E+01  1.00800000E+00  1.00800000E+00
  1.60000000E+01  1.00800000E+00  1.00800000E+00  1.60000000E+01  1.00800000E+00
  1.00800000E+00  1.60000000E+01  1.00800000E+00  1.00800000E+00  1.60000000E+01
  1.00800000E+00  1.00800000E+00  1.60000000E+01  1.00800000E+00  1.00800000E+00
  1.60000000E+01  1.00800000E+00  1.00800000E+00  1.60000000E+01  1.00800000E+00
  1.00800000E+00  1.60000000E+01  1.00800000E+00  1.00800000E+00  1.60000000E+01
  1.00800000E+00  1.00800000E+00  1.60000000E+01  1.00800000E+00  1.00800000E+00
  1.60000000E+01  1.00800000E+00  1.00800000E+00  1.60000000E+01  1.00800000E+00
  1.00800000E+00  1.60000000E+01  1.00800000E+00  1.00800000E+00  1.60000000E+01
  1.00800000E+00  1.00800000E+00  1.60000000E+01  1.00800000E+00  1.00800000E+00
  1.60000000E+01  1.00800000E+00  1.00800000E+00  1.60000000E+01  1.00800000E+00
  1.00800000E+00  1.60000000E+01  1.00800000E+00  1.00800000E+00  1.60000000E+01
  1.00800000E+00  1.00800000E+00  1.60000000E+01  1.00800000E+00  1.00800000E+00
  1.60000000E+01  1.00800000E+00  1.00800000E+00  1.60000000E+01  1.00800000E+00
  1.00800000E+00  1.60000000E+01  1.00800000E+00  1.00800000E+00  1.60000000E+01
  1.00800000E+00  1.00800000E+00  1.60000000E+01  1.00800000E+00  1.00800000E+00
  1.60000000E+01  1.00800000E+00  1.00800000E+00  1.60000000E+01  1.00800000E+00
  1.00800000E+00  1.60000000E+01  1.00800000E+00  1.00800000E+00  1.60000000E+01
  1.00800000E+00  1.00800000E+00  1.60000000E+01  1.00800000E+00  1.00800000E+00
  1.60000000E+01  1.00800000E+00  1.00800000E+00  1.60000000E+01  1.00800000E+00
  1.00800000E+00  1.60000000E+01  1.00800000E+00  1.00800000E+00  1.60000000E+01
  1.00800000E+00  1.00800000E+00  1.60000000E+01  1.00800000E+00  1.00800000E+00
  1.60000000E+01  1.00800000E+00  1.00800000E+00  1.60000000E+01  1.00800000E+00
  1.00800000E+00  1.60000000E+01  1.00800000E+00  1.00800000E+00  1.60000000E+01
  1.00800000E+00  1.00800000E+00  1.60000000E+01  1.00800000E+00  1.00800000E+00
  1.60000000E+01  1.00800000E+00  1.00800000E+00  1.60000000E+01  1.00800000E+00
  1.00800000E+00  1.60000000E+01  1.00800000E+00  1.00800000E+00  1.60000000E+01
  1.00800000E+00  1.00800000E+00  1.60000000E+01  1.00800000E+00  1.00800000E+00
  1.60000000E+01  1.00800000E+00  1.00800000E+00  1.60000000E+01  1.00800000E+00
  1.00800000E+00  1.60000000E+01  1.00800000E+00  1.00800000E+00  1.60000000E+01
  1.00800000E+00  1.00800000E+00  1.60000000E+01  1.00800000E+00  1.00800000E+00
  1.60000000E+01  1.00800000E+00  1.00800000E+00  1.60000000E+01  1.00800000E+00
  1.00800000E+00  1.60000000E+01  1.00800000E+00  1.00800000E+00  1.60000000E+01
  1.00800000E+00  1.00800000E+00  1.60000000E+01  1.00800000E+00  1.00800000E+00
  1.60000000E+01  1.00800000E+00  1.00800000E+00  1.60000000E+01  1.00800000E+00
  1.00800000E+00  1.60000000E+01  1.00800000E+00  1.00800000E+00  1.60000000E+01
  1.00800000E+00  1.00800000E+00  1.60000000E+01  1.00800000E+00  1.00800000E+00
  1.60000000E+01  1.00800000E+00  1.00800000E+00  1.60000000E+01  1.00800000E+00
  1.00800000E+00  1.60000000E+01  1.00800000E+00  1.00800000E+00  1.60000000E+01
  1.00800000E+00  1.00800000E+00  1.60000000E+01  1.00800000E+00  1.00800000E+00
  1.60000000E+01  1.00800000E+00  1.00800000E+00  1.60000000E+01  1.00800000E+00
  1.00800000E+00  1.60000000E+01  1.00800000E+00  1.00800000E+00  1.60000000E+01
  1.00800000E+00  1.00800000E+00  1.60000000E+01  1.00800000E+00  1.00800000E+00
  1.60000000E+01  1.00800000E+00  1.00800000E+00  1.60000000E+01  1.00800000E+00
  1.00800000E+00  1.60000000E+01  1.00800000E+00  1.00800000E+00  1.60000000E+01
  1.00800000E+00  1.00800000E+00  1.60000000E+01  1.00800000E+00  1.00800000E+00
  1.60000000E+01  1.00800000E+00  1.00800000E+00  1.60000000E+01  1.00800000E+00
  1.00800000E+00  1.60000000E+01  1.00800000E+00  1.00800000E+00  1.60000000E+01
  1.00800000E+00  1.00800000E+00  1.60000000E+01  1.00800000E+00  1.00800000E+00
  1.60000000E+01  1.00800000E+00  1.00800000E+00  1.60000000E+01  1.00800000E+00
  1.00800000E+00  1.60000000E+01  1.00800000E+00  1.00800000E+00  1.60000000E+01
  1.00800000E+00  1.00800000E+00  1.60000000E+01  1.00800000E+00  1.00800000E+00
  1.60000000E+01  1.00800000E+00  1.00800000E+00  1.60000000E+01  1.00800000E+00
  1.00800000E+00  1.60000000E+01  1.00800000E+00  1.00800000E+00  1.60000000E+01
  1.00800000E+00  1.00800000E+00  1.60000000E+01  1.00800000E+00  1.00800000E+00
  1.60000000E+01  1.00800000E+00  1.00800000E+00  1.60000000E+01  1.00800000E+00
  1.00800000E+00  1.60000000E+01  1.00800000E+00  1.00800000E+00  1.60000000E+01
  1.00800000E+00  1.00800000E+00  1.60000000E+01  1.00800000E+00  1.00800000E+00
  1.60000000E+01  1.00800000E+00  1.00800000E+00  1.60000000E+01  1.00800000E+00
  1.00800000E+00  1.60000000E+01  1.00800000E+00  1.00800000E+00  1.60000000E+01
  1.00800000E+00  1.00800000E+00  1.60000000E+01  1.00800000E+00  1.00800000E+00
  1.60000000E+01  1.00800000E+00  1.00800000E+00  1.60000000E+01  1.00800000E+00
  1.00800000E+00  1.60000000E+01  1.00800000E+00  1.00800000E+00  1.60000000E+01
  1.00800000E+00  1.00800000E+00  1.60000000E+01  1.00800000E+00  1.00800000E+00
  1.60000000E+01  1.00800000E+00  1.00800000E+00  1.60000000E+01  1.00800000E+00
  1.00800000E+00  1.60000000E+01  1.00800000E+00  1.00800000E+00  1.60000000E+01
  1.00800000E+00  1.00800000E+00  1.60000000E+01  1.00800000E+00  1.00800000E+00
  1.60000000E+01  1.00800000E+00  1.00800000E+00  1.60000000E+01  1.00800000E+00
  1.00800000E+00  1.60000000E+01  1.00800000E+00  1.00800000E+00  1.60000000E+01
  1.00800000E+00  1.00800000E+00  1.60000000E+01  1.00800000E+00  1.00800000E+00
  1.60000000E+01  1.00800000E+00  1.00800000E+00  1.60000000E+01  1.00800000E+00
  1.00800000E+00  1.60000000E+01  1.00800000E+00  1.00800000E+00  1.60000000E+01
  1.00800000E+00  1.00800000E+00  1.60000000E+01  1.00800000E+00  1.00800000E+00
  1.60000000E+01  1.00800000E+00  1.00800000E+00  1.60000000E+01  1.00800000E+00
  1.00800000E+00  1.60000000E+01  1.00800000E+00  1.00800000E+00  1.60000000E+01
  1.00800000E+00  1.00800000E+00  1.60000000E+01  1.00800000E+00  1.00800000E+00
  1.60000000E+01  1.00800000E+00  1.00800000E+00  1.60000000E+01  1.00800000E+00
  1.00800000E+00  1.60000000E+01  1.00800000E+00  1.00800000E+00  1.60000000E+01
  1.00800000E+00  1.00800000E+00  1.60000000E+01  1.00800000E+00  1.00800000E+00
  1.60000000E+01  1.00800000E+00  1.00800000E+00  1.60000000E+01  1.00800000E+00
  1.00800000E+00  1.60000000E+01  1.00800000E+00  1.00800000E+00  1.60000000E+01
  1.00800000E+00  1.00800000E+00  1.60000000E+01  1.00800000E+00  1.00800000E+00
  1.60000000E+01  1.00800000E+00  1.00800000E+00  1.60000000E+01  1.00800000E+00
  1.00800000E+00  1.60000000E+01  1.00800000E+00  1.00800000E+00  1.60000000E+01
  1.00800000E+00  1.00800000E+00  1.60000000E+01  1.00800000E+00  1.00800000E+00
  1.60000000E+01  1.00800000E+00  1.00800000E+00  1.60000000E+01  1.00800000E+00
  1.00800000E+00  1.60000000E+01  1.00800000E+00  1.00800000E+00  1.60000000E+01
  1.00800000E+00  1.00800000E+00  1.60000000E+01  1.00800000E+00  1.00800000E+00
  1.60000000E+01  1.00800000E+00  1.00800000E+00  1.60000000E+01  1.00800000E+00
  1.00800000E+00  1.60000000E+01  1.00800000E+00  1.00800000E+00  1.60000000E+01
  1.00800000E+00  1.00800000E+00  1.60000000E+01  1.00800000E+00  1.00800000E+00
  1.60000000E+01  1.00800000E+00  1.00800000E+00  1.60000000E+01  1.00800000E+00
  1.00800000E+00  1.60000000E+01  1.00800000E+00  1.00800000E+00  1.60000000E+01
  1.00800000E+00  1.00800000E+00  1.60000000E+01  1.00800000E+00  1.00800000E+00
  1.60000000E+01  1.00800000E+00  1.00800000E+00  1.60000000E+01  1.00800000E+00
  1.00800000E+00  1.60000000E+01  1.00800000E+00  1.00800000E+00  1.60000000E+01
  1.00800000E+00  1.00800000E+00  1.60000000E+01  1.00800000E+00  1.00800000E+00
  1.60000000E+01  1.00800000E+00  1.00800000E+00  1.60000000E+01  1.00800000E+00
  1.00800000E+00  1.60000000E+01  1.00800000E+00  1.00800000E+00  1.60000000E+01
  1.00800000E+00  1.00800000E+00  1.60000000E+01  1.00800000E+00  1.00800000E+00
  1.60000000E+01  1.00800000E+00  1.00800000E+00  1.60000000E+01  1.00800000E+00
  1.00800000E+00  1.60000000E+01  1.00800000E+00  1.00800000E+00  1.60000000E+01
  1.00800000E+00  1.00800000E+00  1.60000000E+01  1.00800000E+00  1.00800000E+00
  1.60000000E+01  1.00800000E+00  1.00800000E+00  1.60000000E+01  1.00800000E+00
  1.00800000E+00  1.60000000E+01  1.00800000E+00  1.00800000E+00  1.60000000E+01
  1.00800000E+00  1.00800000E+00  1.60000000E+01  1.00800000E+00  1.00800000E+00
  1.60000000E+01  1.00800000E+00  1.00800000E+00  1.60000000E+01  1.00800000E+00
  1.00800000E+00  1.60000000E+01  1.00800000E+00  1.00800000E+00  1.60000000E+01
  1.00800000E+00  1.00800000E+00  1.60000000E+01  1.00800000E+00  1.00800000E+00
  1.60000000E+01  1.00800000E+00  1.00800000E+00  1.60000000E+01  1.00800000E+00
  1.00800000E+00  1.60000000E+01  1.00800000E+00  1.00800000E+00  1.60000000E+01
  1.00800000E+00  1.00800000E+00  1.60000000E+01  1.00800000E+00  1.00800000E+00
  1.60000000E+01  1.00800000E+00  1.00800000E+00  1.60000000E+01  1.00800000E+00
  1.00800000E+00  1.60000000E+01  1.00800000E+00  1.00800000E+00  1.60000000E+01
  1.00800000E+00  1.00800000E+00  1.60000000E+01  1.00800000E+00  1.00800000E+00
  1.60000000E+01  1.00800000E+00  1.00800000E+00  1.60000000E+01  1.00800000E+00
  1.00800000E+00  1.60000000E+01  1.00800000E+00  1.00800000E+00  1.60000000E+01
  1.00800000E+00  1.00800000E+00  1.60000000E+01  1.00800000E+00  1.00800000E+00
  1.60000000E+01  1.00800000E+00  1.00800000E+00  1.60000000E+01  1.00800000E+00
  1.00800000E+00  1.60000000E+01  1.00800000E+00  1.00800000E+00  1.60000000E+01
  1.00800000E+00  1.00800000E+00  1.60000000E+01  1.00800000E+00  1.00800000E+00
  1.60000000E+01  1.00800000E+00  1.00800000E+00  1.60000000E+01  1.00800000E+00
  1.00800000E+00  1.60000000E+01  1.00800000E+00  1.00800000E+00  1.60000000E+01
  1.00800000E+00  1.00800000E+00  1.60000000E+01  1.00800000E+00  1.00800000E+00
  1.60000000E+01  1.00800000E+00  1.00800000E+00  1.60000000E+01  1.00800000E+00
  1.00800000E+00  1.60000000E+01  1.00800000E+00  1.00800000E+00  1.60000000E+01
  1.00800000E+00  1.00800000E+00  1.60000000E+01  1.00800000E+00  1.00800000E+00
  1.60000000E+01  1.00800000E+00  1.00800000E+00  1.60000000E+01  1.00800000E+00
  1.00800000E+00  1.60000000E+01  1.00800000E+00  1.00800000E+00  1.60000000E+01
  1.00800000E+00  1.00800000E+00  1.60000000E+01  1.00800000E+00  1.00800000E+00
  1.60000000E+01  1.00800000E+00  1.00800000E+00  1.60000000E+01  1.00800000E+00
  1.00800000E+00  1.60000000E+01  1.00800000E+00  1.00800000E+00  1.60000000E+01
  1.00800000E+00  1.00800000E+00  1.60000000E+01  1.00800000E+00  1.00800000E+00
  1.60000000E+01  1.00800000E+00  1.00800000E+00  1.60000000E+01  1.00800000E+00
  1.00800000E+00  1.60000000E+01  1.00800000E+00  1.00800000E+00  1.60000000E+01
  1.00800000E+00  1.00800000E+00  1.60000000E+01  1.00800000E+00  1.00800000E+00
  1.60000000E+01  1.00800000E+00  1.00800000E+00  1.60000000E+01  1.00800000E+00
  1.00800000E+00  1.60000000E+01  1.00800000E+00  1.00800000E+00  1.60000000E+01
  1.00800000E+00  1.00800000E+00  1.60000000E+01  1.00800000E+00  1.00800000E+00
  1.60000000E+01  1.00800000E+00  1.00800000E+00  1.60000000E+01  1.00800000E+00
  1.00800000E+00  1.60000000E+01  1.00800000E+00  1.00800000E+00  1.60000000E+01
  1.00800000E+00  1.00800000E+00  1.60000000E+01  1.00800000E+00  1.00800000E+00
  1.60000000E+01  1.00800000E+00  1.00800000E+00  1.60000000E+01  1.00800000E+00
  1.00800000E+00  1.60000000E+01  1.00800000E+00  1.00800000E+00  1.60000000E+01
  1.00800000E+00  1.00800000E+00  1.60000000E+01  1.00800000E+00  1.00800000E+00
  1.60000000E+01  1.00800000E+00  1.00800000E+00  1.60000000E+01  1.00800000E+00
  1.00800000E+00  1.60000000E+01  1.00800000E+00  1.00800000E+00  1.60000000E+01
  1.00800000E+00  1.00800000E+00  1.60000000E+01  1.00800000E+00  1.00800000E+00
  1.60000000E+01  1.00800000E+00  1.00800000E+00  1.60000000E+01  1.00800000E+00
  1.00800000E+00  1.60000000E+01  1.00800000E+00  1.00800000E+00  1.60000000E+01
  1.00800000E+00  1.00800000E+00  1.60000000E+01  1.00800000E+00  1.00800000E+00
  1.60000000E+01  1.00800000E+00  1.00800000E+00  1.60000000E+01  1.00800000E+00
  1.00800000E+00  1.60000000E+01  1.00800000E+00  1.00800000E+00  1.60000000E+01
  1.00800000E+00  1.00800000E+00  1.60000000E+01  1.00800000E+00  1.00800000E+00
  1.60000000E+01  1.00800000E+00  1.00800000E+00  1.60000000E+01  1.00800000E+00
  1.00800000E+00  1.60000000E+01  1.00800000E+00  1.00800000E+00  1.60000000E+01
  1.00800000E+00  1.00800000E+00  1.60000000E+01  1.00800000E+00  1.00800000E+00
  1.60000000E+01  1.00800000E+00  1.00800000E+00  1.60000000E+01  1.00800000E+00
  1.00800000E+00  1.60000000E+01  1.00800000E+00  1.00800000E+00  1.60000000E+01
  1.00800000E+00  1.00800000E+00  1.60000000E+01  1.00800000E+00  1.00800000E+00
  1.60000000E+01  1.00800000E+00  1.00800000E+00  1.60000000E+01  1.00800000E+00
  1.00800000E+00  1.60000000E+01  1.00800000E+00  1.00800000E+00  1.60000000E+01
  1.00800000E+00  1.00800000E+00  1.60000000E+01  1.00800000E+00  1.00800000E+00
  1.60000000E+01  1.00800000E+00  1.00800000E+00  1.60000000E+01  1.00800000E+00
  1.00800000E+00  1.60000000E+01  1.00800000E+00  1.00800000E+00  1.60000000E+01
  1.00800000E+00  1.00800000E+00  1.60000000E+01  1.00800000E+00  1.00800000E+00
  1.60000000E+01  1.00800000E+00  1.00800000E+00  1.60000000E+01  1.00800000E+00
  1.00800000E+00  1.60000000E+01  1.00800000E+00  1.00800000E+00  1.60000000E+01
  1.00800000E+00  1.00800000E+00  1.60000000E+01  1.00800000E+00  1.00800000E+00
  1.60000000E+01  1.00800000E+00  1.00800000E+00  1.60000000E+01  1.00800000E+00
  1.00800000E+00  1.60000000E+01  1.00800000E+00  1.00800000E+00  1.60000000E+01
  1.00800000E+00  1.00800000E+00  1.60000000E+01  1.00800000E+00  1.00800000E+00
  1.60000000E+01  1.00800000E+00  1.00800000E+00  1.60000000E+01  1.00800000E+00
  1.00800000E+00  1.60000000E+01  1.00800000E+00  1.00800000E+00  1.60000000E+01
  1.00800000E+00  1.00800000E+00  1.60000000E+01  1.00800000E+00  1.00800000E+00
  1.60000000E+01  1.00800000E+00  1.00800000E+00  1.60000000E+01  1.00800000E+00
  1.00800000E+00  1.60000000E+01  1.00800000E+00  1.00800000E+00  1.60000000E+01
  1.00800000E+00  1.00800000E+00  1.60000000E+01  1.00800000E+00  1.00800000E+00
  1.60000000E+01  1.00800000E+00  1.00800000E+00  1.60000000E+01  1.00800000E+00
  1.00800000E+00  1.60000000E+01  1.00800000E+00  1.00800000E+00  1.60000000E+01
  1.00800000E+00  1.00800000E+00  1.60000000E+01  1.00800000E+00  1.00800000E+00
  1.60000000E+01  1.00800000E+00  1.00800000E+00  1.60000000E+01  1.00800000E+00
  1.00800000E+00  1.60000000E+01  1.00800000E+00  1.00800000E+00  1.60000000E+01
  1.00800000E+00  1.00800000E+00  1.60000000E+01  1.00800000E+00  1.00800000E+00
  1.60000000E+01  1.00800000E+00  1.00800000E+00  1.60000000E+01  1.00800000E+00
  1.00800000E+00  1.60000000E+01  1.00800000E+00  1.00800000E+00  1.60000000E+01
  1.00800000E+00  1.00800000E+00  1.60000000E+01  1.00800000E+00  1.00800000E+00
  1.60000000E+01  1.00800000E+00  1.00800000E+00  1.60000000E+01  1.00800000E+00
  1.00800000E+00  1.60000000E+01  1.00800000E+00  1.00800000E+00  1.60000000E+01
  1.00800000E+00  1.00800000E+00  1.60000000E+01  1.00800000E+00  1.00800000E+00
  1.60000000E+01  1.00800000E+00  1.00800000E+00  1.60000000E+01  1.00800000E+00
  1.00800000E+00  1.60000000E+01  1.00800000E+00  1.00800000E+00  1.60000000E+01
  1.00800000E+00  1.00800000E+00  1.60000000E+01  1.00800000E+00  1.00800000E+00
  1.60000000E+01  1.00800000E+00  1.00800000E+00  1.60000000E+01  1.00800000E+00
  1.00800000E+00  1.60000000E+01  1.00800000E+00  1.00800000E+00  1.60000000E+01
  1.00800000E+00  1.00800000E+00  1.60000000E+01  1.00800000E+00  1.00800000E+00
  1.60000000E+01  1.00800000E+00  1.00800000E+00  1.60000000E+01  1.00800000E+00
  1.00800000E+00  1.60000000E+01  1.00800000E+00  1.00800000E+00  1.60000000E+01
  1.00800000E+00  1.00800000E+00  1.60000000E+01  1.00800000E+00  1.00800000E+00
  1.60000000E+01  1.00800000E+00  1.00800000E+00  1.60000000E+01  1.00800000E+00
  1.00800000E+00  1.60000000E+01  1.00800000E+00  1.00800000E+00  1.60000000E+01
  1.00800000E+00  1.00800000E+00  1.60000000E+01  1.00800000E+00  1.00800000E+00
  1.60000000E+01  1.00800000E+00  1.00800000E+00  1.60000000E+01  1.00800000E+00
  1.00800000E+00  1.60000000E+01  1.00800000E+00  1.00800000E+00  1.60000000E+01
  1.00800000E+00  1.00800000E+00  1.60000000E+01  1.00800000E+00  1.00800000E+00
  1.60000000E+01  1.00800000E+00  1.00800000E+00  1.60000000E+01  1.00800000E+00
  1.00800000E+00  1.60000000E+01  1.00800000E+00  1.00800000E+00  1.60000000E+01
  1.00800000E+00  1.00800000E+00  1.60000000E+01  1.00800000E+00  1.00800000E+00
  1.60000000E+01  1.00800000E+00  1.00800000E+00  1.60000000E+01  1.00800000E+00
  1.00800000E+00  1.60000000E+01  1.00800000E+00  1.00800000E+00  1.60000000E+01
  1.00800000E+00  1.00800000E+00  1.60000000E+01  1.00800000E+00  1.00800000E+00
  1.60000000E+01  1.00800000E+00  1.00800000E+00  1.60000000E+01  1.00800000E+00
  1.00800000E+00  1.60000000E+01  1.00800000E+00  1.00800000E+00  1.60000000E+01
  1.00800000E+00  1.00800000E+00  1.60000000E+01  1.00800000E+00  1.00800000E+00
  1.60000000E+01  1.00800000E+00  1.00800000E+00  1.60000000E+01  1.00800000E+00
  1.00800000E+00  1.60000000E+01  1.00800000E+00  1.00800000E+00  1.60000000E+01
  1.00800000E+00  1.00800000E+00  1.60000000E+01  1.00800000E+00  1.00800000E+00
  1.60000000E+01  1.00800000E+00  1.00800000E+00  1.60000000E+01  1.00800000E+00
  1.00800000E+00  1.60000000E+01  1.00800000E+00  1.00800000E+00  1.60000000E+01
  1.00800000E+00  1.00800000E+00  1.60000000E+01  1.00800000E+00  1.00800000E+00
  1.60000000E+01  1.00800000E+00  1.00800000E+00  1.60000000E+01  1.00800000E+00
  1.00800000E+00  1.60000000E+01  1.00800000E+00  1.00800000E+00  1.60000000E+01
  1.00800000E+00  1.00800000E+00  1.60000000E+01  1.00800000E+00  1.00800000E+00
  1.60000000E+01  1.00800000E+00  1.00800000E+00  1.60000000E+01  1.00800000E+00
  1.00800000E+00  1.60000000E+01  1.00800000E+00  1.00800000E+00  1.60000000E+01
  1.00800000E+00  1.00800000E+00  1.60000000E+01  1.00800000E+00  1.00800000E+00
  1.60000000E+01  1.00800000E+00  1.00800000E+00  1.60000000E+01  1.00800000E+00
  1.00800000E+00  1.60000000E+01  1.00800000E+00  1.00800000E+00  1.60000000E+01
  1.00800000E+00  1.00800000E+00  1.60000000E+01  1.00800000E+00  1.00800000E+00
  1.60000000E+01  1.00800000E+00  1.00800000E+00  1.60000000E+01  1.00800000E+00
  1.00800000E+00  1.60000000E+01  1.00800000E+00  1.00800000E+00  1.60000000E+01
  1.00800000E+00  1.00800000E+00  1.60000000E+01  1.00800000E+00  1.00800000E+00
  1.60000000E+01  1.00800000E+00  1.00800000E+00  1.60000000E+01  1.00800000E+00
  1.00800000E+00  1.60000000E+01  1.00800000E+00  1.00800000E+00  1.60000000E+01
  1.00800000E+00  1.00800000E+00  1.60000000E+01  1.00800000E+00  1.00800000E+00
  1.60000000E+01  1.00800000E+00  1.00800000E+00  1.60000000E+01  1.00800000E+00
  1.00800000E+00  1.60000000E+01  1.00800000E+00  1.00800000E+00  1.60000000E+01
  1.00800000E+00  1.00800000E+00  1.60000000E+01  1.00800000E+00  1.00800000E+00
  1.60000000E+01  1.00800000E+00  1.00800000E+00  1.60000000E+01  1.00800000E+00
  1.00800000E+00  1.60000000E+01  1.00800000E+00  1.00800000E+00  1.60000000E+01
  1.00800000E+00  1.00800000E+00  1.60000000E+01  1.00800000E+00  1.00800000E+00
  1.60000000E+01  1.00800000E+00  1.00800000E+00  1.60000000E+01  1.00800000E+00
  1.00800000E+00  1.60000000E+01  1.00800000E+00  1.00800000E+00  1.60000000E+01
  1.00800000E+00  1.00800000E+00  1.60000000E+01  1.00800000E+00  1.00800000E+00
  1.60000000E+01  1.00800000E+00  1.00800000E+00  1.60000000E+01  1.00800000E+00
  1.00800000E+00  1.60000000E+01  1.00800000E+00  1.00800000E+00  1.60000000E+01
  1.00800000E+00  1.00800000E+00  1.60000000E+01  1.00800000E+00  1.00800000E+00
  1.60000000E+01  1.00800000E+00  1.00800000E+00  1.60000000E+01  1.00800000E+00
  1.00800000E+00  1.60000000E+01  1.00800000E+00  1.00800000E+00  1.60000000E+01
  1.00800000E+00  1.00800000E+00  1.60000000E+01  1.00800000E+00  1.00800000E+00
  1.60000000E+01  1.00800000E+00  1.00800000E+00  1.60000000E+01  1.00800000E+00
  1.00800000E+00  1.60000000E+01  1.00800000E+00  1.00800000E+00  1.60000000E+01
  1.00800000E+00  1.00800000E+00  1.60000000E+01  1.00800000E+00  1.00800000E+00
  1.60000000E+01  1.00800000E+00  1.00800000E+00  1.60000000E+01  1.00800000E+00
  1.00800000E+00  1.60000000E+01  1.00800000E+00  1.00800000E+00  1.60000000E+01
  1.00800000E+00  1.00800000E+00  1.60000000E+01  1.00800000E+00  1.00800000E+00
  1.60000000E+01  1.00800000E+00  1.00800000E+00  1.60000000E+01  1.00800000E+00
  1.00800000E+00  1.60000000E+01  1.00800000E+00  1.00800000E+00  1.60000000E+01
  1.00800000E+00  1.00800000E+00  1.60000000E+01  1.00800000E+00  1.00800000E+00
  1.60000000E+01  1.00800000E+00  1.00800000E+00  1.60000000E+01  1.00800000E+00
  1.00800000E+00  1.60000000E+01  1.00800000E+00  1.00800000E+00  1.60000000E+01
  1.00800000E+00  1.00800000E+00  1.60000000E+01  1.00800000E+00  1.00800000E+00
  1.60000000E+01  1.00800000E+00  1.00800000E+00  1.60000000E+01  1.00800000E+00
  1.00800000E+00  1.60000000E+01  1.00800000E+00  1.00800000E+00  1.60000000E+01
  1.00800000E+00  1.00800000E+00  1.60000000E+01  1.00800000E+00  1.00800000E+00
  1.60000000E+01  1.00800000E+00  1.00800000E+00  1.60000000E+01  1.00800000E+00
  1.00800000E+00  1.60000000E+01  1.00800000E+00  1.00800000E+00  1.60000000E+01
  1.00800000E+00  1.00800000E+00  1.60000000E+01  1.00800000E+00  1.00800000E+00
  1.60000000E+01  1.00800000E+00  1.00800000E+00  1.60000000E+01  1.00800000E+00
  1.00800000E+00  1.60000000E+01  1.00800000E+00  1.00800000E+00  1.60000000E+01
  1.00800000E+00  1.00800000E+00  1.60000000E+01  1.00800000E+00  1.00800000E+00
  1.60000000E+01  1.00800000E+00  1.00800000E+00  1.60000000E+01  1.00800000E+00
  1.00800000E+00  1.60000000E+01  1.00800000E+00  1.00800000E+00  1.60000000E+01
  1.00800000E+00  1.00800000E+00  1.60000000E+01  1.00800000E+00  1.00800000E+00
  1.60000000E+01  1.00800000E+00  1.00800000E+00  1.60000000E+01  1.00800000E+00
  1.00800000E+00  1.60000000E+01  1.00800000E+00  1.00800000E+00  1.60000000E+01
  1.00800000E+00  1.00800000E+00  1.60000000E+01  1.00800000E+00  1.00800000E+00
  1.60000000E+01  1.00800000E+00  1.00800000E+00  1.60000000E+01  1.00800000E+00
  1.00800000E+00  1.60000000E+01  1.00800000E+00  1.00800000E+00  1.60000000E+01
  1.00800000E+00  1.00800000E+00  1.60000000E+01  1.00800000E+00  1.00800000E+00
  1.60000000E+01  1.00800000E+00  1.00800000E+00  1.60000000E+01  1.00800000E+00
  1.00800000E+00  1.60000000E+01  1.00800000E+00  1.00800000E+00  1.60000000E+01
  1.00800000E+00  1.00800000E+00  1.60000000E+01  1.00800000E+00  1.00800000E+00
  1.60000000E+01  1.00800000E+00  1.00800000E+00  1.60000000E+01  1.00800000E+00
  1.00800000E+00  1.60000000E+01  1.00800000E+00  1.00800000E+00  1.60000000E+01
  1.00800000E+00  1.00800000E+00  1.60000000E+01  1.00800000E+00  1.00800000E+00
  1.60000000E+01  1.00800000E+00  1.00800000E+00  1.60000000E+01  1.00800000E+00
  1.00800000E+00  1.60000000E+01  1.00800000E+00  1.00800000E+00  1.60000000E+01
  1.00800000E+00  1.00800000E+00  1.60000000E+01  1.00800000E+00  1.00800000E+00
  1.60000000E+01  1.00800000E+00  1.00800000E+00  1.60000000E+01  1.00800000E+00
  1.00800000E+00  1.60000000E+01  1.00800000E+00  1.00800000E+00  1.60000000E+01
  1.00800000E+00  1.00800000E+00  1.60000000E+01  1.00800000E+00  1.00800000E+00
  1.60000000E+01  1.00800000E+00  1.00800000E+00  1.60000000E+01  1.00800000E+00
  1.00800000E+00  1.60000000E+01  1.00800000E+00  1.00800000E+00  1.60000000E+01
  1.00800000E+00  1.00800000E+00  1.60000000E+01  1.00800000E+00  1.00800000E+00
  1.60000000E+01  1.00800000E+00  1.00800000E+00  1.60000000E+01  1.00800000E+00
  1.00800000E+00  1.60000000E+01  1.00800000E+00  1.00800000E+00  1.60000000E+01
  1.00800000E+00  1.00800000E+00  1.60000000E+01  1.00800000E+00  1.00800000E+00
  1.60000000E+01  1.00800000E+00  1.00800000E+00  1.60000000E+01  1.00800000E+00
  1.00800000E+00  1.60000000E+01  1.00800000E+00  1.00800000E+00  1.60000000E+01
  1.00800000E+00  1.00800000E+00  1.60000000E+01  1.00800000E+00  1.00800000E+00
  1.60000000E+01  1.00800000E+00  1.00800000E+00  1.60000000E+01  1.00800000E+00
  1.00800000E+00  1.60000000E+01  1.00800000E+00  1.00800000E+00  1.60000000E+01
  1.00800000E+00  1.00800000E+00  1.60000000E+01  1.00800000E+00  1.00800000E+00
  1.60000000E+01  1.00800000E+00  1.00800000E+00  1.60000000E+01  1.00800000E+00
  1.00800000E+00  1.60000000E+01  1.00800000E+00  1.00800000E+00  1.60000000E+01
  1.00800000E+00  1.00800000E+00  1.60000000E+01  1.00800000E+00  1.00800000E+00
  1.60000000E+01  1.00800000E+00  1.00800000E+00  1.60000000E+01  1.00800000E+00
  1.00800000E+00  1.60000000E+01  1.00800000E+00  1.00800000E+00  1.60000000E+01
  1.00800000E+00  1.00800000E+00  1.60000000E+01  1.00800000E+00  1.00800000E+00
  1.60000000E+01  1.00800000E+00  1.00800000E+00  1.60000000E+01  1.00800000E+00
  1.00800000E+00  1.60000000E+01  1.00800000E+00  1.00800000E+00  1.60000000E+01
  1.00800000E+00  1.00800000E+00  1.60000000E+01  1.00800000E+00  1.00800000E+00
  1.60000000E+01  1.00800000E+00  1.00800000E+00  1.60000000E+01  1.00800000E+00
  1.00800000E+00  1.60000000E+01  1.00800000E+00  1.00800000E+00  1.60000000E+01
  1.00800000E+00  1.00800000E+00  1.60000000E+01  1.00800000E+00  1.00800000E+00
  1.60000000E+01  1.00800000E+00  1.00800000E+00  1.60000000E+01  1.00800000E+00
  1.00800000E+00  1.60000000E+01  1.00800000E+00  1.00800000E+00  1.60000000E+01
  1.00800000E+00  1.00800000E+00  1.60000000E+01  1.00800000E+00  1.00800000E+00
  1.60000000E+01  1.00800000E+00  1.00800000E+00  1.60000000E+01  1.00800000E+00
  1.00800000E+00  1.60000000E+01  1.00800000E+00  1.00800000E+00  1.60000000E+01
  1.00800000E+00  1.00800000E+00  1.60000000E+01  1.00800000E+00  1.00800000E+00
  1.60000000E+01  1.00800000E+00  1.00800000E+00  1.60000000E+01  1.00800000E+00
  1.00800000E+00  1.60000000E+01  1.00800000E+00  1.00800000E+00  1.60000000E+01
  1.00800000E+00  1.00800000E+00  1.60000000E+01  1.00800000E+00  1.00800000E+00
  1.60000000E+01  1.00800000E+00  1.00800000E+00  1.60000000E+01  1.00800000E+00
  1.00800000E+00  1.60000000E+01  1.00800000E+00  1.00800000E+00  1.60000000E+01
  1.00800000E+00  1.00800000E+00  1.60000000E+01  1.00800000E+00  1.00800000E+00
  1.60000000E+01  1.00800000E+00  1.00800000E+00  1.60000000E+01  1.00800000E+00
  1.00800000E+00  1.60000000E+01  1.00800000E+00  1.00800000E+00  1.60000000E+01
  1.00800000E+00  1.00800000E+00  1.60000000E+01  1.00800000E+00  1.00800000E+00
  1.60000000E+01  1.00800000E+00  1.00800000E+00  1.60000000E+01  1.00800000E+00
  1.00800000E+00  1.60000000E+01  1.00800000E+00  1.00800000E+00  1.60000000E+01
  1.00800000E+00  1.00800000E+00  1.60000000E+01  1.00800000E+00  1.00800000E+00
  1.60000000E+01  1.00800000E+00  1.00800000E+00  1.60000000E+01  1.00800000E+00
  1.00800000E+00  1.60000000E+01  1.00800000E+00  1.00800000E+00  1.60000000E+01
  1.00800000E+00  1.00800000E+00  1.60000000E+01  1.00800000E+00  1.00800000E+00
  1.60000000E+01  1.00800000E+00  1.00800000E+00  1.60000000E+01  1.00800000E+00
  1.00800000E+00  1.60000000E+01  1.00800000E+00  1.00800000E+00  1.60000000E+01
  1.00800000E+00  1.00800000E+00  1.60000000E+01  1.00800000E+00  1.00800000E+00
  1.60000000E+01  1.00800000E+00  1.00800000E+00  1.60000000E+01  1.00800000E+00
  1.00800000E+00  1.60000000E+01  1.00800000E+00  1.00800000E+00  1.60000000E+01
  1.00800000E+00  1.00800000E+00  1.60000000E+01  1.00800000E+00  1.00800000E+00
  1.60000000E+01  1.00800000E+00  1.00800000E+00  1.60000000E+01  1.00800000E+00
  1.00800000E+00  1.60000000E+01  1.00800000E+00  1.00800000E+00  1.60000000E+01
  1.00800000E+00  1.00800000E+00  1.60000000E+01  1.00800000E+00  1.00800000E+00
  1.60000000E+01  1.00800000E+00  1.00800000E+00  1.60000000E+01  1.00800000E+00
  1.00800000E+00  1.60000000E+01  1.00800000E+00  1.00800000E+00  1.60000000E+01
  1.00800000E+00  1.00800000E+00  1.60000000E+01  1.00800000E+00  1.00800000E+00
  1.60000000E+01  1.00800000E+00  1.00800000E+00  1.60000000E+01  1.00800000E+00
  1.00800000E+00  1.60000000E+01  1.00800000E+00  1.00800000E+00  1.60000000E+01
  1.00800000E+00  1.00800000E+00  1.60000000E+01  1.00800000E+00  1.00800000E+00
  1.60000000E+01  1.00800000E+00  1.00800000E+00  1.60000000E+01  1.00800000E+00
  1.00800000E+00  1.60000000E+01  1.00800000E+00  1.00800000E+00  1.60000000E+01
  1.00800000E+00  1.00800000E+00  1.60000000E+01  1.00800000E+00  1.00800000E+00
  1.60000000E+01  1.00800000E+00  1.00800000E+00  1.60000000E+01  1.00800000E+00
  1.00800000E+00  1.60000000E+01  1.00800000E+00  1.00800000E+00  1.60000000E+01
  1.00800000E+00  1.00800000E+00  1.60000000E+01  1.00800000E+00  1.00800000E+00
  1.60000000E+01  1.00800000E+00  1.00800000E+00  1.60000000E+01  1.00800000E+00
  1.00800000E+00  1.60000000E+01  1.00800000E+00  1.00800000E+00  1.60000000E+01
  1.00800000E+00  1.00800000E+00  1.60000000E+01  1.00800000E+00  1.00800000E+00
  1.60000000E+01  1.00800000E+00  1.00800000E+00  1.60000000E+01  1.00800000E+00
  1.00800000E+00  1.60000000E+01  1.00800000E+00  1.00800000E+00  1.60000000E+01
  1.00800000E+00  1.00800000E+00  1.60000000E+01  1.00800000E+00  1.00800000E+00
  1.60000000E+01  1.00800000E+00  1.00800000E+00  1.60000000E+01  1.00800000E+00
  1.00800000E+00  1.60000000E+01  1.00800000E+00  1.00800000E+00  1.60000000E+01
  1.00800000E+00  1.00800000E+00  1.60000000E+01  1.00800000E+00  1.00800000E+00
  1.60000000E+01  1.00800000E+00  1.00800000E+00  1.60000000E+01  1.00800000E+00
  1.00800000E+00  1.60000000E+01  1.00800000E+00  1.00800000E+00  1.60000000E+01
  1.00800000E+00  1.00800000E+00  1.60000000E+01  1.00800000E+00  1.00800000E+00
  1.60000000E+01  1.00800000E+00  1.00800000E+00  1.60000000E+01  1.00800000E+00
  1.00800000E+00  1.60000000E+01  1.00800000E+00  1.00800000E+00  1.60000000E+01
  1.00800000E+00  1.00800000E+00  1.60000000E+01  1.00800000E+00  1.00800000E+00
  1.60000000E+01  1.00800000E+00  1.00800000E+00  1.60000000E+01  1.00800000E+00
  1.00800000E+00  1.60000000E+01  1.00800000E+00  1.00800000E+00  1.60000000E+01
  1.00800000E+00  1.00800000E+00  1.60000000E+01  1.00800000E+00  1.00800000E+00
  1.60000000E+01  1.00800000E+00  1.00800000E+00  1.60000000E+01  1.00800000E+00
  1.00800000E+00  1.60000000E+01  1.00800000E+00  1.00800000E+00  1.60000000E+01
  1.00800000E+00  1.00800000E+00  1.60000000E+01  1.00800000E+00  1.00800000E+00
  1.60000000E+01  1.00800000E+00  1.00800000E+00  1.60000000E+01  1.00800000E+00
  1.00800000E+00  1.60000000E+01  1.00800000E+00  1.00800000E+00  1.60000000E+01
  1.00800000E+00  1.00800000E+00  1.60000000E+01  1.00800000E+00  1.00800000E+00
  1.60000000E+01  1.00800000E+00  1.00800000E+00  1.60000000E+01  1.00800000E+00
  1.00800000E+00  1.60000000E+01  1.00800000E+00  1.00800000E+00  1.60000000E+01
  1.00800000E+00  1.00800000E+00  1.60000000E+01  1.00800000E+00  1.00800000E+00
  1.60000000E+01  1.00800000E+00  1.00800000E+00  1.60000000E+01  1.00800000E+00
  1.00800000E+00  1.60000000E+01  1.00800000E+00  1.00800000E+00  1.60000000E+01
  1.00800000E+00  1.00800000E+00  1.60000000E+01  1.00800000E+00  1.00800000E+00
  1.60000000E+01  1.00800000E+00  1.00800000E+00  1.60000000E+01  1.00800000E+00
  1.00800000E+00  1.60000000E+01  1.00800000E+00  1.00800000E+00  1.60000000E+01
  1.00800000E+00  1.00800000E+00  1.60000000E+01  1.00800000E+00  1.00800000E+00
  1.60000000E+01  1.00800000E+00  1.00800000E+00  1.60000000E+01  1.00800000E+00
  1.00800000E+00  1.60000000E+01  1.00800000E+00  1.00800000E+00  1.60000000E+01
  1.00800000E+00  1.00800000E+00  1.60000000E+01  1.00800000E+00  1.00800000E+00
  1.60000000E+01  1.00800000E+00  1.00800000E+00  1.60000000E+01  1.00800000E+00
  1.00800000E+00  1.60000000E+01  1.00800000E+00  1.00800000E+00  1.60000000E+01
  1.00800000E+00  1.00800000E+00  1.60000000E+01  1.00800000E+00  1.00800000E+00
  1.60000000E+01  1.00800000E+00  1.00800000E+00  1.60000000E+01  1.00800000E+00
  1.00800000E+00  1.60000000E+01  1.00800000E+00  1.00800000E+00  1.60000000E+01
  1.00800000E+00  1.00800000E+00  1.60000000E+01  1.00800000E+00  1.00800000E+00
  1.60000000E+01  1.00800000E+00  1.00800000E+00  1.60000000E+01  1.00800000E+00
  1.00800000E+00  1.60000000E+01  1.00800000E+00  1.00800000E+00  1.60000000E+01
  1.00800000E+00  1.00800000E+00  1.60000000E+01  1.00800000E+00  1.00800000E+00
  1.60000000E+01  1.00800000E+00  1.00800000E+00  1.60000000E+01  1.00800000E+00
  1.00800000E+00  1.60000000E+01  1.00800000E+00  1.00800000E+00  1.60000000E+01
  1.00800000E+00  1.00800000E+00  1.60000000E+01  1.00800000E+00  1.00800000E+00
  1.60000000E+01  1.00800000E+00  1.00800000E+00  1.60000000E+01  1.00800000E+00
  1.00800000E+00  1.60000000E+01  1.00800000E+00  1.00800000E+00  1.60000000E+01
  1.00800000E+00  1.00800000E+00  1.60000000E+01  1.00800000E+00  1.00800000E+00
  1.60000000E+01  1.00800000E+00  1.00800000E+00  1.60000000E+01  1.00800000E+00
  1.00800000E+00  1.60000000E+01  1.00800000E+00  1.00800000E+00  1.60000000E+01
  1.00800000E+00  1.00800000E+00  1.60000000E+01  1.00800000E+00  1.00800000E+00
  1.60000000E+01  1.00800000E+00  1.00800000E+00  1.60000000E+01  1.00800000E+00
  1.00800000E+00  1.60000000E+01  1.00800000E+00  1.00800000E+00  1.60000000E+01
  1.00800000E+00  1.00800000E+00  1.60000000E+01  1.00800000E+00  1.00800000E+00
  1.60000000E+01  1.00800000E+00  1.00800000E+00  1.60000000E+01  1.00800000E+00
  1.00800000E+00  1.60000000E+01  1.00800000E+00  1.00800000E+00  1.60000000E+01
  1.00800000E+00  1.00800000E+00  1.60000000E+01  1.00800000E+00  1.00800000E+00
  1.60000000E+01  1.00800000E+00  1.00800000E+00  1.60000000E+01  1.00800000E+00
  1.00800000E+00  1.60000000E+01  1.00800000E+00  1.00800000E+00  1.60000000E+01
  1.00800000E+00  1.00800000E+00  1.60000000E+01  1.00800000E+00  1.00800000E+00
  1.60000000E+01  1.00800000E+00  1.00800000E+00  1.60000000E+01  1.00800000E+00
  1.00800000E+00  1.60000000E+01  1.00800000E+00  1.00800000E+00  1.60000000E+01
  1.00800000E+00  1.00800000E+00  1.60000000E+01  1.00800000E+00  1.00800000E+00
  1.60000000E+01  1.00800000E+00  1.00800000E+00  1.60000000E+01  1.00800000E+00
  1.00800000E+00  1.60000000E+01  1.00800000E+00  1.00800000E+00  1.60000000E+01
  1.00800000E+00  1.00800000E+00  1.60000000E+01  1.00800000E+00  1.00800000E+00
  1.60000000E+01  1.00800000E+00  1.00800000E+00  1.60000000E+01  1.00800000E+00
  1.00800000E+00  1.60000000E+01  1.00800000E+00  1.00800000E+00  1.60000000E+01
  1.00800000E+00  1.00800000E+00  1.60000000E+01  1.00800000E+00  1.00800000E+00
  1.60000000E+01  1.00800000E+00  1.00800000E+00  1.60000000E+01  1.00800000E+00
  1.00800000E+00  1.60000000E+01  1.00800000E+00  1.00800000E+00  1.60000000E+01
  1.00800000E+00  1.00800000E+00  1.60000000E+01  1.00800000E+00  1.00800000E+00
  1.60000000E+01  1.00800000E+00  1.00800000E+00  1.60000000E+01  1.00800000E+00
  1.00800000E+00  1.60000000E+01  1.00800000E+00  1.00800000E+00  1.60000000E+01
  1.00800000E+00  1.00800000E+00  1.60000000E+01  1.00800000E+00  1.00800000E+00
  1.60000000E+01  1.00800000E+00  1.00800000E+00  1.60000000E+01  1.00800000E+00
  1.00800000E+00  1.60000000E+01  1.00800000E+00  1.00800000E+00  1.60000000E+01
  1.00800000E+00  1.00800000E+00  1.60000000E+01  1.00800000E+00  1.00800000E+00
  1.60000000E+01  1.00800000E+00  1.00800000E+00  1.60000000E+01  1.00800000E+00
  1.00800000E+00  1.60000000E+01  1.00800000E+00  1.00800000E+00  1.60000000E+01
  1.00800000E+00  1.00800000E+00  1.60000000E+01  1.00800000E+00  1.00800000E+00
  1.60000000E+01  1.00800000E+00  1.00800000E+00  1.60000000E+01  1.00800000E+00
  1.00800000E+00  1.60000000E+01  1.00800000E+00  1.00800000E+00  1.60000000E+01
  1.00800000E+00  1.00800000E+00  1.60000000E+01  1.00800000E+00  1.00800000E+00
  1.60000000E+01  1.00800000E+00  1.00800000E+00  1.60000000E+01  1.00800000E+00
  1.00800000E+00  1.60000000E+01  1.00800000E+00  1.00800000E+00  1.60000000E+01
  1.00800000E+00  1.00800000E+00  1.60000000E+01  1.00800000E+00  1.00800000E+00
  1.60000000E+01  1.00800000E+00  1.00800000E+00  1.60000000E+01  1.00800000E+00
  1.00800000E+00  1.60000000E+01  1.00800000E+00  1.00800000E+00  1.60000000E+01
  1.00800000E+00  1.00800000E+00  1.60000000E+01  1.00800000E+00  1.00800000E+00
  1.60000000E+01  1.00800000E+00  1.00800000E+00  1.60000000E+01  1.00800000E+00
  1.00800000E+00  1.60000000E+01  1.00800000E+00  1.00800000E+00  1.60000000E+01
  1.00800000E+00  1.00800000E+00  1.60000000E+01  1.00800000E+00  1.00800000E+00
  1.60000000E+01  1.00800000E+00  1.00800000E+00  1.60000000E+01  1.00800000E+00
  1.00800000E+00  1.60000000E+01  1.00800000E+00  1.00800000E+00  1.60000000E+01
  1.00800000E+00  1.00800000E+00  1.60000000E+01  1.00800000E+00  1.00800000E+00
  1.60000000E+01  1.00800000E+00  1.00800000E+00  1.60000000E+01  1.00800000E+00
  1.00800000E+00  1.60000000E+01  1.00800000E+00  1.00800000E+00  1.60000000E+01
  1.00800000E+00  1.00800000E+00  1.60000000E+01  1.00800000E+00  1.00800000E+00
  1.60000000E+01  1.00800000E+00  1.00800000E+00  1.60000000E+01  1.00800000E+00
  1.00800000E+00  1.60000000E+01  1.00800000E+00  1.00800000E+00  1.60000000E+01
  1.00800000E+00  1.00800000E+00  1.60000000E+01  1.00800000E+00  1.00800000E+00
  1.60000000E+01  1.00800000E+00  1.00800000E+00  1.60000000E+01  1.00800000E+00
  1.00800000E+00  1.60000000E+01  1.00800000E+00  1.00800000E+00  1.60000000E+01
  1.00800000E+00  1.00800000E+00  1.60000000E+01  1.00800000E+00  1.00800000E+00
  1.60000000E+01  1.00800000E+00  1.00800000E+00  1.60000000E+01  1.00800000E+00
  1.00800000E+00  1.60000000E+01  1.00800000E+00  1.00800000E+00  1.60000000E+01
  1.00800000E+00  1.00800000E+00  1.60000000E+01  1.00800000E+00  1.00800000E+00
  1.60000000E+01  1.00800000E+00  1.00800000E+00  1.60000000E+01  1.00800000E+00
  1.00800000E+00  1.60000000E+01  1.00800000E+00  1.00800000E+00  1.60000000E+01
  1.00800000E+00  1.00800000E+00  1.60000000E+01  1.00800000E+00  1.00800000E+00
  1.60000000E+01  1.00800000E+00  1.00800000E+00  1.60000000E+01  1.00800000E+00
  1.00800000E+00  1.60000000E+01  1.00800000E+00  1.00800000E+00  1.60000000E+01
  1.00800000E+00  1.00800000E+00  1.60000000E+01  1.00800000E+00  1.00800000E+00
  1.60000000E+01  1.00800000E+00  1.00800000E+00  1.60000000E+01  1.00800000E+00
  1.00800000E+00  1.60000000E+01  1.00800000E+00  1.00800000E+00  1.60000000E+01
  1.00800000E+00  1.00800000E+00  1.60000000E+01  1.00800000E+00  1.00800000E+00
  1.60000000E+01  1.00800000E+00  1.00800000E+00  1.60000000E+01  1.00800000E+00
  1.00800000E+00  1.60000000E+01  1.00800000E+00  1.00800000E+00  1.60000000E+01
  1.00800000E+00  1.00800000E+00  1.60000000E+01  1.00800000E+00  1.00800000E+00
  1.60000000E+01  1.00800000E+00  1.00800000E+00  1.60000000E+01  1.00800000E+00
  1.00800000E+00  1.60000000E+01  1.00800000E+00  1.00800000E+00  1.60000000E+01
  1.00800000E+00  1.00800000E+00  1.60000000E+01  1.00800000E+00  1.00800000E+00
  1.60000000E+01  1.00800000E+00  1.00800000E+00  1.60000000E+01  1.00800000E+00
  1.00800000E+00  1.60000000E+01  1.00800000E+00  1.00800000E+00  1.60000000E+01
  1.00800000E+00  1.00800000E+00  1.60000000E+01  1.00800000E+00  1.00800000E+00
  1.60000000E+01  1.00800000E+00  1.00800000E+00  1.60000000E+01  1.00800000E+00
  1.00800000E+00  1.60000000E+01  1.00800000E+00  1.00800000E+00  1.60000000E+01
  1.00800000E+00  1.00800000E+00  1.60000000E+01  1.00800000E+00  1.00800000E+00
  1.60000000E+01  1.00800000E+00  1.00800000E+00  1.60000000E+01  1.00800000E+00
  1.00800000E+00  1.60000000E+01  1.00800000E+00  1.00800000E+00  1.60000000E+01
  1.00800000E+00  1.00800000E+00  1.60000000E+01  1.00800000E+00  1.00800000E+00
  1.60000000E+01  1.00800000E+00  1.00800000E+00  1.60000000E+01  1.00800000E+00
  1.00800000E+00  1.60000000E+01  1.00800000E+00  1.00800000E+00  1.60000000E+01
  1.00800000E+00  1.00800000E+00  1.60000000E+01  1.00800000E+00  1.00800000E+00
  1.60000000E+01  1.00800000E+00  1.00800000E+00  1.60000000E+01  1.00800000E+00
  1.00800000E+00  1.60000000E+01  1.00800000E+00  1.00800000E+00  1.60000000E+01
  1.00800000E+00  1.00800000E+00  1.60000000E+01  1.00800000E+00  1.00800000E+00
  1.60000000E+01  1.00800000E+00  1.00800000E+00  1.60000000E+01  1.00800000E+00
  1.00800000E+00  1.60000000E+01  1.00800000E+00  1.00800000E+00  1.60000000E+01
  1.00800000E+00  1.00800000E+00  1.60000000E+01  1.00800000E+00  1.00800000E+00
  1.60000000E+01  1.00800000E+00  1.00800000E+00  1.60000000E+01  1.00800000E+00
  1.00800000E+00  1.60000000E+01  1.00800000E+00  1.00800000E+00  1.60000000E+01
  1.00800000E+00  1.00800000E+00  1.60000000E+01  1.00800000E+00  1.00800000E+00
  1.60000000E+01  1.00800000E+00  1.00800000E+00  1.60000000E+01  1.00800000E+00
  1.00800000E+00  1.60000000E+01  1.00800000E+00  1.00800000E+00  1.60000000E+01
  1.00800000E+00  1.00800000E+00  1.60000000E+01  1.00800000E+00  1.00800000E+00
  1.60000000E+01  1.00800000E+00  1.00800000E+00  1.60000000E+01  1.00800000E+00
  1.00800000E+00  1.60000000E+01  1.00800000E+00  1.00800000E+00  1.60000000E+01
  1.00800000E+00  1.00800000E+00  1.60000000E+01  1.00800000E+00  1.00800000E+00
  1.60000000E+01  1.00800000E+00  1.00800000E+00  1.60000000E+01  1.00800000E+00
  1.00800000E+00  1.60000000E+01  1.00800000E+00  1.00800000E+00  1.60000000E+01
  1.00800000E+00  1.00800000E+00  1.60000000E+01  1.00800000E+00  1.00800000E+00
  1.60000000E+01  1.00800000E+00  1.00800000E+00  1.60000000E+01  1.00800000E+00
  1.00800000E+00  1.60000000E+01  1.00800000E+00  1.00800000E+00  1.60000000E+01
  1.00800000E+00  1.00800000E+00  1.60000000E+01  1.00800000E+00  1.00800000E+00
  1.60000000E+01  1.00800000E+00  1.00800000E+00  1.60000000E+01  1.00800000E+00
  1.00800000E+00  1.60000000E+01  1.00800000E+00  1.00800000E+00  1.60000000E+01
  1.00800000E+00  1.00800000E+00  1.60000000E+01  1.00800000E+00  1.00800000E+00
  1.60000000E+01  1.00800000E+00  1.00800000E+00  1.60000000E+01  1.00800000E+00
  1.00800000E+00  1.60000000E+01  1.00800000E+00  1.00800000E+00  1.60000000E+01
  1.00800000E+00  1.00800000E+00  1.60000000E+01  1.00800000E+00  1.00800000E+00
  1.60000000E+01  1.00800000E+00  1.00800000E+00  1.60000000E+01  1.00800000E+00
  1.00800000E+00  1.60000000E+01  1.00800000E+00  1.00800000E+00  1.60000000E+01
  1.00800000E+00  1.00800000E+00  1.60000000E+01  1.00800000E+00  1.00800000E+00
  1.60000000E+01  1.00800000E+00  1.00800000E+00  1.60000000E+01  1.00800000E+00
  1.00800000E+00  1.60000000E+01  1.00800000E+00  1.00800000E+00  1.60000000E+01
  1.00800000E+00  1.00800000E+00  1.60000000E+01  1.00800000E+00  1.00800000E+00
  1.60000000E+01  1.00800000E+00  1.00800000E+00  1.60000000E+01  1.00800000E+00
  1.00800000E+00  1.60000000E+01  1.00800000E+00  1.00800000E+00  1.60000000E+01
  1.00800000E+00  1.00800000E+00  1.60000000E+01  1.00800000E+00  1.00800000E+00
  1.60000000E+01  1.00800000E+00  1.00800000E+00  1.60000000E+01  1.00800000E+00
  1.00800000E+00  1.60000000E+01  1.00800000E+00  1.00800000E+00  1.60000000E+01
  1.00800000E+00  1.00800000E+00  1.60000000E+01  1.00800000E+00  1.00800000E+00
  1.60000000E+01  1.00800000E+00  1.00800000E+00  1.60000000E+01  1.00800000E+00
  1.00800000E+00  1.60000000E+01  1.00800000E+00  1.00800000E+00  1.60000000E+01
  1.00800000E+00  1.00800000E+00  1.60000000E+01  1.00800000E+00  1.00800000E+00
  1.60000000E+01  1.00800000E+00  1.00800000E+00  1.60000000E+01  1.00800000E+00
  1.00800000E+00  1.60000000E+01  1.00800000E+00  1.00800000E+00  1.60000000E+01
  1.00800000E+00  1.00800000E+00  1.60000000E+01  1.00800000E+00  1.00800000E+00
  1.60000000E+01  1.00800000E+00  1.00800000E+00  1.60000000E+01  1.00800000E+00
  1.00800000E+00  1.60000000E+01  1.00800000E+00  1.00800000E+00  1.60000000E+01
  1.00800000E+00  1.00800000E+00  1.60000000E+01  1.00800000E+00  1.00800000E+00
  1.60000000E+01  1.00800000E+00  1.00800000E+00  1.60000000E+01  1.00800000E+00
  1.00800000E+00  1.60000000E+01  1.00800000E+00  1.00800000E+00  1.60000000E+01
  1.00800000E+00  1.00800000E+00  1.60000000E+01  1.00800000E+00  1.00800000E+00
  1.60000000E+01  1.00800000E+00  1.00800000E+00  1.60000000E+01  1.00800000E+00
  1.00800000E+00  1.60000000E+01  1.00800000E+00  1.00800000E+00  1.60000000E+01
  1.00800000E+00  1.00800000E+00  1.60000000E+01  1.00800000E+00  1.00800000E+00
  1.60000000E+01  1.00800000E+00  1.00800000E+00  1.60000000E+01  1.00800000E+00
  1.00800000E+00  1.60000000E+01  1.00800000E+00  1.00800000E+00  1.60000000E+01
  1.00800000E+00  1.00800000E+00  1.60000000E+01  1.00800000E+00  1.00800000E+00
  1.60000000E+01  1.00800000E+00  1.00800000E+00  1.60000000E+01  1.00800000E+00
  1.00800000E+00  1.60000000E+01  1.00800000E+00  1.00800000E+00  1.60000000E+01
  1.00800000E+00  1.00800000E+00  1.60000000E+01  1.00800000E+00  1.00800000E+00
  1.60000000E+01  1.00800000E+00  1.00800000E+00  1.60000000E+01  1.00800000E+00
  1.00800000E+00  1.60000000E+01  1.00800000E+00  1.00800000E+00  1.60000000E+01
  1.00800000E+00  1.00800000E+00  1.60000000E+01  1.00800000E+00  1.00800000E+00
  1.60000000E+01  1.00800000E+00  1.00800000E+00  1.60000000E+01  1.00800000E+00
  1.00800000E+00  1.60000000E+01  1.00800000E+00  1.00800000E+00  1.60000000E+01
  1.00800000E+00  1.00800000E+00  1.60000000E+01  1.00800000E+00  1.00800000E+00
  1.60000000E+01  1.00800000E+00  1.00800000E+00  1.60000000E+01  1.00800000E+00
  1.00800000E+00  1.60000000E+01  1.00800000E+00  1.00800000E+00  1.60000000E+01
  1.00800000E+00  1.00800000E+00  1.60000000E+01  1.00800000E+00  1.00800000E+00
  1.60000000E+01  1.00800000E+00  1.00800000E+00  1.60000000E+01  1.00800000E+00
  1.00800000E+00  1.60000000E+01  1.00800000E+00  1.00800000E+00  1.60000000E+01
  1.00800000E+00  1.00800000E+00  1.60000000E+01  1.00800000E+00  1.00800000E+00
  1.60000000E+01  1.00800000E+00  1.00800000E+00  1.60000000E+01  1.00800000E+00
  1.00800000E+00  1.60000000E+01  1.00800000E+00  1.00800000E+00  1.60000000E+01
  1.00800000E+00  1.00800000E+00  1.60000000E+01  1.00800000E+00  1.00800000E+00
  1.60000000E+01  1.00800000E+00  1.00800000E+00  1.60000000E+01  1.00800000E+00
  1.00800000E+00  1.60000000E+01  1.00800000E+00  1.00800000E+00  1.60000000E+01
  1.00800000E+00  1.00800000E+00  1.60000000E+01  1.00800000E+00  1.00800000E+00
  1.60000000E+01  1.00800000E+00  1.00800000E+00  1.60000000E+01  1.00800000E+00
  1.00800000E+00  1.60000000E+01  1.00800000E+00  1.00800000E+00  1.60000000E+01
  1.00800000E+00  1.00800000E+00  1.60000000E+01  1.00800000E+00  1.00800000E+00
  1.60000000E+01  1.00800000E+00  1.00800000E+00  1.60000000E+01  1.00800000E+00
  1.00800000E+00  1.60000000E+01  1.00800000E+00  1.00800000E+00  1.60000000E+01
  1.00800000E+00  1.00800000E+00  1.60000000E+01  1.00800000E+00  1.00800000E+00
  1.60000000E+01  1.00800000E+00  1.00800000E+00  1.60000000E+01  1.00800000E+00
  1.00800000E+00  1.60000000E+01  1.00800000E+00  1.00800000E+00  1.60000000E+01
  1.00800000E+00  1.00800000E+00  1.60000000E+01  1.00800000E+00  1.00800000E+00
  1.60000000E+01  1.00800000E+00  1.00800000E+00  1.60000000E+01  1.00800000E+00
  1.00800000E+00  1.60000000E+01  1.00800000E+00  1.00800000E+00  1.60000000E+01
  1.00800000E+00  1.00800000E+00  1.60000000E+01  1.00800000E+00  1.00800000E+00
  1.60000000E+01  1.00800000E+00  1.00800000E+00  1.60000000E+01  1.00800000E+00
  1.00800000E+00  1.60000000E+01  1.00800000E+00  1.00800000E+00  1.60000000E+01
  1.00800000E+00  1.00800000E+00  1.60000000E+01  1.00800000E+00  1.00800000E+00
  1.60000000E+01  1.00800000E+00  1.00800000E+00  1.60000000E+01  1.00800000E+00
  1.00800000E+00  1.60000000E+01  1.00800000E+00  1.00800000E+00  1.60000000E+01
  1.00800000E+00  1.00800000E+00  1.60000000E+01  1.00800000E+00  1.00800000E+00
  1.60000000E+01  1.00800000E+00  1.00800000E+00  1.60000000E+01  1.00800000E+00
  1.00800000E+00  1.60000000E+01  1.00800000E+00  1.00800000E+00  1.60000000E+01
  1.00800000E+00  1.00800000E+00  1.60000000E+01  1.00800000E+00  1.00800000E+00
  1.60000000E+01  1.00800000E+00  1.00800000E+00  1.60000000E+01  1.00800000E+00
  1.00800000E+00  1.60000000E+01  1.00800000E+00  1.00800000E+00  1.60000000E+01
  1.00800000E+00  1.00800000E+00  1.60000000E+01  1.00800000E+00  1.00800000E+00
  1.60000000E+01  1.00800000E+00  1.00800000E+00  1.60000000E+01  1.00800000E+00
  1.00800000E+00  1.60000000E+01  1.00800000E+00  1.00800000E+00  1.60000000E+01
  1.00800000E+00  1.00800000E+00  1.60000000E+01  1.00800000E+00  1.00800000E+00
  1.60000000E+01  1.00800000E+00  1.00800000E+00  1.60000000E+01  1.00800000E+00
  1.00800000E+00  1.60000000E+01  1.00800000E+00  1.00800000E+00  1.60000000E+01
  1.00800000E+00  1.00800000E+00  1.60000000E+01  1.00800000E+00  1.00800000E+00
  1.60000000E+01  1.00800000E+00  1.00800000E+00  1.60000000E+01  1.00800000E+00
  1.00800000E+00  1.60000000E+01  1.00800000E+00  1.00800000E+00  1.60000000E+01
  1.00800000E+00  1.00800000E+00  1.60000000E+01  1.00800000E+00  1.00800000E+00
  1.60000000E+01  1.00800000E+00  1.00800000E+00  1.60000000E+01  1.00800000E+00
  1.00800000E+00  1.60000000E+01  1.00800000E+00  1.00800000E+00  1.60000000E+01
  1.00800000E+00  1.00800000E+00  1.60000000E+01  1.00800000E+00  1.00800000E+00
  1.60000000E+01  1.00800000E+00  1.00800000E+00  1.60000000E+01  1.00800000E+00
  1.00800000E+00  1.60000000E+01  1.00800000E+00  1.00800000E+00  1.60000000E+01
  1.00800000E+00  1.00800000E+00  1.60000000E+01  1.00800000E+00  1.00800000E+00
  1.60000000E+01  1.00800000E+00  1.00800000E+00  1.60000000E+01  1.00800000E+00
  1.00800000E+00  1.60000000E+01  1.00800000E+00  1.00800000E+00  1.60000000E+01
  1.00800000E+00  1.00800000E+00  1.60000000E+01  1.00800000E+00  1.00800000E+00
  1.60000000E+01  1.00800000E+00  1.00800000E+00  1.60000000E+01  1.00800000E+00
  1.00800000E+00  1.60000000E+01  1.00800000E+00  1.00800000E+00  1.60000000E+01
  1.00800000E+00  1.00800000E+00  1.60000000E+01  1.00800000E+00  1.00800000E+00
  1.60000000E+01  1.00800000E+00  1.00800000E+00  1.60000000E+01  1.00800000E+00
  1.00800000E+00  1.60000000E+01  1.00800000E+00  1.00800000E+00  1.60000000E+01
  1.00800000E+00  1.00800000E+00  1.60000000E+01  1.00800000E+00  1.00800000E+00
  1.60000000E+01  1.00800000E+00  1.00800000E+00  1.60000000E+01  1.00800000E+00
  1.00800000E+00  1.60000000E+01  1.00800000E+00  1.00800000E+00  1.60000000E+01
  1.00800000E+00  1.00800000E+00  1.60000000E+01  1.00800000E+00  1.00800000E+00
  1.60000000E+01  1.00800000E+00  1.00800000E+00  1.60000000E+01  1.00800000E+00
  1.00800000E+00  1.60000000E+01  1.00800000E+00  1.00800000E+00  1.60000000E+01
  1.00800000E+00  1.00800000E+00  1.60000000E+01  1.00800000E+00  1.00800000E+00
  1.60000000E+01  1.00800000E+00  1.00800000E+00  1.60000000E+01  1.00800000E+00
  1.00800000E+00  1.60000000E+01  1.00800000E+00  1.00800000E+00  1.60000000E+01
  1.00800000E+00  1.00800000E+00  1.60000000E+01  1.00800000E+00  1.00800000E+00
  1.60000000E+01  1.00800000E+00  1.00800000E+00  1.60000000E+01  1.00800000E+00
  1.00800000E+00  1.60000000E+01  1.00800000E+00  1.00800000E+00  1.60000000E+01
  1.00800000E+00  1.00800000E+00  1.60000000E+01  1.00800000E+00  1.00800000E+00
  1.60000000E+01  1.00800000E+00  1.00800000E+00  1.60000000E+01  1.00800000E+00
  1.00800000E+00  1.60000000E+01  1.00800000E+00  1.00800000E+00  1.60000000E+01
  1.00800000E+00  1.00800000E+00  1.60000000E+01  1.00800000E+00  1.00800000E+00
  1.60000000E+01  1.00800000E+00  1.00800000E+00  1.60000000E+01  1.00800000E+00
  1.00800000E+00  1.60000000E+01  1.00800000E+00  1.00800000E+00  1.60000000E+01
  1.00800000E+00  1.00800000E+00  1.60000000E+01  1.00800000E+00  1.00800000E+00
  1.60000000E+01  1.00800000E+00  1.00800000E+00  1.60000000E+01  1.00800000E+00
  1.00800000E+00  1.60000000E+01  1.00800000E+00  1.00800000E+00  1.60000000E+01
  1.00800000E+00  1.00800000E+00  1.60000000E+01  1.00800000E+00  1.00800000E+00
  1.60000000E+01  1.00800000E+00  1.00800000E+00  1.60000000E+01  1.00800000E+00
  1.00800000E+00  1.60000000E+01  1.00800000E+00  1.00800000E+00  1.60000000E+01
  1.00800000E+00  1.00800000E+00  1.60000000E+01  1.00800000E+00  1.00800000E+00
  1.60000000E+01  1.00800000E+00  1.00800000E+00  1.60000000E+01  1.00800000E+00
  1.00800000E+00  1.60000000E+01  1.00800000E+00  1.00800000E+00  1.60000000E+01
  1.00800000E+00  1.00800000E+00  1.60000000E+01  1.00800000E+00  1.00800000E+00
  1.60000000E+01  1.00800000E+00  1.00800000E+00  1.60000000E+01  1.00800000E+00
  1.00800000E+00  1.60000000E+01  1.00800000E+00  1.00800000E+00  1.60000000E+01
  1.00800000E+00  1.00800000E+00  1.60000000E+01  1.00800000E+00  1.00800000E+00
  1.60000000E+01  1.00800000E+00  1.00800000E+00  1.60000000E+01  1.00800000E+00
  1.00800000E+00  1.60000000E+01  1.00800000E+00  1.00800000E+00  1.60000000E+01
  1.00800000E+00  1.00800000E+00  1.60000000E+01  1.00800000E+00  1.00800000E+00
  1.60000000E+01  1.00800000E+00  1.00800000E+00  1.60000000E+01  1.00800000E+00
  1.00800000E+00  1.60000000E+01  1.00800000E+00  1.00800000E+00  1.60000000E+01
  1.00800000E+00  1.00800000E+00  1.60000000E+01  1.00800000E+00  1.00800000E+00
  1.60000000E+01  1.00800000E+00  1.00800000E+00  1.60000000E+01  1.00800000E+00
  1.00800000E+00  1.60000000E+01  1.00800000E+00  1.00800000E+00  1.60000000E+01
  1.00800000E+00  1.00800000E+00  1.60000000E+01  1.00800000E+00  1.00800000E+00
  1.60000000E+01  1.00800000E+00  1.00800000E+00  1.60000000E+01  1.00800000E+00
  1.00800000E+00  1.60000000E+01  1.00800000E+00  1.00800000E+00  1.60000000E+01
  1.00800000E+00  1.00800000E+00  1.60000000E+01  1.00800000E+00  1.00800000E+00
  1.60000000E+01  1.00800000E+00  1.00800000E+00  1.60000000E+01  1.00800000E+00
  1.00800000E+00  1.60000000E+01  1.00800000E+00  1.00800000E+00  1.60000000E+01
  1.00800000E+00  1.00800000E+00  1.60000000E+01  1.00800000E+00  1.00800000E+00
  1.60000000E+01  1.00800000E+00  1.00800000E+00  1.60000000E+01  1.00800000E+00
  1.00800000E+00  1.60000000E+01  1.00800000E+00  1.00800000E+00  1.60000000E+01
  1.00800000E+00  1.00800000E+00  1.60000000E+01  1.00800000E+00  1.00800000E+00
  1.60000000E+01  1.00800000E+00  1.00800000E+00  1.60000000E+01  1.00800000E+00
  1.00800000E+00  1.60000000E+01  1.00800000E+00  1.00800000E+00  1.60000000E+01
  1.00800000E+00  1.00800000E+00  1.60000000E+01  1.00800000E+00  1.00800000E+00
  1.60000000E+01  1.00800000E+00  1.00800000E+00  1.60000000E+01  1.00800000E+00
  1.00800000E+00  1.60000000E+01  1.00800000E+00  1.00800000E+00  1.60000000E+01
  1.00800000E+00  1.00800000E+00  1.60000000E+01  1.00800000E+00  1.00800000E+00
  1.60000000E+01  1.00800000E+00  1.00800000E+00  1.60000000E+01  1.00800000E+00
  1.00800000E+00  1.60000000E+01  1.00800000E+00  1.00800000E+00  1.60000000E+01
  1.00800000E+00  1.00800000E+00  1.60000000E+01  1.00800000E+00  1.00800000E+00
  1.60000000E+01  1.00800000E+00  1.00800000E+00  1.60000000E+01  1.00800000E+00
  1.00800000E+00  1.60000000E+01  1.00800000E+00  1.00800000E+00  1.60000000E+01
  1.00800000E+00  1.00800000E+00  1.60000000E+01  1.00800000E+00  1.00800000E+00
  1.60000000E+01  1.00800000E+00  1.00800000E+00  1.60000000E+01  1.00800000E+00
  1.00800000E+00  1.60000000E+01  1.00800000E+00  1.00800000E+00  1.60000000E+01
  1.00800000E+00  1.00800000E+00  1.60000000E+01  1.00800000E+00  1.00800000E+00
  1.60000000E+01  1.00800000E+00  1.00800000E+00  1.60000000E+01  1.00800000E+00
  1.00800000E+00  1.60000000E+01  1.00800000E+00  1.00800000E+00  1.60000000E+01
  1.00800000E+00  1.00800000E+00  1.60000000E+01  1.00800000E+00  1.00800000E+00
  1.60000000E+01  1.00800000E+00  1.00800000E+00  1.60000000E+01  1.00800000E+00
  1.00800000E+00  1.60000000E+01  1.00800000E+00  1.00800000E+00  1.60000000E+01
  1.00800000E+00  1.00800000E+00  1.60000000E+01  1.00800000E+00  1.00800000E+00
  1.60000000E+01  1.00800000E+00  1.00800000E+00  1.60000000E+01  1.00800000E+00
  1.00800000E+00  1.60000000E+01  1.00800000E+00  1.00800000E+00  1.60000000E+01
  1.00800000E+00  1.00800000E+00  1.60000000E+01  1.00800000E+00  1.00800000E+00
  1.60000000E+01  1.00800000E+00  1.00800000E+00  1.60000000E+01  1.00800000E+00
  1.00800000E+00  1.60000000E+01  1.00800000E+00  1.00800000E+00  1.60000000E+01
  1.00800000E+00  1.00800000E+00  1.60000000E+01  1.00800000E+00  1.00800000E+00
  1.60000000E+01  1.00800000E+00  1.00800000E+00  1.60000000E+01  1.00800000E+00
  1.00800000E+00  1.60000000E+01  1.00800000E+00  1.00800000E+00  1.60000000E+01
  1.00800000E+00  1.00800000E+00  1.60000000E+01  1.00800000E+00  1.00800000E+00
  1.60000000E+01  1.00800000E+00  1.00800000E+00  1.60000000E+01  1.00800000E+00
  1.00800000E+00  1.60000000E+01  1.00800000E+00  1.00800000E+00  1.60000000E+01
  1.00800000E+00  1.00800000E+00  1.60000000E+01  1.00800000E+00  1.00800000E+00
  1.60000000E+01  1.00800000E+00  1.00800000E+00  1.60000000E+01  1.00800000E+00
  1.00800000E+00  1.60000000E+01  1.00800000E+00  1.00800000E+00  1.60000000E+01
  1.00800000E+00  1.00800000E+00  1.60000000E+01  1.00800000E+00  1.00800000E+00
  1.60000000E+01  1.00800000E+00  1.00800000E+00  1.60000000E+01  1.00800000E+00
  1.00800000E+00  1.60000000E+01  1.00800000E+00  1.00800000E+00  1.60000000E+01
  1.00800000E+00  1.00800000E+00  1.60000000E+01  1.00800000E+00  1.00800000E+00
  1.60000000E+01  1.00800000E+00  1.00800000E+00  1.60000000E+01  1.00800000E+00
  1.00800000E+00  1.60000000E+01  1.00800000E+00  1.00800000E+00  1.60000000E+01
  1.00800000E+00  1.00800000E+00  1.60000000E+01  1.00800000E+00  1.00800000E+00
  1.60000000E+01  1.00800000E+00  1.00800000E+00  1.60000000E+01  1.00800000E+00
  1.00800000E+00  1.60000000E+01  1.00800000E+00  1.00800000E+00  1.60000000E+01
  1.00800000E+00  1.00800000E+00  1.60000000E+01  1.00800000E+00  1.00800000E+00
  1.60000000E+01  1.00800000E+00  1.00800000E+00  1.60000000E+01  1.00800000E+00
  1.00800000E+00  1.60000000E+01  1.00800000E+00  1.00800000E+00  1.60000000E+01
  1.00800000E+00  1.00800000E+00  1.60000000E+01  1.00800000E+00  1.00800000E+00
  1.60000000E+01  1.00800000E+00  1.00800000E+00  1.60000000E+01  1.00800000E+00
  1.00800000E+00  1.60000000E+01  1.00800000E+00  1.00800000E+00  1.60000000E+01
  1.00800000E+00  1.00800000E+00  1.60000000E+01  1.00800000E+00  1.00800000E+00
  1.60000000E+01  1.00800000E+00  1.00800000E+00  1.60000000E+01  1.00800000E+00
  1.00800000E+00  1.60000000E+01  1.00800000E+00  1.00800000E+00  1.60000000E+01
  1.00800000E+00  1.00800000E+00  1.60000000E+01  1.00800000E+00  1.00800000E+00
  1.60000000E+01  1.00800000E+00  1.00800000E+00  1.60000000E+01  1.00800000E+00
  1.00800000E+00  1.60000000E+01  1.00800000E+00  1.00800000E+00  1.60000000E+01
  1.00800000E+00  1.00800000E+00  1.60000000E+01  1.00800000E+00  1.00800000E+00
  1.60000000E+01  1.00800000E+00  1.00800000E+00  1.60000000E+01  1.00800000E+00
  1.00800000E+00  1.60000000E+01  1.00800000E+00  1.00800000E+00  1.60000000E+01
  1.00800000E+00  1.00800000E+00  1.60000000E+01  1.00800000E+00  1.00800000E+00
  1.60000000E+01  1.00800000E+00  1.00800000E+00  1.60000000E+01  1.00800000E+00
  1.00800000E+00  1.60000000E+01  1.00800000E+00  1.00800000E+00  1.60000000E+01
  1.00800000E+00  1.00800000E+00  1.60000000E+01  1.00800000E+00  1.00800000E+00
  1.60000000E+01  1.00800000E+00  1.00800000E+00  1.60000000E+01  1.00800000E+00
  1.00800000E+00  1.60000000E+01  1.00800000E+00  1.00800000E+00  1.60000000E+01
  1.00800000E+00  1.00800000E+00  1.60000000E+01  1.00800000E+00  1.00800000E+00
  1.60000000E+01  1.00800000E+00  1.00800000E+00  1.60000000E+01  1.00800000E+00
  1.00800000E+00  1.60000000E+01  1.00800000E+00  1.00800000E+00  1.60000000E+01
  1.00800000E+00  1.00800000E+00  1.60000000E+01  1.00800000E+00  1.00800000E+00
  1.60000000E+01  1.00800000E+00  1.00800000E+00  1.60000000E+01  1.00800000E+00
  1.00800000E+00  1.60000000E+01  1.00800000E+00  1.00800000E+00  1.60000000E+01
  1.00800000E+00  1.00800000E+00  1.60000000E+01  1.00800000E+00  1.00800000E+00
  1.60000000E+01  1.00800000E+00  1.00800000E+00  1.60000000E+01  1.00800000E+00
  1.00800000E+00  1.60000000E+01  1.00800000E+00  1.00800000E+00  1.60000000E+01
  1.00800000E+00  1.00800000E+00  1.60000000E+01  1.00800000E+00  1.00800000E+00
  1.60000000E+01  1.00800000E+00  1.00800000E+00  1.60000000E+01  1.00800000E+00
  1.00800000E+00  1.60000000E+01  1.00800000E+00  1.00800000E+00  1.60000000E+01
  1.00800000E+00  1.00800000E+00  1.60000000E+01  1.00800000E+00  1.00800000E+00
  1.60000000E+01  1.00800000E+00  1.00800000E+00  1.60000000E+01  1.00800000E+00
  1.00800000E+00  1.60000000E+01  1.00800000E+00  1.00800000E+00  1.60000000E+01
  1.00800000E+00  1.00800000E+00  1.60000000E+01  1.00800000E+00  1.00800000E+00
  1.60000000E+01  1.00800000E+00  1.00800000E+00  1.60000000E+01  1.00800000E+00
  1.00800000E+00  1.60000000E+01  1.00800000E+00  1.00800000E+00  1.60000000E+01
  1.00800000E+00  1.00800000E+00  1.60000000E+01  1.00800000E+00  1.00800000E+00
  1.60000000E+01  1.00800000E+00  1.00800000E+00  1.60000000E+01  1.00800000E+00
  1.00800000E+00  1.60000000E+01  1.00800000E+00  1.00800000E+00  1.60000000E+01
  1.00800000E+00  1.00800000E+00  1.60000000E+01  1.00800000E+00  1.00800000E+00
  1.60000000E+01  1.00800000E+00  1.00800000E+00  1.60000000E+01  1.00800000E+00
  1.00800000E+00  1.60000000E+01  1.00800000E+00  1.00800000E+00  1.60000000E+01
  1.00800000E+00  1.00800000E+00  1.60000000E+01  1.00800000E+00  1.00800000E+00
  1.60000000E+01  1.00800000E+00  1.00800000E+00  1.60000000E+01  1.00800000E+00
  1.00800000E+00  1.60000000E+01  1.00800000E+00  1.00800000E+00  1.60000000E+01
  1.00800000E+00  1.00800000E+00  1.60000000E+01  1.00800000E+00  1.00800000E+00
  1.60000000E+01  1.00800000E+00  1.00800000E+00  1.60000000E+01  1.00800000E+00
  1.00800000E+00  1.60000000E+01  1.00800000E+00  1.00800000E+00  1.60000000E+01
  1.00800000E+00  1.00800000E+00  1.60000000E+01  1.00800000E+00  1.00800000E+00
  1.60000000E+01  1.00800000E+00  1.00800000E+00  1.60000000E+01  1.00800000E+00
  1.00800000E+00  1.60000000E+01  1.00800000E+00  1.00800000E+00  1.60000000E+01
  1.00800000E+00  1.00800000E+00  1.60000000E+01  1.00800000E+00  1.00800000E+00
  1.60000000E+01  1.00800000E+00  1.00800000E+00  1.60000000E+01  1.00800000E+00
  1.00800000E+00  1.60000000E+01  1.00800000E+00  1.00800000E+00  1.60000000E+01
  1.00800000E+00  1.00800000E+00  1.60000000E+01  1.00800000E+00  1.00800000E+00
  1.60000000E+01  1.00800000E+00  1.00800000E+00  1.60000000E+01  1.00800000E+00
  1.00800000E+00  1.60000000E+01  1.00800000E+00  1.00800000E+00  1.60000000E+01
  1.00800000E+00  1.00800000E+00  1.60000000E+01  1.00800000E+00  1.00800000E+00
  1.60000000E+01  1.00800000E+00  1.00800000E+00  1.60000000E+01  1.00800000E+00
  1.00800000E+00  1.60000000E+01  1.00800000E+00  1.00800000E+00  1.60000000E+01
  1.00800000E+00  1.00800000E+00  1.60000000E+01  1.00800000E+00  1.00800000E+00
  1.60000000E+01  1.00800000E+00  1.00800000E+00  1.60000000E+01  1.00800000E+00
  1.00800000E+00  1.60000000E+01  1.00800000E+00  1.00800000E+00  1.60000000E+01
  1.00800000E+00  1.00800000E+00  1.60000000E+01  1.00800000E+00  1.00800000E+00
  1.60000000E+01  1.00800000E+00  1.00800000E+00  1.60000000E+01  1.00800000E+00
  1.00800000E+00  1.60000000E+01  1.00800000E+00  1.00800000E+00  1.60000000E+01
  1.00800000E+00  1.00800000E+00  1.60000000E+01  1.00800000E+00  1.00800000E+00
  1.60000000E+01  1.00800000E+00  1.00800000E+00  1.60000000E+01  1.00800000E+00
  1.00800000E+00  1.60000000E+01  1.00800000E+00  1.00800000E+00  1.60000000E+01
  1.00800000E+00  1.00800000E+00  1.60000000E+01  1.00800000E+00  1.00800000E+00
  1.60000000E+01  1.00800000E+00  1.00800000E+00  1.60000000E+01  1.00800000E+00
  1.00800000E+00  1.60000000E+01  1.00800000E+00  1.00800000E+00  1.60000000E+01
  1.00800000E+00  1.00800000E+00  1.60000000E+01  1.00800000E+00  1.00800000E+00
  1.60000000E+01  1.00800000E+00  1.00800000E+00  1.60000000E+01  1.00800000E+00
  1.00800000E+00  1.60000000E+01  1.00800000E+00  1.00800000E+00  1.60000000E+01
  1.00800000E+00  1.00800000E+00  1.60000000E+01  1.00800000E+00  1.00800000E+00
  1.60000000E+01  1.00800000E+00  1.00800000E+00  1.60000000E+01  1.00800000E+00
  1.00800000E+00  1.60000000E+01  1.00800000E+00  1.00800000E+00  1.60000000E+01
  1.00800000E+00  1.00800000E+00  1.60000000E+01  1.00800000E+00  1.00800000E+00
  1.60000000E+01  1.00800000E+00  1.00800000E+00  1.60000000E+01  1.00800000E+00
  1.00800000E+00  1.60000000E+01  1.00800000E+00  1.00800000E+00  1.60000000E+01
  1.00800000E+00  1.00800000E+00  1.60000000E+01  1.00800000E+00  1.00800000E+00
  1.60000000E+01  1.00800000E+00  1.00800000E+00  1.60000000E+01  1.00800000E+00
  1.00800000E+00  1.60000000E+01  1.00800000E+00  1.00800000E+00  1.60000000E+01
  1.00800000E+00  1.00800000E+00  1.60000000E+01  1.00800000E+00  1.00800000E+00
  1.60000000E+01  1.00800000E+00  1.00800000E+00  1.60000000E+01  1.00800000E+00
  1.00800000E+00  1.60000000E+01  1.00800000E+00  1.00800000E+00  1.60000000E+01
  1.00800000E+00  1.00800000E+00  1.60000000E+01  1.00800000E+00  1.00800000E+00
  1.60000000E+01  1.00800000E+00  1.00800000E+00  1.60000000E+01  1.00800000E+00
  1.00800000E+00  1.60000000E+01  1.00800000E+00  1.00800000E+00  1.60000000E+01
  1.00800000E+00  1.00800000E+00  1.60000000E+01  1.00800000E+00  1.00800000E+00
  1.60000000E+01  1.00800000E+00  1.00800000E+00  1.60000000E+01  1.00800000E+00
  1.00800000E+00  1.60000000E+01  1.00800000E+00  1.00800000E+00  1.60000000E+01
  1.00800000E+00  1.00800000E+00  1.60000000E+01  1.00800000E+00  1.00800000E+00
  1.60000000E+01  1.00800000E+00  1.00800000E+00  1.60000000E+01  1.00800000E+00
  1.00800000E+00  1.60000000E+01  1.00800000E+00  1.00800000E+00  1.60000000E+01
  1.00800000E+00  1.00800000E+00  1.60000000E+01  1.00800000E+00  1.00800000E+00
  1.60000000E+01  1.00800000E+00  1.00800000E+00  1.60000000E+01  1.00800000E+00
  1.00800000E+00  1.60000000E+01  1.00800000E+00  1.00800000E+00  1.60000000E+01
  1.00800000E+00  1.00800000E+00  1.60000000E+01  1.00800000E+00  1.00800000E+00
  1.60000000E+01  1.00800000E+00  1.00800000E+00  1.60000000E+01  1.00800000E+00
  1.00800000E+00  1.60000000E+01  1.00800000E+00  1.00800000E+00  1.60000000E+01
  1.00800000E+00  1.00800000E+00  1.60000000E+01  1.00800000E+00  1.00800000E+00
  1.60000000E+01  1.00800000E+00  1.00800000E+00  1.60000000E+01  1.00800000E+00
  1.00800000E+00  1.60000000E+01  1.00800000E+00  1.00800000E+00  1.60000000E+01
  1.00800000E+00  1.00800000E+00  1.60000000E+01  1.00800000E+00  1.00800000E+00
  1.60000000E+01  1.00800000E+00  1.00800000E+00  1.60000000E+01  1.00800000E+00
  1.00800000E+00  1.60000000E+01  1.00800000E+00  1.00800000E+00  1.60000000E+01
  1.00800000E+00  1.00800000E+00  1.60000000E+01  1.00800000E+00  1.00800000E+00
  1.60000000E+01  1.00800000E+00  1.00800000E+00  1.60000000E+01  1.00800000E+00
  1.00800000E+00  1.60000000E+01  1.00800000E+00  1.00800000E+00  1.60000000E+01
  1.00800000E+00  1.00800000E+00  1.60000000E+01  1.00800000E+00  1.00800000E+00
  1.60000000E+01  1.00800000E+00  1.00800000E+00  1.60000000E+01  1.00800000E+00
  1.00800000E+00  1.60000000E+01  1.00800000E+00  1.00800000E+00  1.60000000E+01
  1.00800000E+00  1.00800000E+00  1.60000000E+01  1.00800000E+00  1.00800000E+00
  1.60000000E+01  1.00800000E+00  1.00800000E+00  1.60000000E+01  1.00800000E+00
  1.00800000E+00  1.60000000E+01  1.00800000E+00  1.00800000E+00  1.60000000E+01
  1.00800000E+00  1.00800000E+00  1.60000000E+01  1.00800000E+00  1.00800000E+00
  1.60000000E+01  1.00800000E+00  1.00800000E+00  1.60000000E+01  1.00800000E+00
  1.00800000E+00  1.60000000E+01  1.00800000E+00  1.00800000E+00  1.60000000E+01
  1.00800000E+00  1.00800000E+00  1.60000000E+01  1.00800000E+00  1.00800000E+00
  1.60000000E+01  1.00800000E+00  1.00800000E+00  1.60000000E+01  1.00800000E+00
  1.00800000E+00  1.60000000E+01  1.00800000E+00  1.00800000E+00  1.60000000E+01
  1.00800000E+00  1.00800000E+00  1.60000000E+01  1.00800000E+00  1.00800000E+00
  1.60000000E+01  1.00800000E+00  1.00800000E+00  1.60000000E+01  1.00800000E+00
  1.00800000E+00  1.60000000E+01  1.00800000E+00  1.00800000E+00  1.60000000E+01
  1.00800000E+00  1.00800000E+00  1.60000000E+01  1.00800000E+00  1.00800000E+00
  1.60000000E+01  1.00800000E+00  1.00800000E+00  1.60000000E+01  1.00800000E+00
  1.00800000E+00  1.60000000E+01  1.00800000E+00  1.00800000E+00  1.60000000E+01
  1.00800000E+00  1.00800000E+00  1.60000000E+01  1.00800000E+00  1.00800000E+00
  1.60000000E+01  1.00800000E+00  1.00800000E+00  1.60000000E+01  1.00800000E+00
  1.00800000E+00  1.60000000E+01  1.00800000E+00  1.00800000E+00  1.60000000E+01
  1.00800000E+00  1.00800000E+00  1.60000000E+01  1.00800000E+00  1.00800000E+00
  1.60000000E+01  1.00800000E+00  1.00800000E+00  1.60000000E+01  1.00800000E+00
  1.00800000E+00  1.60000000E+01  1.00800000E+00  1.00800000E+00  1.60000000E+01
  1.00800000E+00  1.00800000E+00  1.60000000E+01  1.00800000E+00  1.00800000E+00
  1.60000000E+01  1.00800000E+00  1.00800000E+00  1.60000000E+01  1.00800000E+00
  1.00800000E+00  1.60000000E+01  1.00800000E+00  1.00800000E+00  1.60000000E+01
  1.00800000E+00  1.00800000E+00  1.60000000E+01  1.00800000E+00  1.00800000E+00
  1.60000000E+01  1.00800000E+00  1.00800000E+00  1.60000000E+01  1.00800000E+00
  1.00800000E+00  1.60000000E+01  1.00800000E+00  1.00800000E+00  1.60000000E+01
  1.00800000E+00  1.00800000E+00  1.60000000E+01  1.00800000E+00  1.00800000E+00
  1.60000000E+01  1.00800000E+00  1.00800000E+00  1.60000000E+01  1.00800000E+00
  1.00800000E+00  1.60000000E+01  1.00800000E+00  1.00800000E+00  1.60000000E+01
  1.00800000E+00  1.00800000E+00  1.60000000E+01  1.00800000E+00  1.00800000E+00
  1.60000000E+01  1.00800000E+00  1.00800000E+00  1.60000000E+01  1.00800000E+00
  1.00800000E+00  1.60000000E+01  1.00800000E+00  1.00800000E+00  1.60000000E+01
  1.00800000E+00  1.00800000E+00  1.60000000E+01  1.00800000E+00  1.00800000E+00
  1.60000000E+01  1.00800000E+00  1.00800000E+00  1.60000000E+01  1.00800000E+00
  1.00800000E+00  1.60000000E+01  1.00800000E+00  1.00800000E+00  1.60000000E+01
  1.00800000E+00  1.00800000E+00  1.60000000E+01  1.00800000E+00  1.00800000E+00
  1.60000000E+01  1.00800000E+00  1.00800000E+00  1.60000000E+01  1.00800000E+00
  1.00800000E+00  1.60000000E+01  1.00800000E+00  1.00800000E+00  1.60000000E+01
  1.00800000E+00  1.00800000E+00  1.60000000E+01  1.00800000E+00  1.00800000E+00
  1.60000000E+01  1.00800000E+00  1.00800000E+00  1.60000000E+01  1.00800000E+00
  1.00800000E+00  1.60000000E+01  1.00800000E+00  1.00800000E+00  1.60000000E+01
  1.00800000E+00  1.00800000E+00  1.60000000E+01  1.00800000E+00  1.00800000E+00
  1.60000000E+01  1.00800000E+00  1.00800000E+00  1.60000000E+01  1.00800000E+00
  1.00800000E+00  1.60000000E+01  1.00800000E+00  1.00800000E+00  1.60000000E+01
  1.00800000E+00  1.00800000E+00  1.60000000E+01  1.00800000E+00  1.00800000E+00
  1.60000000E+01  1.00800000E+00  1.00800000E+00  1.60000000E+01  1.00800000E+00
  1.00800000E+00  1.60000000E+01  1.00800000E+00  1.00800000E+00  1.60000000E+01
  1.00800000E+00  1.00800000E+00  1.60000000E+01  1.00800000E+00  1.00800000E+00
  1.60000000E+01  1.00800000E+00  1.00800000E+00  1.60000000E+01  1.00800000E+00
  1.00800000E+00  1.60000000E+01  1.00800000E+00  1.00800000E+00  1.60000000E+01
  1.00800000E+00  1.00800000E+00  1.60000000E+01  1.00800000E+00  1.00800000E+00
  1.60000000E+01  1.00800000E+00  1.00800000E+00  1.60000000E+01  1.00800000E+00
  1.00800000E+00  1.60000000E+01  1.00800000E+00  1.00800000E+00  1.60000000E+01
  1.00800000E+00  1.00800000E+00  1.60000000E+01  1.00800000E+00  1.00800000E+00
  1.60000000E+01  1.00800000E+00  1.00800000E+00  1.60000000E+01  1.00800000E+00
  1.00800000E+00  1.60000000E+01  1.00800000E+00  1.00800000E+00  1.60000000E+01
  1.00800000E+00  1.00800000E+00  1.60000000E+01  1.00800000E+00  1.00800000E+00
  1.60000000E+01  1.00800000E+00  1.00800000E+00  1.60000000E+01  1.00800000E+00
  1.00800000E+00  1.60000000E+01  1.00800000E+00  1.00800000E+00  1.60000000E+01
  1.00800000E+00  1.00800000E+00  1.60000000E+01  1.00800000E+00  1.00800000E+00
  1.60000000E+01  1.00800000E+00  1.00800000E+00  1.60000000E+01  1.00800000E+00
  1.00800000E+00  1.60000000E+01  1.00800000E+00  1.00800000E+00  1.60000000E+01
  1.00800000E+00  1.00800000E+00  1.60000000E+01  1.00800000E+00  1.00800000E+00
  1.60000000E+01  1.00800000E+00  1.00800000E+00  1.60000000E+01  1.00800000E+00
  1.00800000E+00  1.60000000E+01  1.00800000E+00  1.00800000E+00  1.60000000E+01
  1.00800000E+00  1.00800000E+00  1.60000000E+01  1.00800000E+00  1.00800000E+00
  1.60000000E+01  1.00800000E+00  1.00800000E+00  1.60000000E+01  1.00800000E+00
  1.00800000E+00  1.60000000E+01  1.00800000E+00  1.00800000E+00  1.60000000E+01
  1.00800000E+00  1.00800000E+00  1.60000000E+01  1.00800000E+00  1.00800000E+00
  1.60000000E+01  1.00800000E+00  1.00800000E+00  1.60000000E+01  1.00800000E+00
  1.00800000E+00  1.60000000E+01  1.00800000E+00  1.00800000E+00  1.60000000E+01
  1.00800000E+00  1.00800000E+00  1.60000000E+01  1.00800000E+00  1.00800000E+00
  1.60000000E+01  1.00800000E+00  1.00800000E+00  1.60000000E+01  1.00800000E+00
  1.00800000E+00  1.60000000E+01  1.00800000E+00  1.00800000E+00  1.60000000E+01
  1.00800000E+00  1.00800000E+00  1.60000000E+01  1.00800000E+00  1.00800000E+00
  1.60000000E+01  1.00800000E+00  1.00800000E+00  1.60000000E+01  1.00800000E+00
  1.00800000E+00  1.60000000E+01  1.00800000E+00  1.00800000E+00  1.60000000E+01
  1.00800000E+00  1.00800000E+00  1.60000000E+01  1.00800000E+00  1.00800000E+00
  1.60000000E+01  1.00800000E+00  1.00800000E+00  1.60000000E+01  1.00800000E+00
  1.00800000E+00  1.60000000E+01  1.00800000E+00  1.00800000E+00  1.60000000E+01
  1.00800000E+00  1.00800000E+00  1.60000000E+01  1.00800000E+00  1.00800000E+00
  1.60000000E+01  1.00800000E+00  1.00800000E+00  1.60000000E+01  1.00800000E+00
  1.00800000E+00  1.60000000E+01  1.00800000E+00  1.00800000E+00  1.60000000E+01
  1.00800000E+00  1.00800000E+00  1.60000000E+01  1.00800000E+00  1.00800000E+00
  1.60000000E+01  1.00800000E+00  1.00800000E+00  1.60000000E+01  1.00800000E+00
  1.00800000E+00  1.60000000E+01  1.00800000E+00  1.00800000E+00  1.60000000E+01
  1.00800000E+00  1.00800000E+00  1.60000000E+01  1.00800000E+00  1.00800000E+00
  1.60000000E+01  1.00800000E+00  1.00800000E+00  1.60000000E+01  1.00800000E+00
  1.00800000E+00  1.60000000E+01  1.00800000E+00  1.00800000E+00  1.60000000E+01
  1.00800000E+00  1.00800000E+00  1.60000000E+01  1.00800000E+00  1.00800000E+00
  1.60000000E+01  1.00800000E+00  1.00800000E+00  1.60000000E+01  1.00800000E+00
  1.00800000E+00  1.60000000E+01  1.00800000E+00  1.00800000E+00  1.60000000E+01
  1.00800000E+00  1.00800000E+00  1.60000000E+01  1.00800000E+00  1.00800000E+00
  1.60000000E+01  1.00800000E+00  1.00800000E+00  1.60000000E+01  1.00800000E+00
  1.00800000E+00  1.60000000E+01  1.00800000E+00  1.00800000E+00  1.60000000E+01
  1.00800000E+00  1.00800000E+00  1.60000000E+01  1.00800000E+00  1.00800000E+00
  1.60000000E+01  1.00800000E+00  1.00800000E+00  1.60000000E+01  1.00800000E+00
  1.00800000E+00  1.60000000E+01  1.00800000E+00  1.00800000E+00  1.60000000E+01
  1.00800000E+00  1.00800000E+00  1.60000000E+01  1.00800000E+00  1.00800000E+00
  1.60000000E+01  1.00800000E+00  1.00800000E+00  1.60000000E+01  1.00800000E+00
  1.00800000E+00  1.60000000E+01  1.00800000E+00  1.00800000E+00  1.60000000E+01
  1.00800000E+00  1.00800000E+00  1.60000000E+01  1.00800000E+00  1.00800000E+00
  1.60000000E+01  1.00800000E+00  1.00800000E+00  1.60000000E+01  1.00800000E+00
  1.00800000E+00  1.60000000E+01  1.00800000E+00  1.00800000E+00  1.60000000E+01
  1.00800000E+00  1.00800000E+00  1.60000000E+01  1.00800000E+00  1.00800000E+00
  1.60000000E+01  1.00800000E+00  1.00800000E+00  1.60000000E+01  1.00800000E+00
  1.00800000E+00  1.60000000E+01  1.00800000E+00  1.00800000E+00  1.60000000E+01
  1.00800000E+00  1.00800000E+00  1.60000000E+01  1.00800000E+00  1.00800000E+00
  1.60000000E+01  1.00800000E+00  1.00800000E+00  1.60000000E+01  1.00800000E+00
  1.00800000E+00  1.60000000E+01  1.00800000E+00  1.00800000E+00  1.60000000E+01
  1.00800000E+00  1.00800000E+00  1.60000000E+01  1.00800000E+00  1.00800000E+00
  1.60000000E+01  1.00800000E+00  1.00800000E+00  1.60000000E+01  1.00800000E+00
  1.00800000E+00  1.60000000E+01  1.00800000E+00  1.00800000E+00  1.60000000E+01
  1.00800000E+00  1.00800000E+00  1.60000000E+01  1.00800000E+00  1.00800000E+00
  1.60000000E+01  1.00800000E+00  1.00800000E+00  1.60000000E+01  1.00800000E+00
  1.00800000E+00  1.60000000E+01  1.00800000E+00  1.00800000E+00  1.60000000E+01
  1.00800000E+00  1.00800000E+00  1.60000000E+01  1.00800000E+00  1.00800000E+00
  1.60000000E+01  1.00800000E+00  1.00800000E+00  1.60000000E+01  1.00800000E+00
  1.00800000E+00  1.60000000E+01  1.00800000E+00  1.00800000E+00  1.60000000E+01
  1.00800000E+00  1.00800000E+00  1.60000000E+01  1.00800000E+00  1.00800000E+00
  1.60000000E+01  1.00800000E+00  1.00800000E+00  1.60000000E+01  1.00800000E+00
  1.00800000E+00  1.60000000E+01  1.00800000E+00  1.00800000E+00  1.60000000E+01
  1.00800000E+00  1.00800000E+00  1.60000000E+01  1.00800000E+00  1.00800000E+00
  1.60000000E+01  1.00800000E+00  1.00800000E+00  1.60000000E+01  1.00800000E+00
  1.00800000E+00  1.60000000E+01  1.00800000E+00  1.00800000E+00  1.60000000E+01
  1.00800000E+00  1.00800000E+00  1.60000000E+01  1.00800000E+00  1.00800000E+00
  1.60000000E+01  1.00800000E+00  1.00800000E+00  1.60000000E+01  1.00800000E+00
  1.00800000E+00  1.60000000E+01  1.00800000E+00  1.00800000E+00  1.60000000E+01
  1.00800000E+00  1.00800000E+00  1.60000000E+01  1.00800000E+00  1.00800000E+00
  1.60000000E+01  1.00800000E+00  1.00800000E+00  1.60000000E+01  1.00800000E+00
  1.00800000E+00  1.60000000E+01  1.00800000E+00  1.00800000E+00  1.60000000E+01
  1.00800000E+00  1.00800000E+00  1.60000000E+01  1.00800000E+00  1.00800000E+00
  1.60000000E+01  1.00800000E+00  1.00800000E+00  1.60000000E+01  1.00800000E+00
  1.00800000E+00  1.60000000E+01  1.00800000E+00  1.00800000E+00  1.60000000E+01
  1.00800000E+00  1.00800000E+00  1.60000000E+01  1.00800000E+00  1.00800000E+00
  1.60000000E+01  1.00800000E+00  1.00800000E+00  1.60000000E+01  1.00800000E+00
  1.00800000E+00  1.60000000E+01  1.00800000E+00  1.00800000E+00  1.60000000E+01
  1.00800000E+00  1.00800000E+00  1.60000000E+01  1.00800000E+00  1.00800000E+00
  1.60000000E+01  1.00800000E+00  1.00800000E+00  1.60000000E+01  1.00800000E+00
  1.00800000E+00  1.60000000E+01  1.00800000E+00  1.00800000E+00  1.60000000E+01
  1.00800000E+00  1.00800000E+00  1.60000000E+01  1.00800000E+00  1.00800000E+00
  1.60000000E+01  1.00800000E+00  1.00800000E+00  1.60000000E+01  1.00800000E+00
  1.00800000E+00  1.60000000E+01  1.00800000E+00  1.00800000E+00  1.60000000E+01
  1.00800000E+00  1.00800000E+00  1.60000000E+01  1.00800000E+00  1.00800000E+00
  1.60000000E+01  1.00800000E+00  1.00800000E+00  1.60000000E+01  1.00800000E+00
  1.00800000E+00  1.60000000E+01  1.00800000E+00  1.00800000E+00  1.60000000E+01
  1.00800000E+00  1.00800000E+00  1.60000000E+01  1.00800000E+00  1.00800000E+00
  1.60000000E+01  1.00800000E+00  1.00800000E+00  1.60000000E+01  1.00800000E+00
  1.00800000E+00  1.60000000E+01  1.00800000E+00  1.00800000E+00  1.60000000E+01
  1.00800000E+00  1.00800000E+00  1.60000000E+01  1.00800000E+00  1.00800000E+00
  1.60000000E+01  1.00800000E+00  1.00800000E+00  1.60000000E+01  1.00800000E+00
  1.00800000E+00  1.60000000E+01  1.00800000E+00  1.00800000E+00  1.60000000E+01
  1.00800000E+00  1.00800000E+00  1.60000000E+01  1.00800000E+00  1.00800000E+00
  1.60000000E+01  1.00800000E+00  1.00800000E+00  1.60000000E+01  1.00800000E+00
  1.00800000E+00  1.60000000E+01  1.00800000E+00  1.00800000E+00  1.60000000E+01
  1.00800000E+00  1.00800000E+00  1.60000000E+01  1.00800000E+00  1.00800000E+00
  1.60000000E+01  1.00800000E+00  1.00800000E+00  1.60000000E+01  1.00800000E+00
  1.00800000E+00  1.60000000E+01  1.00800000E+00  1.00800000E+00  1.60000000E+01
  1.00800000E+00  1.00800000E+00  1.60000000E+01  1.00800000E+00  1.00800000E+00
  1.60000000E+01  1.00800000E+00  1.00800000E+00  1.60000000E+01  1.00800000E+00
  1.00800000E+00  1.60000000E+01  1.00800000E+00  1.00800000E+00  1.60000000E+01
  1.00800000E+00  1.00800000E+00  1.60000000E+01  1.00800000E+00  1.00800000E+00
  1.60000000E+01  1.00800000E+00  1.00800000E+00  1.60000000E+01  1.00800000E+00
  1.00800000E+00  1.60000000E+01  1.00800000E+00  1.00800000E+00  1.60000000E+01
  1.00800000E+00  1.00800000E+00  1.60000000E+01  1.00800000E+00  1.00800000E+00
  1.60000000E+01  1.00800000E+00  1.00800000E+00  1.60000000E+01  1.00800000E+00
  1.00800000E+00  1.60000000E+01  1.00800000E+00  1.00800000E+00  1.60000000E+01
  1.00800000E+00  1.00800000E+00  1.60000000E+01  1.00800000E+00  1.00800000E+00
  1.60000000E+01  1.00800000E+00  1.00800000E+00  1.60000000E+01  1.00800000E+00
  1.00800000E+00  1.60000000E+01  1.00800000E+00  1.00800000E+00  1.60000000E+01
  1.00800000E+00  1.00800000E+00  1.60000000E+01  1.00800000E+00  1.00800000E+00
  1.60000000E+01  1.00800000E+00  1.00800000E+00  1.60000000E+01  1.00800000E+00
  1.00800000E+00  1.60000000E+01  1.00800000E+00  1.00800000E+00  1.60000000E+01
  1.00800000E+00  1.00800000E+00  1.60000000E+01  1.00800000E+00  1.00800000E+00
  1.60000000E+01  1.00800000E+00  1.00800000E+00  1.60000000E+01  1.00800000E+00
  1.00800000E+00  1.60000000E+01  1.00800000E+00  1.00800000E+00  1.60000000E+01
  1.00800000E+00  1.00800000E+00  1.60000000E+01  1.00800000E+00  1.00800000E+00
  1.60000000E+01  1.00800000E+00  1.00800000E+00  1.60000000E+01  1.00800000E+00
  1.00800000E+00  1.60000000E+01  1.00800000E+00  1.00800000E+00  1.60000000E+01
  1.00800000E+00  1.00800000E+00  1.60000000E+01  1.00800000E+00  1.00800000E+00
  1.60000000E+01  1.00800000E+00  1.00800000E+00  1.60000000E+01  1.00800000E+00
  1.00800000E+00  1.60000000E+01  1.00800000E+00  1.00800000E+00  1.60000000E+01
  1.00800000E+00  1.00800000E+00  1.60000000E+01  1.00800000E+00  1.00800000E+00
  1.60000000E+01  1.00800000E+00  1.00800000E+00  1.60000000E+01  1.00800000E+00
  1.00800000E+00  1.60000000E+01  1.00800000E+00  1.00800000E+00  1.60000000E+01
  1.00800000E+00  1.00800000E+00  1.60000000E+01  1.00800000E+00  1.00800000E+00
  1.60000000E+01  1.00800000E+00  1.00800000E+00  1.60000000E+01  1.00800000E+00
  1.00800000E+00  1.60000000E+01  1.00800000E+00  1.00800000E+00  1.60000000E+01
  1.00800000E+00  1.00800000E+00  1.60000000E+01  1.00800000E+00  1.00800000E+00
  1.60000000E+01  1.00800000E+00  1.00800000E+00  1.60000000E+01  1.00800000E+00
  1.00800000E+00  1.60000000E+01  1.00800000E+00  1.00800000E+00  1.60000000E+01
  1.00800000E+00  1.00800000E+00  1.60000000E+01  1.00800000E+00  1.00800000E+00
  1.60000000E+01  1.00800000E+00  1.00800000E+00  1.60000000E+01  1.00800000E+00
  1.00800000E+00  1.60000000E+01  1.00800000E+00  1.00800000E+00  1.60000000E+01
  1.00800000E+00  1.00800000E+00  1.60000000E+01  1.00800000E+00  1.00800000E+00
  1.60000000E+01  1.00800000E+00  1.00800000E+00  1.60000000E+01  1.00800000E+00
  1.00800000E+00  1.60000000E+01  1.00800000E+00  1.00800000E+00  1.60000000E+01
  1.00800000E+00  1.00800000E+00  1.60000000E+01  1.00800000E+00  1.00800000E+00
  1.60000000E+01  1.00800000E+00  1.00800000E+00  1.60000000E+01  1.00800000E+00
  1.00800000E+00  1.60000000E+01  1.00800000E+00  1.00800000E+00  1.60000000E+01
  1.00800000E+00  1.00800000E+00  1.60000000E+01  1.00800000E+00  1.00800000E+00
  1.60000000E+01  1.00800000E+00  1.00800000E+00  1.60000000E+01  1.00800000E+00
  1.00800000E+00  1.60000000E+01  1.00800000E+00  1.00800000E+00  1.60000000E+01
  1.00800000E+00  1.00800000E+00  1.60000000E+01  1.00800000E+00  1.00800000E+00
  1.60000000E+01  1.00800000E+00  1.00800000E+00  1.60000000E+01  1.00800000E+00
  1.00800000E+00  1.60000000E+01  1.00800000E+00  1.00800000E+00  1.60000000E+01
  1.00800000E+00  1.00800000E+00  1.60000000E+01  1.00800000E+00  1.00800000E+00
  1.60000000E+01  1.00800000E+00  1.00800000E+00  1.60000000E+01  1.00800000E+00
  1.00800000E+00  1.60000000E+01  1.00800000E+00  1.00800000E+00  1.60000000E+01
  1.00800000E+00  1.00800000E+00  1.60000000E+01  1.00800000E+00  1.00800000E+00
  1.60000000E+01  1.00800000E+00  1.00800000E+00  1.60000000E+01  1.00800000E+00
  1.00800000E+00  1.60000000E+01  1.00800000E+00  1.00800000E+00  1.60000000E+01
  1.00800000E+00  1.00800000E+00  1.60000000E+01  1.00800000E+00  1.00800000E+00
  1.60000000E+01  1.00800000E+00  1.00800000E+00  1.60000000E+01  1.00800000E+00
  1.00800000E+00  1.60000000E+01  1.00800000E+00  1.00800000E+00  1.60000000E+01
  1.00800000E+00  1.00800000E+00  1.60000000E+01  1.00800000E+00  1.00800000E+00
  1.60000000E+01  1.00800000E+00  1.00800000E+00  1.60000000E+01  1.00800000E+00
  1.00800000E+00  1.60000000E+01  1.00800000E+00  1.00800000E+00  1.60000000E+01
  1.00800000E+00  1.00800000E+00  1.60000000E+01  1.00800000E+00  1.00800000E+00
  1.60000000E+01  1.00800000E+00  1.00800000E+00  1.60000000E+01  1.00800000E+00
  1.00800000E+00  1.60000000E+01  1.00800000E+00  1.00800000E+00  1.60000000E+01
  1.00800000E+00  1.00800000E+00  1.60000000E+01  1.00800000E+00  1.00800000E+00
  1.60000000E+01  1.00800000E+00  1.00800000E+00  1.60000000E+01  1.00800000E+00
  1.00800000E+00  1.60000000E+01  1.00800000E+00  1.00800000E+00  1.60000000E+01
  1.00800000E+00  1.00800000E+00  1.60000000E+01  1.00800000E+00  1.00800000E+00
  1.60000000E+01  1.00800000E+00  1.00800000E+00  1.60000000E+01  1.00800000E+00
  1.00800000E+00  1.60000000E+01  1.00800000E+00  1.00800000E+00  1.60000000E+01
  1.00800000E+00  1.00800000E+00  1.60000000E+01  1.00800000E+00  1.00800000E+00
  1.60000000E+01  1.00800000E+00  1.00800000E+00  1.60000000E+01  1.00800000E+00
  1.00800000E+00  1.60000000E+01  1.00800000E+00  1.00800000E+00  1.60000000E+01
  1.00800000E+00  1.00800000E+00  1.60000000E+01  1.00800000E+00  1.00800000E+00
  1.60000000E+01  1.00800000E+00  1.00800000E+00  1.60000000E+01  1.00800000E+00
  1.00800000E+00  1.60000000E+01  1.00800000E+00  1.00800000E+00  1.60000000E+01
  1.00800000E+00  1.00800000E+00  1.60000000E+01  1.00800000E+00  1.00800000E+00
  1.60000000E+01  1.00800000E+00  1.00800000E+00  1.60000000E+01  1.00800000E+00
  1.00800000E+00  1.60000000E+01  1.00800000E+00  1.00800000E+00  1.60000000E+01
  1.00800000E+00  1.00800000E+00  1.60000000E+01  1.00800000E+00  1.00800000E+00
  1.60000000E+01  1.00800000E+00  1.00800000E+00  1.60000000E+01  1.00800000E+00
  1.00800000E+00  1.60000000E+01  1.00800000E+00  1.00800000E+00  1.60000000E+01
  1.00800000E+00  1.00800000E+00  1.60000000E+01  1.00800000E+00  1.00800000E+00
  1.60000000E+01  1.00800000E+00  1.00800000E+00  1.60000000E+01  1.00800000E+00
  1.00800000E+00  1.60000000E+01  1.00800000E+00  1.00800000E+00  1.60000000E+01
  1.00800000E+00  1.00800000E+00  1.60000000E+01  1.00800000E+00  1.00800000E+00
  1.60000000E+01  1.00800000E+00  1.00800000E+00  1.60000000E+01  1.00800000E+00
  1.00800000E+00  1.60000000E+01  1.00800000E+00  1.00800000E+00  1.60000000E+01
  1.00800000E+00  1.00800000E+00  1.60000000E+01  1.00800000E+00  1.00800000E+00
  1.60000000E+01  1.00800000E+00  1.00800000E+00  1.60000000E+01  1.00800000E+00
  1.00800000E+00  1.60000000E+01  1.00800000E+00  1.00800000E+00  1.60000000E+01
  1.00800000E+00  1.00800000E+00  1.60000000E+01  1.00800000E+00  1.00800000E+00
  1.60000000E+01  1.00800000E+00  1.00800000E+00  1.60000000E+01  1.00800000E+00
  1.00800000E+00  1.60000000E+01  1.00800000E+00  1.00800000E+00  1.60000000E+01
  1.00800000E+00  1.00800000E+00  1.60000000E+01  1.00800000E+00  1.00800000E+00
  1.60000000E+01  1.00800000E+00  1.00800000E+00  1.60000000E+01  1.00800000E+00
  1.00800000E+00  1.60000000E+01  1.00800000E+00  1.00800000E+00  1.60000000E+01
  1.00800000E+00  1.00800000E+00  1.60000000E+01  1.00800000E+00  1.00800000E+00
  1.60000000E+01  1.00800000E+00  1.00800000E+00  1.60000000E+01  1.00800000E+00
  1.00800000E+00  1.60000000E+01  1.00800000E+00  1.00800000E+00  1.60000000E+01
  1.00800000E+00  1.00800000E+00  1.60000000E+01  1.00800000E+00  1.00800000E+00
  1.60000000E+01  1.00800000E+00  1.00800000E+00  1.60000000E+01  1.00800000E+00
  1.00800000E+00  1.60000000E+01  1.00800000E+00  1.00800000E+00  1.60000000E+01
  1.00800000E+00  1.00800000E+00  1.60000000E+01  1.00800000E+00  1.00800000E+00
  1.60000000E+01  1.00800000E+00  1.00800000E+00  1.60000000E+01  1.00800000E+00
  1.00800000E+00  1.60000000E+01  1.00800000E+00  1.00800000E+00  1.60000000E+01
  1.00800000E+00  1.00800000E+00  1.60000000E+01  1.00800000E+00  1.00800000E+00
  1.60000000E+01  1.00800000E+00  1.00800000E+00  1.60000000E+01  1.00800000E+00
  1.00800000E+00  1.60000000E+01  1.00800000E+00  1.00800000E+00  1.60000000E+01
  1.00800000E+00  1.00800000E+00  1.60000000E+01  1.00800000E+00  1.00800000E+00
  1.60000000E+01  1.00800000E+00  1.00800000E+00  1.60000000E+01  1.00800000E+00
  1.00800000E+00  1.60000000E+01  1.00800000E+00  1.00800000E+00  1.60000000E+01
  1.00800000E+00  1.00800000E+00  1.60000000E+01  1.00800000E+00  1.00800000E+00
  1.60000000E+01  1.00800000E+00  1.00800000E+00  1.60000000E+01  1.00800000E+00
  1.00800000E+00  1.60000000E+01  1.00800000E+00  1.00800000E+00  1.60000000E+01
  1.00800000E+00  1.00800000E+00  1.60000000E+01  1.00800000E+00  1.00800000E+00
  1.60000000E+01  1.00800000E+00  1.00800000E+00  1.60000000E+01  1.00800000E+00
  1.00800000E+00  1.60000000E+01  1.00800000E+00  1.00800000E+00  1.60000000E+01
  1.00800000E+00  1.00800000E+00  1.60000000E+01  1.00800000E+00  1.00800000E+00
  1.60000000E+01  1.00800000E+00  1.00800000E+00  1.60000000E+01  1.00800000E+00
  1.00800000E+00  1.60000000E+01  1.00800000E+00  1.00800000E+00  1.60000000E+01
  1.00800000E+00  1.00800000E+00  1.60000000E+01  1.00800000E+00  1.00800000E+00
  1.60000000E+01  1.00800000E+00  1.00800000E+00  1.60000000E+01  1.00800000E+00
  1.00800000E+00  1.60000000E+01  1.00800000E+00  1.00800000E+00  1.60000000E+01
  1.00800000E+00  1.00800000E+00  1.60000000E+01  1.00800000E+00  1.00800000E+00
  1.60000000E+01  1.00800000E+00  1.00800000E+00  1.60000000E+01  1.00800000E+00
  1.00800000E+00  1.60000000E+01  1.00800000E+00  1.00800000E+00  1.60000000E+01
  1.00800000E+00  1.00800000E+00  1.60000000E+01  1.00800000E+00  1.00800000E+00
  1.60000000E+01  1.00800000E+00  1.00800000E+00  1.60000000E+01  1.00800000E+00
  1.00800000E+00  1.60000000E+01  1.00800000E+00  1.00800000E+00  1.60000000E+01
  1.00800000E+00  1.00800000E+00  1.60000000E+01  1.00800000E+00  1.00800000E+00
  1.60000000E+01  1.00800000E+00  1.00800000E+00  1.60000000E+01  1.00800000E+00
  1.00800000E+00  1.60000000E+01  1.00800000E+00  1.00800000E+00  1.60000000E+01
  1.00800000E+00  1.00800000E+00  1.60000000E+01  1.00800000E+00  1.00800000E+00
  1.60000000E+01  1.00800000E+00  1.00800000E+00  1.60000000E+01  1.00800000E+00
  1.00800000E+00  1.60000000E+01  1.00800000E+00  1.00800000E+00  1.60000000E+01
  1.00800000E+00  1.00800000E+00  1.60000000E+01  1.00800000E+00  1.00800000E+00
  1.60000000E+01  1.00800000E+00  1.00800000E+00  1.60000000E+01  1.00800000E+00
  1.00800000E+00  1.60000000E+01  1.00800000E+00  1.00800000E+00  1.60000000E+01
  1.00800000E+00  1.00800000E+00  1.60000000E+01  1.00800000E+00  1.00800000E+00
  1.60000000E+01  1.00800000E+00  1.00800000E+00  1.60000000E+01  1.00800000E+00
  1.00800000E+00  1.60000000E+01  1.00800000E+00  1.00800000E+00  1.60000000E+01
  1.00800000E+00  1.00800000E+00  1.60000000E+01  1.00800000E+00  1.00800000E+00
  1.60000000E+01  1.00800000E+00  1.00800000E+00  1.60000000E+01  1.00800000E+00
  1.00800000E+00  1.60000000E+01  1.00800000E+00  1.00800000E+00  1.60000000E+01
  1.00800000E+00  1.00800000E+00  1.60000000E+01  1.00800000E+00  1.00800000E+00
  1.60000000E+01  1.00800000E+00  1.00800000E+00  1.60000000E+01  1.00800000E+00
  1.00800000E+00  1.60000000E+01  1.00800000E+00  1.00800000E+00  1.60000000E+01
  1.00800000E+00  1.00800000E+00  1.60000000E+01  1.00800000E+00  1.00800000E+00
  1.60000000E+01  1.00800000E+00  1.00800000E+00  1.60000000E+01  1.00800000E+00
  1.00800000E+00  1.60000000E+01  1.00800000E+00  1.00800000E+00  1.60000000E+01
  1.00800000E+00  1.00800000E+00  1.60000000E+01  1.00800000E+00  1.00800000E+00
  1.60000000E+01  1.00800000E+00  1.00800000E+00  1.60000000E+01  1.00800000E+00
  1.00800000E+00  1.60000000E+01  1.00800000E+00  1.00800000E+00  1.60000000E+01
  1.00800000E+00  1.00800000E+00  1.60000000E+01  1.00800000E+00  1.00800000E+00
  1.60000000E+01  1.00800000E+00  1.00800000E+00  1.60000000E+01  1.00800000E+00
  1.00800000E+00  1.60000000E+01  1.00800000E+00  1.00800000E+00  1.60000000E+01
  1.00800000E+00  1.00800000E+00  1.60000000E+01  1.00800000E+00  1.00800000E+00
  1.60000000E+01  1.00800000E+00  1.00800000E+00  1.60000000E+01  1.00800000E+00
  1.00800000E+00  1.60000000E+01  1.00800000E+00  1.00800000E+00  1.60000000E+01
  1.00800000E+00  1.00800000E+00  1.60000000E+01  1.00800000E+00  1.00800000E+00
  1.60000000E+01  1.00800000E+00  1.00800000E+00  1.60000000E+01  1.00800000E+00
  1.00800000E+00  1.60000000E+01  1.00800000E+00  1.00800000E+00  1.60000000E+01
  1.00800000E+00  1.00800000E+00  1.60000000E+01  1.00800000E+00  1.00800000E+00
  1.60000000E+01  1.00800000E+00  1.00800000E+00  1.60000000E+01  1.00800000E+00
  1.00800000E+00  1.60000000E+01  1.00800000E+00  1.00800000E+00  1.60000000E+01
  1.00800000E+00  1.00800000E+00  1.60000000E+01  1.00800000E+00  1.00800000E+00
  1.60000000E+01  1.00800000E+00  1.00800000E+00  1.60000000E+01  1.00800000E+00
  1.00800000E+00  1.60000000E+01  1.00800000E+00  1.00800000E+00  1.60000000E+01
  1.00800000E+00  1.00800000E+00  1.60000000E+01  1.00800000E+00  1.00800000E+00
  1.60000000E+01  1.00800000E+00  1.00800000E+00  1.60000000E+01  1.00800000E+00
  1.00800000E+00  1.60000000E+01  1.00800000E+00  1.00800000E+00  1.60000000E+01
  1.00800000E+00  1.00800000E+00  1.60000000E+01  1.00800000E+00  1.00800000E+00
  1.60000000E+01  1.00800000E+00  1.00800000E+00  1.60000000E+01  1.00800000E+00
  1.00800000E+00  1.60000000E+01  1.00800000E+00  1.00800000E+00  1.60000000E+01
  1.00800000E+00  1.00800000E+00  1.60000000E+01  1.00800000E+00  1.00800000E+00
  1.60000000E+01  1.00800000E+00  1.00800000E+00  1.60000000E+01  1.00800000E+00
  1.00800000E+00  1.60000000E+01  1.00800000E+00  1.00800000E+00  1.60000000E+01
  1.00800000E+00  1.00800000E+00  1.60000000E+01  1.00800000E+00  1.00800000E+00
  1.60000000E+01  1.00800000E+00  1.00800000E+00  1.60000000E+01  1.00800000E+00
  1.00800000E+00  1.60000000E+01  1.00800000E+00  1.00800000E+00  1.60000000E+01
  1.00800000E+00  1.00800000E+00  1.60000000E+01  1.00800000E+00  1.00800000E+00
  1.60000000E+01  1.00800000E+00  1.00800000E+00  1.60000000E+01  1.00800000E+00
  1.00800000E+00  1.60000000E+01  1.00800000E+00  1.00800000E+00  1.60000000E+01
  1.00800000E+00  1.00800000E+00  1.60000000E+01  1.00800000E+00  1.00800000E+00
  1.60000000E+01  1.00800000E+00  1.00800000E+00  1.60000000E+01  1.00800000E+00
  1.00800000E+00  1.60000000E+01  1.00800000E+00  1.00800000E+00  1.60000000E+01
  1.00800000E+00  1.00800000E+00  1.60000000E+01  1.00800000E+00  1.00800000E+00
  1.60000000E+01  1.00800000E+00  1.00800000E+00  1.60000000E+01  1.00800000E+00
  1.00800000E+00  1.60000000E+01  1.00800000E+00  1.00800000E+00  1.60000000E+01
  1.00800000E+00  1.00800000E+00  1.60000000E+01  1.00800000E+00  1.00800000E+00
  1.60000000E+01  1.00800000E+00  1.00800000E+00  1.60000000E+01  1.00800000E+00
  1.00800000E+00  1.60000000E+01  1.00800000E+00  1.00800000E+00  1.60000000E+01
  1.00800000E+00  1.00800000E+00  1.60000000E+01  1.00800000E+00  1.00800000E+00
  1.60000000E+01  1.00800000E+00  1.00800000E+00  1.60000000E+01  1.00800000E+00
  1.00800000E+00  1.60000000E+01  1.00800000E+00  1.00800000E+00  1.60000000E+01
  1.00800000E+00  1.00800000E+00  1.60000000E+01  1.00800000E+00  1.00800000E+00
  1.60000000E+01  1.00800000E+00  1.00800000E+00  1.60000000E+01  1.00800000E+00
  1.00800000E+00  1.60000000E+01  1.00800000E+00  1.00800000E+00  1.60000000E+01
  1.00800000E+00  1.00800000E+00  1.60000000E+01  1.00800000E+00  1.00800000E+00
  1.60000000E+01  1.00800000E+00  1.00800000E+00  1.60000000E+01  1.00800000E+00
  1.00800000E+00  1.60000000E+01  1.00800000E+00  1.00800000E+00  1.60000000E+01
  1.00800000E+00  1.00800000E+00  1.60000000E+01  1.00800000E+00  1.00800000E+00
  1.60000000E+01  1.00800000E+00  1.00800000E+00  1.60000000E+01  1.00800000E+00
  1.00800000E+00  1.60000000E+01  1.00800000E+00  1.00800000E+00  1.60000000E+01
  1.00800000E+00  1.00800000E+00  1.60000000E+01  1.00800000E+00  1.00800000E+00
  1.60000000E+01  1.00800000E+00  1.00800000E+00  1.60000000E+01  1.00800000E+00
  1.00800000E+00  1.60000000E+01  1.00800000E+00  1.00800000E+00  1.60000000E+01
  1.00800000E+00  1.00800000E+00  1.60000000E+01  1.00800000E+00  1.00800000E+00
  1.60000000E+01  1.00800000E+00  1.00800000E+00  1.60000000E+01  1.00800000E+00
  1.00800000E+00  1.60000000E+01  1.00800000E+00  1.00800000E+00  1.60000000E+01
  1.00800000E+00  1.00800000E+00  1.60000000E+01  1.00800000E+00  1.00800000E+00
  1.60000000E+01  1.00800000E+00  1.00800000E+00  1.60000000E+01  1.00800000E+00
  1.00800000E+00  1.60000000E+01  1.00800000E+00  1.00800000E+00  1.60000000E+01
  1.00800000E+00  1.00800000E+00  1.60000000E+01  1.00800000E+00  1.00800000E+00
  1.60000000E+01  1.00800000E+00  1.00800000E+00  1.60000000E+01  1.00800000E+00
  1.00800000E+00  1.60000000E+01  1.00800000E+00  1.00800000E+00  1.60000000E+01
  1.00800000E+00  1.00800000E+00  1.60000000E+01  1.00800000E+00  1.00800000E+00
  1.60000000E+01  1.00800000E+00  1.00800000E+00  1.60000000E+01  1.00800000E+00
  1.00800000E+00  1.60000000E+01  1.00800000E+00  1.00800000E+00  1.60000000E+01
  1.00800000E+00  1.00800000E+00  1.60000000E+01  1.00800000E+00  1.00800000E+00
  1.60000000E+01  1.00800000E+00  1.00800000E+00  1.60000000E+01  1.00800000E+00
  1.00800000E+00  1.60000000E+01  1.00800000E+00  1.00800000E+00  1.60000000E+01
  1.00800000E+00  1.00800000E+00  1.60000000E+01  1.00800000E+00  1.00800000E+00
  1.60000000E+01  1.00800000E+00  1.00800000E+00  1.60000000E+01  1.00800000E+00
  1.00800000E+00  1.60000000E+01  1.00800000E+00  1.00800000E+00  1.60000000E+01
  1.00800000E+00  1.00800000E+00  1.60000000E+01  1.00800000E+00  1.00800000E+00
  1.60000000E+01  1.00800000E+00  1.00800000E+00  1.60000000E+01  1.00800000E+00
  1.00800000E+00  1.60000000E+01  1.00800000E+00  1.00800000E+00  1.60000000E+01
  1.00800000E+00  1.00800000E+00  1.60000000E+01  1.00800000E+00  1.00800000E+00
  1.60000000E+01  1.00800000E+00  1.00800000E+00  1.60000000E+01  1.00800000E+00
  1.00800000E+00  1.60000000E+01  1.00800000E+00  1.00800000E+00  1.60000000E+01
  1.00800000E+00  1.00800000E+00  1.60000000E+01  1.00800000E+00  1.00800000E+00
  1.60000000E+01  1.00800000E+00  1.00800000E+00  1.60000000E+01  1.00800000E+00
  1.00800000E+00  1.60000000E+01  1.00800000E+00  1.00800000E+00  1.60000000E+01
  1.00800000E+00  1.00800000E+00  1.60000000E+01  1.00800000E+00  1.00800000E+00
  1.60000000E+01  1.00800000E+00  1.00800000E+00  1.60000000E+01  1.00800000E+00
  1.00800000E+00  1.60000000E+01  1.00800000E+00  1.00800000E+00  1.60000000E+01
  1.00800000E+00  1.00800000E+00  1.60000000E+01  1.00800000E+00  1.00800000E+00
  1.60000000E+01  1.00800000E+00  1.00800000E+00  1.60000000E+01  1.00800000E+00
  1.00800000E+00  1.60000000E+01  1.00800000E+00  1.00800000E+00  1.60000000E+01
  1.00800000E+00  1.00800000E+00  1.60000000E+01  1.00800000E+00  1.00800000E+00
  1.60000000E+01  1.00800000E+00  1.00800000E+00  1.60000000E+01  1.00800000E+00
  1.00800000E+00  1.60000000E+01  1.00800000E+00  1.00800000E+00  1.60000000E+01
  1.00800000E+00  1.00800000E+00  1.60000000E+01  1.00800000E+00  1.00800000E+00
  1.60000000E+01  1.00800000E+00  1.00800000E+00  1.60000000E+01  1.00800000E+00
  1.00800000E+00  1.60000000E+01  1.00800000E+00  1.00800000E+00  1.60000000E+01
  1.00800000E+00  1.00800000E+00  1.60000000E+01  1.00800000E+00  1.00800000E+00
  1.60000000E+01  1.00800000E+00  1.00800000E+00  1.60000000E+01  1.00800000E+00
  1.00800000E+00  1.60000000E+01  1.00800000E+00  1.00800000E+00  1.60000000E+01
  1.00800000E+00  1.00800000E+00  1.60000000E+01  1.00800000E+00  1.00800000E+00
  1.60000000E+01  1.00800000E+00  1.00800000E+00  1.60000000E+01  1.00800000E+00
  1.00800000E+00  1.60000000E+01  1.00800000E+00  1.00800000E+00  1.60000000E+01
  1.00800000E+00  1.00800000E+00  1.60000000E+01  1.00800000E+00  1.00800000E+00
  1.60000000E+01  1.00800000E+00  1.00800000E+00  1.60000000E+01  1.00800000E+00
  1.00800000E+00  1.60000000E+01  1.00800000E+00  1.00800000E+00  1.60000000E+01
  1.00800000E+00  1.00800000E+00  1.60000000E+01  1.00800000E+00  1.00800000E+00
  1.60000000E+01  1.00800000E+00  1.00800000E+00  1.60000000E+01  1.00800000E+00
  1.00800000E+00  1.60000000E+01  1.00800000E+00  1.00800000E+00  1.60000000E+01
  1.00800000E+00  1.00800000E+00  1.60000000E+01  1.00800000E+00  1.00800000E+00
  1.60000000E+01  1.00800000E+00  1.00800000E+00  1.60000000E+01  1.00800000E+00
  1.00800000E+00  1.60000000E+01  1.00800000E+00  1.00800000E+00  1.60000000E+01
  1.00800000E+00  1.00800000E+00  1.60000000E+01  1.00800000E+00  1.00800000E+00
  1.60000000E+01  1.00800000E+00  1.00800000E+00  1.60000000E+01  1.00800000E+00
  1.00800000E+00  1.60000000E+01  1.00800000E+00  1.00800000E+00  1.60000000E+01
  1.00800000E+00  1.00800000E+00  1.60000000E+01  1.00800000E+00  1.00800000E+00
  1.60000000E+01  1.00800000E+00  1.00800000E+00  1.60000000E+01  1.00800000E+00
  1.00800000E+00  1.60000000E+01  1.00800000E+00  1.00800000E+00  1.60000000E+01
  1.00800000E+00  1.00800000E+00  1.60000000E+01  1.00800000E+00  1.00800000E+00
  1.60000000E+01  1.00800000E+00  1.00800000E+00  1.60000000E+01  1.00800000E+00
  1.00800000E+00  1.60000000E+01  1.00800000E+00  1.00800000E+00  1.60000000E+01
  1.00800000E+00  1.00800000E+00  1.60000000E+01  1.00800000E+00  1.00800000E+00
  1.60000000E+01  1.00800000E+00  1.00800000E+00  1.60000000E+01  1.00800000E+00
  1.00800000E+00  1.60000000E+01  1.00800000E+00  1.00800000E+00  1.60000000E+01
  1.00800000E+00  1.00800000E+00  1.60000000E+01  1.00800000E+00  1.00800000E+00
  1.60000000E+01  1.00800000E+00  1.00800000E+00  1.60000000E+01  1.00800000E+00
  1.00800000E+00  1.60000000E+01  1.00800000E+00  1.00800000E+00  1.60000000E+01
  1.00800000E+00  1.00800000E+00  1.60000000E+01  1.00800000E+00  1.00800000E+00
  1.60000000E+01  1.00800000E+00  1.00800000E+00  1.60000000E+01  1.00800000E+00
  1.00800000E+00  1.60000000E+01  1.00800000E+00  1.00800000E+00  1.60000000E+01
  1.00800000E+00  1.00800000E+00  1.60000000E+01  1.00800000E+00  1.00800000E+00
  1.60000000E+01  1.00800000E+00  1.00800000E+00  1.60000000E+01  1.00800000E+00
  1.00800000E+00  1.60000000E+01  1.00800000E+00  1.00800000E+00  1.60000000E+01
  1.00800000E+00  1.00800000E+00  1.60000000E+01  1.00800000E+00  1.00800000E+00
  1.60000000E+01  1.00800000E+00  1.00800000E+00  1.60000000E+01  1.00800000E+00
  1.00800000E+00  1.60000000E+01  1.00800000E+00  1.00800000E+00  1.60000000E+01
  1.00800000E+00  1.00800000E+00  1.60000000E+01  1.00800000E+00  1.00800000E+00
  1.60000000E+01  1.00800000E+00  1.00800000E+00  1.60000000E+01  1.00800000E+00
  1.00800000E+00  1.60000000E+01  1.00800000E+00  1.00800000E+00  1.60000000E+01
  1.00800000E+00  1.00800000E+00  1.60000000E+01  1.00800000E+00  1.00800000E+00
  1.60000000E+01  1.00800000E+00  1.00800000E+00  1.60000000E+01  1.00800000E+00
  1.00800000E+00  1.60000000E+01  1.00800000E+00  1.00800000E+00  1.60000000E+01
  1.00800000E+00  1.00800000E+00  1.60000000E+01  1.00800000E+00  1.00800000E+00
  1.60000000E+01  1.00800000E+00  1.00800000E+00  1.60000000E+01  1.00800000E+00
  1.00800000E+00  1.60000000E+01  1.00800000E+00  1.00800000E+00  1.60000000E+01
  1.00800000E+00  1.00800000E+00  1.60000000E+01  1.00800000E+00  1.00800000E+00
  1.60000000E+01  1.00800000E+00  1.00800000E+00  1.60000000E+01  1.00800000E+00
  1.00800000E+00  1.60000000E+01  1.00800000E+00  1.00800000E+00  1.60000000E+01
  1.00800000E+00  1.00800000E+00  1.60000000E+01  1.00800000E+00  1.00800000E+00
  1.60000000E+01  1.00800000E+00  1.00800000E+00  1.60000000E+01  1.00800000E+00
  1.00800000E+00  1.60000000E+01  1.00800000E+00  1.00800000E+00  1.60000000E+01
  1.00800000E+00  1.00800000E+00  1.60000000E+01  1.00800000E+00  1.00800000E+00
  1.60000000E+01  1.00800000E+00  1.00800000E+00  1.60000000E+01  1.00800000E+00
  1.00800000E+00  1.60000000E+01  1.00800000E+00  1.00800000E+00  1.60000000E+01
  1.00800000E+00  1.00800000E+00  1.60000000E+01  1.00800000E+00  1.00800000E+00
  1.60000000E+01  1.00800000E+00  1.00800000E+00  1.60000000E+01  1.00800000E+00
  1.00800000E+00  1.60000000E+01  1.00800000E+00  1.00800000E+00  1.60000000E+01
  1.00800000E+00  1.00800000E+00  1.60000000E+01  1.00800000E+00  1.00800000E+00
  1.60000000E+01  1.00800000E+00  1.00800000E+00  1.60000000E+01  1.00800000E+00
  1.00800000E+00  1.60000000E+01  1.00800000E+00  1.00800000E+00  1.60000000E+01
  1.00800000E+00  1.00800000E+00  1.60000000E+01  1.00800000E+00  1.00800000E+00
  1.60000000E+01  1.00800000E+00  1.00800000E+00  1.60000000E+01  1.00800000E+00
  1.00800000E+00  1.60000000E+01  1.00800000E+00  1.00800000E+00  1.60000000E+01
  1.00800000E+00  1.00800000E+00  1.60000000E+01  1.00800000E+00  1.00800000E+00
  1.60000000E+01  1.00800000E+00  1.00800000E+00  1.60000000E+01  1.00800000E+00
  1.00800000E+00  1.60000000E+01  1.00800000E+00  1.00800000E+00  1.60000000E+01
  1.00800000E+00  1.00800000E+00  1.60000000E+01  1.00800000E+00  1.00800000E+00
  1.60000000E+01  1.00800000E+00  1.00800000E+00  1.60000000E+01  1.00800000E+00
  1.00800000E+00  1.60000000E+01  1.00800000E+00  1.00800000E+00  1.60000000E+01
  1.00800000E+00  1.00800000E+00  1.60000000E+01  1.00800000E+00  1.00800000E+00
  1.60000000E+01  1.00800000E+00  1.00800000E+00  1.60000000E+01  1.00800000E+00
  1.00800000E+00  1.60000000E+01  1.00800000E+00  1.00800000E+00  1.60000000E+01
  1.00800000E+00  1.00800000E+00  1.60000000E+01  1.00800000E+00  1.00800000E+00
  1.60000000E+01  1.00800000E+00  1.00800000E+00  1.60000000E+01  1.00800000E+00
  1.00800000E+00  1.60000000E+01  1.00800000E+00  1.00800000E+00  1.60000000E+01
  1.00800000E+00  1.00800000E+00  1.60000000E+01  1.00800000E+00  1.00800000E+00
  1.60000000E+01  1.00800000E+00  1.00800000E+00  1.60000000E+01  1.00800000E+00
  1.00800000E+00  1.60000000E+01  1.00800000E+00  1.00800000E+00  1.60000000E+01
  1.00800000E+00  1.00800000E+00  1.60000000E+01  1.00800000E+00  1.00800000E+00
  1.60000000E+01  1.00800000E+00  1.00800000E+00  1.60000000E+01  1.00800000E+00
  1.00800000E+00  1.60000000E+01  1.00800000E+00  1.00800000E+00  1.60000000E+01
  1.00800000E+00  1.00800000E+00  1.60000000E+01  1.00800000E+00  1.00800000E+00
  1.60000000E+01  1.00800000E+00  1.00800000E+00  1.60000000E+01  1.00800000E+00
  1.00800000E+00  1.60000000E+01  1.00800000E+00  1.00800000E+00  1.60000000E+01
  1.00800000E+00  1.00800000E+00  1.60000000E+01  1.00800000E+00  1.00800000E+00
  1.60000000E+01  1.00800000E+00  1.00800000E+00  1.60000000E+01  1.00800000E+00
  1.00800000E+00  1.60000000E+01  1.00800000E+00  1.00800000E+00  1.60000000E+01
  1.00800000E+00  1.00800000E+00  1.60000000E+01  1.00800000E+00  1.00800000E+00
  1.60000000E+01  1.00800000E+00  1.00800000E+00  1.60000000E+01  1.00800000E+00
  1.00800000E+00  1.60000000E+01  1.00800000E+00  1.00800000E+00  1.60000000E+01
  1.00800000E+00  1.00800000E+00  1.60000000E+01  1.00800000E+00  1.00800000E+00
  1.60000000E+01  1.00800000E+00  1.00800000E+00  1.60000000E+01  1.00800000E+00
  1.00800000E+00  1.60000000E+01  1.00800000E+00  1.00800000E+00  1.60000000E+01
  1.00800000E+00  1.00800000E+00  1.60000000E+01  1.00800000E+00  1.00800000E+00
  1.60000000E+01  1.00800000E+00  1.00800000E+00  1.60000000E+01  1.00800000E+00
  1.00800000E+00  1.60000000E+01  1.00800000E+00  1.00800000E+00  1.60000000E+01
  1.00800000E+00  1.00800000E+00  1.60000000E+01  1.00800000E+00  1.00800000E+00
  1.60000000E+01  1.00800000E+00  1.00800000E+00  1.60000000E+01  1.00800000E+00
  1.00800000E+00  1.60000000E+01  1.00800000E+00  1.00800000E+00  1.60000000E+01
  1.00800000E+00  1.00800000E+00  1.60000000E+01  1.00800000E+00  1.00800000E+00
  1.60000000E+01  1.00800000E+00  1.00800000E+00  1.60000000E+01  1.00800000E+00
  1.00800000E+00  1.60000000E+01  1.00800000E+00  1.00800000E+00  1.60000000E+01
  1.00800000E+00  1.00800000E+00  1.60000000E+01  1.00800000E+00  1.00800000E+00
  1.60000000E+01  1.00800000E+00  1.00800000E+00  1.60000000E+01  1.00800000E+00
  1.00800000E+00  1.60000000E+01  1.00800000E+00  1.00800000E+00  1.60000000E+01
  1.00800000E+00  1.00800000E+00  1.60000000E+01  1.00800000E+00  1.00800000E+00
  1.60000000E+01  1.00800000E+00  1.00800000E+00  1.60000000E+01  1.00800000E+00
  1.00800000E+00  1.60000000E+01  1.00800000E+00  1.00800000E+00  1.60000000E+01
  1.00800000E+00  1.00800000E+00  1.60000000E+01  1.00800000E+00  1.00800000E+00
  1.60000000E+01  1.00800000E+00  1.00800000E+00  1.60000000E+01  1.00800000E+00
  1.00800000E+00  1.60000000E+01  1.00800000E+00  1.00800000E+00  1.60000000E+01
  1.00800000E+00  1.00800000E+00  1.60000000E+01  1.00800000E+00  1.00800000E+00
  1.60000000E+01  1.00800000E+00  1.00800000E+00  1.60000000E+01  1.00800000E+00
  1.00800000E+00  1.60000000E+01  1.00800000E+00  1.00800000E+00  1.60000000E+01
  1.00800000E+00  1.00800000E+00  1.60000000E+01  1.00800000E+00  1.00800000E+00
  1.60000000E+01  1.00800000E+00  1.00800000E+00  1.60000000E+01  1.00800000E+00
  1.00800000E+00  1.60000000E+01  1.00800000E+00  1.00800000E+00  1.60000000E+01
  1.00800000E+00  1.00800000E+00  1.60000000E+01  1.00800000E+00  1.00800000E+00
  1.60000000E+01  1.00800000E+00  1.00800000E+00  1.60000000E+01  1.00800000E+00
  1.00800000E+00  1.60000000E+01  1.00800000E+00  1.00800000E+00  1.60000000E+01
  1.00800000E+00  1.00800000E+00  1.60000000E+01  1.00800000E+00  1.00800000E+00
  1.60000000E+01  1.00800000E+00  1.00800000E+00  1.60000000E+01  1.00800000E+00
  1.00800000E+00  1.60000000E+01  1.00800000E+00  1.00800000E+00  1.60000000E+01
  1.00800000E+00  1.00800000E+00  1.60000000E+01  1.00800000E+00  1.00800000E+00
  1.60000000E+01  1.00800000E+00  1.00800000E+00  1.60000000E+01  1.00800000E+00
  1.00800000E+00  1.60000000E+01  1.00800000E+00  1.00800000E+00  1.60000000E+01
  1.00800000E+00  1.00800000E+00  1.60000000E+01  1.00800000E+00  1.00800000E+00
  1.60000000E+01  1.00800000E+00  1.00800000E+00  1.60000000E+01  1.00800000E+00
  1.00800000E+00  1.60000000E+01  1.00800000E+00  1.00800000E+00  1.60000000E+01
  1.00800000E+00  1.00800000E+00  1.60000000E+01  1.00800000E+00  1.00800000E+00
  1.60000000E+01  1.00800000E+00  1.00800000E+00  1.60000000E+01  1.00800000E+00
  1.00800000E+00  1.60000000E+01  1.00800000E+00  1.00800000E+00  1.60000000E+01
  1.00800000E+00  1.00800000E+00  1.60000000E+01  1.00800000E+00  1.00800000E+00
  1.60000000E+01  1.00800000E+00  1.00800000E+00  1.60000000E+01  1.00800000E+00
  1.00800000E+00  1.60000000E+01  1.00800000E+00  1.00800000E+00  1.60000000E+01
  1.00800000E+00  1.00800000E+00  1.60000000E+01  1.00800000E+00  1.00800000E+00
  1.60000000E+01  1.00800000E+00  1.00800000E+00  1.60000000E+01  1.00800000E+00
  1.00800000E+00  1.60000000E+01  1.00800000E+00  1.00800000E+00  1.60000000E+01
  1.00800000E+00  1.00800000E+00  1.60000000E+01  1.00800000E+00  1.00800000E+00
  1.60000000E+01  1.00800000E+00  1.00800000E+00  1.60000000E+01  1.00800000E+00
  1.00800000E+00  1.60000000E+01  1.00800000E+00  1.00800000E+00  1.60000000E+01
  1.00800000E+00  1.00800000E+00  1.60000000E+01  1.00800000E+00  1.00800000E+00
  1.60000000E+01  1.00800000E+00  1.00800000E+00  1.60000000E+01  1.00800000E+00
  1.00800000E+00  1.60000000E+01  1.00800000E+00  1.00800000E+00  1.60000000E+01
  1.00800000E+00  1.00800000E+00  1.60000000E+01  1.00800000E+00  1.00800000E+00
  1.60000000E+01  1.00800000E+00  1.00800000E+00  1.60000000E+01  1.00800000E+00
  1.00800000E+00  1.60000000E+01  1.00800000E+00  1.00800000E+00  1.60000000E+01
  1.00800000E+00  1.00800000E+00  1.60000000E+01  1.00800000E+00  1.00800000E+00
  1.60000000E+01  1.00800000E+00  1.00800000E+00  1.60000000E+01  1.00800000E+00
  1.00800000E+00  1.60000000E+01  1.00800000E+00  1.00800000E+00  1.60000000E+01
  1.00800000E+00  1.00800000E+00  1.60000000E+01  1.00800000E+00  1.00800000E+00
  1.60000000E+01  1.00800000E+00  1.00800000E+00  1.60000000E+01  1.00800000E+00
  1.00800000E+00  1.60000000E+01  1.00800000E+00  1.00800000E+00  1.60000000E+01
  1.00800000E+00  1.00800000E+00  1.60000000E+01  1.00800000E+00  1.00800000E+00
  1.60000000E+01  1.00800000E+00  1.00800000E+00  1.60000000E+01  1.00800000E+00
  1.00800000E+00  1.60000000E+01  1.00800000E+00  1.00800000E+00  1.60000000E+01
  1.00800000E+00  1.00800000E+00  1.60000000E+01  1.00800000E+00  1.00800000E+00
  1.60000000E+01  1.00800000E+00  1.00800000E+00  1.60000000E+01  1.00800000E+00
  1.00800000E+00  1.60000000E+01  1.00800000E+00  1.00800000E+00  1.60000000E+01
  1.00800000E+00  1.00800000E+00  1.60000000E+01  1.00800000E+00  1.00800000E+00
  1.60000000E+01  1.00800000E+00  1.00800000E+00  1.60000000E+01  1.00800000E+00
  1.00800000E+00  1.60000000E+01  1.00800000E+00  1.00800000E+00  1.60000000E+01
  1.00800000E+00  1.00800000E+00  1.60000000E+01  1.00800000E+00  1.00800000E+00
  1.60000000E+01  1.00800000E+00  1.00800000E+00  1.60000000E+01  1.00800000E+00
  1.00800000E+00  1.60000000E+01  1.00800000E+00  1.00800000E+00  1.60000000E+01
  1.00800000E+00  1.00800000E+00  1.60000000E+01  1.00800000E+00  1.00800000E+00
  1.60000000E+01  1.00800000E+00  1.00800000E+00  1.60000000E+01  1.00800000E+00
  1.00800000E+00  1.60000000E+01  1.00800000E+00  1.00800000E+00  1.60000000E+01
  1.00800000E+00  1.00800000E+00  1.60000000E+01  1.00800000E+00  1.00800000E+00
  1.60000000E+01  1.00800000E+00  1.00800000E+00  1.60000000E+01  1.00800000E+00
  1.00800000E+00  1.60000000E+01  1.00800000E+00  1.00800000E+00  1.60000000E+01
  1.00800000E+00  1.00800000E+00  1.60000000E+01  1.00800000E+00  1.00800000E+00
  1.60000000E+01  1.00800000E+00  1.00800000E+00  1.60000000E+01  1.00800000E+00
  1.00800000E+00  1.60000000E+01  1.00800000E+00  1.00800000E+00  1.60000000E+01
  1.00800000E+00  1.00800000E+00  1.60000000E+01  1.00800000E+00  1.00800000E+00
  1.60000000E+01  1.00800000E+00  1.00800000E+00  1.60000000E+01  1.00800000E+00
  1.00800000E+00  1.60000000E+01  1.00800000E+00  1.00800000E+00  1.60000000E+01
  1.00800000E+00  1.00800000E+00  1.60000000E+01  1.00800000E+00  1.00800000E+00
  1.60000000E+01  1.00800000E+00  1.00800000E+00  1.60000000E+01  1.00800000E+00
  1.00800000E+00  1.60000000E+01  1.00800000E+00  1.00800000E+00  1.60000000E+01
  1.00800000E+00  1.00800000E+00  1.60000000E+01  1.00800000E+00  1.00800000E+00
  1.60000000E+01  1.00800000E+00  1.00800000E+00  1.60000000E+01  1.00800000E+00
  1.00800000E+00  1.60000000E+01  1.00800000E+00  1.00800000E+00  1.60000000E+01
  1.00800000E+00  1.00800000E+00  1.60000000E+01  1.00800000E+00  1.00800000E+00
  1.60000000E+01  1.00800000E+00  1.00800000E+00  1.60000000E+01  1.00800000E+00
  1.00800000E+00  1.60000000E+01  1.00800000E+00  1.00800000E+00  1.60000000E+01
  1.00800000E+00  1.00800000E+00  1.60000000E+01  1.00800000E+00  1.00800000E+00
  1.60000000E+01  1.00800000E+00  1.00800000E+00  1.60000000E+01  1.00800000E+00
  1.00800000E+00  1.60000000E+01  1.00800000E+00  1.00800000E+00  1.60000000E+01
  1.00800000E+00  1.00800000E+00  1.60000000E+01  1.00800000E+00  1.00800000E+00
  1.60000000E+01  1.00800000E+00  1.00800000E+00  1.60000000E+01  1.00800000E+00
  1.00800000E+00  1.60000000E+01  1.00800000E+00  1.00800000E+00  1.60000000E+01
  1.00800000E+00  1.00800000E+00  1.60000000E+01  1.00800000E+00  1.00800000E+00
  1.60000000E+01  1.00800000E+00  1.00800000E+00  1.60000000E+01  1.00800000E+00
  1.00800000E+00  1.60000000E+01  1.00800000E+00  1.00800000E+00  1.60000000E+01
  1.00800000E+00  1.00800000E+00  1.60000000E+01  1.00800000E+00  1.00800000E+00
  1.60000000E+01  1.00800000E+00  1.00800000E+00  1.60000000E+01  1.00800000E+00
  1.00800000E+00  1.60000000E+01  1.00800000E+00  1.00800000E+00  1.60000000E+01
  1.00800000E+00  1.00800000E+00  1.60000000E+01  1.00800000E+00  1.00800000E+00
  1.60000000E+01  1.00800000E+00  1.00800000E+00  1.60000000E+01  1.00800000E+00
  1.00800000E+00  1.60000000E+01  1.00800000E+00  1.00800000E+00  1.60000000E+01
  1.00800000E+00  1.00800000E+00  1.60000000E+01  1.00800000E+00  1.00800000E+00
  1.60000000E+01  1.00800000E+00  1.00800000E+00  1.60000000E+01  1.00800000E+00
  1.00800000E+00  1.60000000E+01  1.00800000E+00  1.00800000E+00  1.60000000E+01
  1.00800000E+00  1.00800000E+00  1.60000000E+01  1.00800000E+00  1.00800000E+00
  1.60000000E+01  1.00800000E+00  1.00800000E+00  1.60000000E+01  1.00800000E+00
  1.00800000E+00  1.60000000E+01  1.00800000E+00  1.00800000E+00  1.60000000E+01
  1.00800000E+00  1.00800000E+00  1.60000000E+01  1.00800000E+00  1.00800000E+00
  1.60000000E+01  1.00800000E+00  1.00800000E+00  1.60000000E+01  1.00800000E+00
  1.00800000E+00  1.60000000E+01  1.00800000E+00  1.00800000E+00  1.60000000E+01
  1.00800000E+00  1.00800000E+00  1.60000000E+01  1.00800000E+00  1.00800000E+00
  1.60000000E+01  1.00800000E+00  1.00800000E+00  1.60000000E+01  1.00800000E+00
  1.00800000E+00  1.60000000E+01  1.00800000E+00  1.00800000E+00  1.60000000E+01
  1.00800000E+00  1.00800000E+00  1.60000000E+01  1.00800000E+00  1.00800000E+00
  1.60000000E+01  1.00800000E+00  1.00800000E+00  1.60000000E+01  1.00800000E+00
  1.00800000E+00  1.60000000E+01  1.00800000E+00  1.00800000E+00  1.60000000E+01
  1.00800000E+00  1.00800000E+00  1.60000000E+01  1.00800000E+00  1.00800000E+00
  1.60000000E+01  1.00800000E+00  1.00800000E+00  1.60000000E+01  1.00800000E+00
  1.00800000E+00  1.60000000E+01  1.00800000E+00  1.00800000E+00  1.60000000E+01
  1.00800000E+00  1.00800000E+00  1.60000000E+01  1.00800000E+00  1.00800000E+00
  1.60000000E+01  1.00800000E+00  1.00800000E+00  1.60000000E+01  1.00800000E+00
  1.00800000E+00  1.60000000E+01  1.00800000E+00  1.00800000E+00  1.60000000E+01
  1.00800000E+00  1.00800000E+00  1.60000000E+01  1.00800000E+00  1.00800000E+00
  1.60000000E+01  1.00800000E+00  1.00800000E+00  1.60000000E+01  1.00800000E+00
  1.00800000E+00  1.60000000E+01  1.00800000E+00  1.00800000E+00  1.60000000E+01
  1.00800000E+00  1.00800000E+00  1.60000000E+01  1.00800000E+00  1.00800000E+00
  1.60000000E+01  1.00800000E+00  1.00800000E+00  1.60000000E+01  1.00800000E+00
  1.00800000E+00  1.60000000E+01  1.00800000E+00  1.00800000E+00  1.60000000E+01
  1.00800000E+00  1.00800000E+00  1.60000000E+01  1.00800000E+00  1.00800000E+00
  1.60000000E+01  1.00800000E+00  1.00800000E+00  1.60000000E+01  1.00800000E+00
  1.00800000E+00  1.60000000E+01  1.00800000E+00  1.00800000E+00  1.60000000E+01
  1.00800000E+00  1.00800000E+00  1.60000000E+01  1.00800000E+00  1.00800000E+00
  1.60000000E+01  1.00800000E+00  1.00800000E+00  1.60000000E+01  1.00800000E+00
  1.00800000E+00  1.60000000E+01  1.00800000E+00  1.00800000E+00  1.60000000E+01
  1.00800000E+00  1.00800000E+00  1.60000000E+01  1.00800000E+00  1.00800000E+00
  1.60000000E+01  1.00800000E+00  1.00800000E+00  1.60000000E+01  1.00800000E+00
  1.00800000E+00  1.60000000E+01  1.00800000E+00  1.00800000E+00  1.60000000E+01
  1.00800000E+00  1.00800000E+00  1.60000000E+01  1.00800000E+00  1.00800000E+00
  1.60000000E+01  1.00800000E+00  1.00800000E+00  1.60000000E+01  1.00800000E+00
  1.00800000E+00  1.60000000E+01  1.00800000E+00  1.00800000E+00  1.60000000E+01
  1.00800000E+00  1.00800000E+00  1.60000000E+01  1.00800000E+00  1.00800000E+00
  1.60000000E+01  1.00800000E+00  1.00800000E+00  1.60000000E+01  1.00800000E+00
  1.00800000E+00  1.60000000E+01  1.00800000E+00  1.00800000E+00  1.60000000E+01
  1.00800000E+00  1.00800000E+00  1.60000000E+01  1.00800000E+00  1.00800000E+00
  1.60000000E+01  1.00800000E+00  1.00800000E+00  1.60000000E+01  1.00800000E+00
  1.00800000E+00  1.60000000E+01  1.00800000E+00  1.00800000E+00  1.60000000E+01
  1.00800000E+00  1.00800000E+00  1.60000000E+01  1.00800000E+00  1.00800000E+00
  1.60000000E+01  1.00800000E+00  1.00800000E+00  1.60000000E+01  1.00800000E+00
  1.00800000E+00  1.60000000E+01  1.00800000E+00  1.00800000E+00  1.60000000E+01
  1.00800000E+00  1.00800000E+00  1.60000000E+01  1.00800000E+00  1.00800000E+00
  1.60000000E+01  1.00800000E+00  1.00800000E+00  1.60000000E+01  1.00800000E+00
  1.00800000E+00  1.60000000E+01  1.00800000E+00  1.00800000E+00  1.60000000E+01
  1.00800000E+00  1.00800000E+00  1.60000000E+01  1.00800000E+00  1.00800000E+00
  1.60000000E+01  1.00800000E+00  1.00800000E+00  1.60000000E+01  1.00800000E+00
  1.00800000E+00  1.60000000E+01  1.00800000E+00  1.00800000E+00  1.60000000E+01
  1.00800000E+00  1.00800000E+00  1.60000000E+01  1.00800000E+00  1.00800000E+00
  1.60000000E+01  1.00800000E+00  1.00800000E+00  1.60000000E+01  1.00800000E+00
  1.00800000E+00  1.60000000E+01  1.00800000E+00  1.00800000E+00  1.60000000E+01
  1.00800000E+00  1.00800000E+00  1.60000000E+01  1.00800000E+00  1.00800000E+00
  1.60000000E+01  1.00800000E+00  1.00800000E+00  1.60000000E+01  1.00800000E+00
  1.00800000E+00  1.60000000E+01  1.00800000E+00  1.00800000E+00  1.60000000E+01
  1.00800000E+00  1.00800000E+00  1.60000000E+01  1.00800000E+00  1.00800000E+00
  1.60000000E+01  1.00800000E+00  1.00800000E+00  1.60000000E+01  1.00800000E+00
  1.00800000E+00  1.60000000E+01  1.00800000E+00  1.00800000E+00  1.60000000E+01
  1.00800000E+00  1.00800000E+00  1.60000000E+01  1.00800000E+00  1.00800000E+00
  1.60000000E+01  1.00800000E+00  1.00800000E+00  1.60000000E+01  1.00800000E+00
  1.00800000E+00  1.60000000E+01  1.00800000E+00  1.00800000E+00  1.60000000E+01
  1.00800000E+00  1.00800000E+00  1.60000000E+01  1.00800000E+00  1.00800000E+00
  1.60000000E+01  1.00800000E+00  1.00800000E+00  1.60000000E+01  1.00800000E+00
  1.00800000E+00  1.60000000E+01  1.00800000E+00  1.00800000E+00  1.60000000E+01
  1.00800000E+00  1.00800000E+00  1.60000000E+01  1.00800000E+00  1.00800000E+00
  1.60000000E+01  1.00800000E+00  1.00800000E+00  1.60000000E+01  1.00800000E+00
  1.00800000E+00  1.60000000E+01  1.00800000E+00  1.00800000E+00  1.60000000E+01
  1.00800000E+00  1.00800000E+00  1.60000000E+01  1.00800000E+00  1.00800000E+00
  1.60000000E+01  1.00800000E+00  1.00800000E+00  1.60000000E+01  1.00800000E+00
  1.00800000E+00  1.60000000E+01  1.00800000E+00  1.00800000E+00  1.60000000E+01
  1.00800000E+00  1.00800000E+00  1.60000000E+01  1.00800000E+00  1.00800000E+00
  1.60000000E+01  1.00800000E+00  1.00800000E+00  1.60000000E+01  1.00800000E+00
  1.00800000E+00  1.60000000E+01  1.00800000E+00  1.00800000E+00  1.60000000E+01
  1.00800000E+00  1.00800000E+00  1.60000000E+01  1.00800000E+00  1.00800000E+00
  1.60000000E+01  1.00800000E+00  1.00800000E+00  1.60000000E+01  1.00800000E+00
  1.00800000E+00  1.60000000E+01  1.00800000E+00  1.00800000E+00  1.60000000E+01
  1.00800000E+00  1.00800000E+00  1.60000000E+01  1.00800000E+00  1.00800000E+00
  1.60000000E+01  1.00800000E+00  1.00800000E+00  1.60000000E+01  1.00800000E+00
  1.00800000E+00  1.60000000E+01  1.00800000E+00  1.00800000E+00  1.60000000E+01
  1.00800000E+00  1.00800000E+00  1.60000000E+01  1.00800000E+00  1.00800000E+00
  1.60000000E+01  1.00800000E+00  1.00800000E+00  1.60000000E+01  1.00800000E+00
  1.00800000E+00  1.60000000E+01  1.00800000E+00  1.00800000E+00  1.60000000E+01
  1.00800000E+00  1.00800000E+00  1.60000000E+01  1.00800000E+00  1.00800000E+00
  1.60000000E+01  1.00800000E+00  1.00800000E+00  1.60000000E+01  1.00800000E+00
  1.00800000E+00  1.60000000E+01  1.00800000E+00  1.00800000E+00  1.60000000E+01
  1.00800000E+00  1.00800000E+00  1.60000000E+01  1.00800000E+00  1.00800000E+00
  1.60000000E+01  1.00800000E+00  1.00800000E+00  1.60000000E+01  1.00800000E+00
  1.00800000E+00  1.60000000E+01  1.00800000E+00  1.00800000E+00  1.60000000E+01
  1.00800000E+00  1.00800000E+00  1.60000000E+01  1.00800000E+00  1.00800000E+00
  1.60000000E+01  1.00800000E+00  1.00800000E+00  1.60000000E+01  1.00800000E+00
  1.00800000E+00  1.60000000E+01  1.00800000E+00  1.00800000E+00  1.60000000E+01
  1.00800000E+00  1.00800000E+00  1.60000000E+01  1.00800000E+00  1.00800000E+00
  1.60000000E+01  1.00800000E+00  1.00800000E+00  1.60000000E+01  1.00800000E+00
  1.00800000E+00  1.60000000E+01  1.00800000E+00  1.00800000E+00  1.60000000E+01
  1.00800000E+00  1.00800000E+00  1.60000000E+01  1.00800000E+00  1.00800000E+00
  1.60000000E+01  1.00800000E+00  1.00800000E+00  1.60000000E+01  1.00800000E+00
  1.00800000E+00  1.60000000E+01  1.00800000E+00  1.00800000E+00  1.60000000E+01
  1.00800000E+00  1.00800000E+00  1.60000000E+01  1.00800000E+00  1.00800000E+00
  1.60000000E+01  1.00800000E+00  1.00800000E+00  1.60000000E+01  1.00800000E+00
  1.00800000E+00  1.60000000E+01  1.00800000E+00  1.00800000E+00  1.60000000E+01
  1.00800000E+00  1.00800000E+00  1.60000000E+01  1.00800000E+00  1.00800000E+00
  1.60000000E+01  1.00800000E+00  1.00800000E+00  1.60000000E+01  1.00800000E+00
  1.00800000E+00  1.60000000E+01  1.00800000E+00  1.00800000E+00  1.60000000E+01
  1.00800000E+00  1.00800000E+00  1.60000000E+01  1.00800000E+00  1.00800000E+00
  1.60000000E+01  1.00800000E+00  1.00800000E+00  1.60000000E+01  1.00800000E+00
  1.00800000E+00  1.60000000E+01  1.00800000E+00  1.00800000E+00  1.60000000E+01
  1.00800000E+00  1.00800000E+00  1.60000000E+01  1.00800000E+00  1.00800000E+00
  1.60000000E+01  1.00800000E+00  1.00800000E+00  1.60000000E+01  1.00800000E+00
  1.00800000E+00  1.60000000E+01  1.00800000E+00  1.00800000E+00  1.60000000E+01
  1.00800000E+00  1.00800000E+00  1.60000000E+01  1.00800000E+00  1.00800000E+00
  1.60000000E+01  1.00800000E+00  1.00800000E+00  1.60000000E+01  1.00800000E+00
  1.00800000E+00  1.60000000E+01  1.00800000E+00  1.00800000E+00  1.60000000E+01
  1.00800000E+00  1.00800000E+00  1.60000000E+01  1.00800000E+00  1.00800000E+00
  1.60000000E+01  1.00800000E+00  1.00800000E+00  1.60000000E+01  1.00800000E+00
  1.00800000E+00  1.60000000E+01  1.00800000E+00  1.00800000E+00  1.60000000E+01
  1.00800000E+00  1.00800000E+00  1.60000000E+01  1.00800000E+00  1.00800000E+00
  1.60000000E+01  1.00800000E+00  1.00800000E+00  1.60000000E+01  1.00800000E+00
  1.00800000E+00  1.60000000E+01  1.00800000E+00  1.00800000E+00  1.60000000E+01
  1.00800000E+00  1.00800000E+00  1.60000000E+01  1.00800000E+00  1.00800000E+00
  1.60000000E+01  1.00800000E+00  1.00800000E+00  1.60000000E+01  1.00800000E+00
  1.00800000E+00  1.60000000E+01  1.00800000E+00  1.00800000E+00  1.60000000E+01
  1.00800000E+00  1.00800000E+00  1.60000000E+01  1.00800000E+00  1.00800000E+00
  1.60000000E+01  1.00800000E+00  1.00800000E+00  1.60000000E+01  1.00800000E+00
  1.00800000E+00  1.60000000E+01  1.00800000E+00  1.00800000E+00  1.60000000E+01
  1.00800000E+00  1.00800000E+00  1.60000000E+01  1.00800000E+00  1.00800000E+00
  1.60000000E+01  1.00800000E+00  1.00800000E+00  1.60000000E+01  1.00800000E+00
  1.00800000E+00  1.60000000E+01  1.00800000E+00  1.00800000E+00  1.60000000E+01
  1.00800000E+00  1.00800000E+00  1.60000000E+01  1.00800000E+00  1.00800000E+00
  1.60000000E+01  1.00800000E+00  1.00800000E+00  1.60000000E+01  1.00800000E+00
  1.00800000E+00  1.60000000E+01  1.00800000E+00  1.00800000E+00  1.60000000E+01
  1.00800000E+00  1.00800000E+00  1.60000000E+01  1.00800000E+00  1.00800000E+00
  1.60000000E+01  1.00800000E+00  1.00800000E+00  1.60000000E+01  1.00800000E+00
  1.00800000E+00  1.60000000E+01  1.00800000E+00  1.00800000E+00  1.60000000E+01
  1.00800000E+00  1.00800000E+00  1.60000000E+01  1.00800000E+00  1.00800000E+00
  1.60000000E+01  1.00800000E+00  1.00800000E+00  1.60000000E+01  1.00800000E+00
  1.00800000E+00  1.60000000E+01  1.00800000E+00  1.00800000E+00  1.60000000E+01
  1.00800000E+00  1.00800000E+00  1.60000000E+01  1.00800000E+00  1.00800000E+00
  1.60000000E+01  1.00800000E+00  1.00800000E+00  1.60000000E+01  1.00800000E+00
  1.00800000E+00  1.60000000E+01  1.00800000E+00  1.00800000E+00  1.60000000E+01
  1.00800000E+00  1.00800000E+00  1.60000000E+01  1.00800000E+00  1.00800000E+00
  1.60000000E+01  1.00800000E+00  1.00800000E+00  1.60000000E+01  1.00800000E+00
  1.00800000E+00  1.60000000E+01  1.00800000E+00  1.00800000E+00  1.60000000E+01
  1.00800000E+00  1.00800000E+00  1.60000000E+01  1.00800000E+00  1.00800000E+00
  1.60000000E+01  1.00800000E+00  1.00800000E+00  1.60000000E+01  1.00800000E+00
  1.00800000E+00  1.60000000E+01  1.00800000E+00  1.00800000E+00  1.60000000E+01
  1.00800000E+00  1.00800000E+00  1.60000000E+01  1.00800000E+00  1.00800000E+00
  1.60000000E+01  1.00800000E+00  1.00800000E+00  1.60000000E+01  1.00800000E+00
  1.00800000E+00  1.60000000E+01  1.00800000E+00  1.00800000E+00  1.60000000E+01
  1.00800000E+00  1.00800000E+00  1.60000000E+01  1.00800000E+00  1.00800000E+00
  1.60000000E+01  1.00800000E+00  1.00800000E+00  1.60000000E+01  1.00800000E+00
  1.00800000E+00  1.60000000E+01  1.00800000E+00  1.00800000E+00  1.60000000E+01
  1.00800000E+00  1.00800000E+00  1.60000000E+01  1.00800000E+00  1.00800000E+00
  1.60000000E+01  1.00800000E+00  1.00800000E+00  1.60000000E+01  1.00800000E+00
  1.00800000E+00  1.60000000E+01  1.00800000E+00  1.00800000E+00  1.60000000E+01
  1.00800000E+00  1.00800000E+00  1.60000000E+01  1.00800000E+00  1.00800000E+00
  1.60000000E+01  1.00800000E+00  1.00800000E+00  1.60000000E+01  1.00800000E+00
  1.00800000E+00  1.60000000E+01  1.00800000E+00  1.00800000E+00  1.60000000E+01
  1.00800000E+00  1.00800000E+00  1.60000000E+01  1.00800000E+00  1.00800000E+00
  1.60000000E+01  1.00800000E+00  1.00800000E+00  1.60000000E+01  1.00800000E+00
  1.00800000E+00  1.60000000E+01  1.00800000E+00  1.00800000E+00  1.60000000E+01
  1.00800000E+00  1.00800000E+00  1.60000000E+01  1.00800000E+00  1.00800000E+00
  1.60000000E+01  1.00800000E+00  1.00800000E+00  1.60000000E+01  1.00800000E+00
  1.00800000E+00  1.60000000E+01  1.00800000E+00  1.00800000E+00  1.60000000E+01
  1.00800000E+00  1.00800000E+00  1.60000000E+01  1.00800000E+00  1.00800000E+00
  1.60000000E+01  1.00800000E+00  1.00800000E+00  1.60000000E+01  1.00800000E+00
  1.00800000E+00  1.60000000E+01  1.00800000E+00  1.00800000E+00  1.60000000E+01
  1.00800000E+00  1.00800000E+00  1.60000000E+01  1.00800000E+00  1.00800000E+00
  1.60000000E+01  1.00800000E+00  1.00800000E+00  1.60000000E+01  1.00800000E+00
  1.00800000E+00  1.60000000E+01  1.00800000E+00  1.00800000E+00  1.60000000E+01
  1.00800000E+00  1.00800000E+00  1.60000000E+01  1.00800000E+00  1.00800000E+00
  1.60000000E+01  1.00800000E+00  1.00800000E+00  1.60000000E+01  1.00800000E+00
  1.00800000E+00  1.60000000E+01  1.00800000E+00  1.00800000E+00  1.60000000E+01
  1.00800000E+00  1.00800000E+00  1.60000000E+01  1.00800000E+00  1.00800000E+00
  1.60000000E+01  1.00800000E+00  1.00800000E+00  1.60000000E+01  1.00800000E+00
  1.00800000E+00  1.60000000E+01  1.00800000E+00  1.00800000E+00  1.60000000E+01
  1.00800000E+00  1.00800000E+00  1.60000000E+01  1.00800000E+00  1.00800000E+00
  1.60000000E+01  1.00800000E+00  1.00800000E+00  1.60000000E+01  1.00800000E+00
  1.00800000E+00  1.60000000E+01  1.00800000E+00  1.00800000E+00  1.60000000E+01
  1.00800000E+00  1.00800000E+00  1.60000000E+01  1.00800000E+00  1.00800000E+00
  1.60000000E+01  1.00800000E+00  1.00800000E+00  1.60000000E+01  1.00800000E+00
  1.00800000E+00  1.60000000E+01  1.00800000E+00  1.00800000E+00  1.60000000E+01
  1.00800000E+00  1.00800000E+00  1.60000000E+01  1.00800000E+00  1.00800000E+00
  1.60000000E+01  1.00800000E+00  1.00800000E+00  1.60000000E+01  1.00800000E+00
  1.00800000E+00  1.60000000E+01  1.00800000E+00  1.00800000E+00  1.60000000E+01
  1.00800000E+00  1.00800000E+00  1.60000000E+01  1.00800000E+00  1.00800000E+00
  1.60000000E+01  1.00800000E+00  1.00800000E+00  1.60000000E+01  1.00800000E+00
  1.00800000E+00  1.60000000E+01  1.00800000E+00  1.00800000E+00  1.60000000E+01
  1.00800000E+00  1.00800000E+00  1.60000000E+01  1.00800000E+00  1.00800000E+00
  1.60000000E+01  1.00800000E+00  1.00800000E+00  1.60000000E+01  1.00800000E+00
  1.00800000E+00  1.60000000E+01  1.00800000E+00  1.00800000E+00  1.60000000E+01
  1.00800000E+00  1.00800000E+00  1.60000000E+01  1.00800000E+00  1.00800000E+00
  1.60000000E+01  1.00800000E+00  1.00800000E+00  1.60000000E+01  1.00800000E+00
  1.00800000E+00  1.60000000E+01  1.00800000E+00  1.00800000E+00  1.60000000E+01
  1.00800000E+00  1.00800000E+00  1.60000000E+01  1.00800000E+00  1.00800000E+00
  1.60000000E+01  1.00800000E+00  1.00800000E+00  1.60000000E+01  1.00800000E+00
  1.00800000E+00  1.60000000E+01  1.00800000E+00  1.00800000E+00  1.60000000E+01
  1.00800000E+00  1.00800000E+00  1.60000000E+01  1.00800000E+00  1.00800000E+00
  1.60000000E+01  1.00800000E+00  1.00800000E+00  1.60000000E+01  1.00800000E+00
  1.00800000E+00  1.60000000E+01  1.00800000E+00  1.00800000E+00  1.60000000E+01
  1.00800000E+00  1.00800000E+00  1.60000000E+01  1.00800000E+00  1.00800000E+00
  1.60000000E+01  1.00800000E+00  1.00800000E+00  1.60000000E+01  1.00800000E+00
  1.00800000E+00  1.60000000E+01  1.00800000E+00  1.00800000E+00  1.60000000E+01
  1.00800000E+00  1.00800000E+00  1.60000000E+01  1.00800000E+00  1.00800000E+00
  1.60000000E+01  1.00800000E+00  1.00800000E+00  1.60000000E+01  1.00800000E+00
  1.00800000E+00  1.60000000E+01  1.00800000E+00  1.00800000E+00  1.60000000E+01
  1.00800000E+00  1.00800000E+00  1.60000000E+01  1.00800000E+00  1.00800000E+00
  1.60000000E+01  1.00800000E+00  1.00800000E+00  1.60000000E+01  1.00800000E+00
  1.00800000E+00  1.60000000E+01  1.00800000E+00  1.00800000E+00  1.60000000E+01
  1.00800000E+00  1.00800000E+00  1.60000000E+01  1.00800000E+00  1.00800000E+00
  1.60000000E+01  1.00800000E+00  1.00800000E+00  1.60000000E+01  1.00800000E+00
  1.00800000E+00  1.60000000E+01  1.00800000E+00  1.00800000E+00  1.60000000E+01
  1.00800000E+00  1.00800000E+00  1.60000000E+01  1.00800000E+00  1.00800000E+00
  1.60000000E+01  1.00800000E+00  1.00800000E+00  1.60000000E+01  1.00800000E+00
  1.00800000E+00  1.60000000E+01  1.00800000E+00  1.00800000E+00  1.60000000E+01
  1.00800000E+00  1.00800000E+00  1.60000000E+01  1.00800000E+00  1.00800000E+00
  1.60000000E+01  1.00800000E+00  1.00800000E+00  1.60000000E+01  1.00800000E+00
  1.00800000E+00  1.60000000E+01  1.00800000E+00  1.00800000E+00  1.60000000E+01
  1.00800000E+00  1.00800000E+00  1.60000000E+01  1.00800000E+00  1.00800000E+00
  1.60000000E+01  1.00800000E+00  1.00800000E+00  1.60000000E+01  1.00800000E+00
  1.00800000E+00  1.60000000E+01  1.00800000E+00  1.00800000E+00  1.60000000E+01
  1.00800000E+00  1.00800000E+00  1.60000000E+01  1.00800000E+00  1.00800000E+00
  1.60000000E+01  1.00800000E+00  1.00800000E+00  1.60000000E+01  1.00800000E+00
  1.00800000E+00  1.60000000E+01  1.00800000E+00  1.00800000E+00  1.60000000E+01
  1.00800000E+00  1.00800000E+00  1.60000000E+01  1.00800000E+00  1.00800000E+00
  1.60000000E+01  1.00800000E+00  1.00800000E+00  1.60000000E+01  1.00800000E+00
  1.00800000E+00  1.60000000E+01  1.00800000E+00  1.00800000E+00  1.60000000E+01
  1.00800000E+00  1.00800000E+00  1.60000000E+01  1.00800000E+00  1.00800000E+00
  1.60000000E+01  1.00800000E+00  1.00800000E+00  1.60000000E+01  1.00800000E+00
  1.00800000E+00  1.60000000E+01  1.00800000E+00  1.00800000E+00  1.60000000E+01
  1.00800000E+00  1.00800000E+00  1.60000000E+01  1.00800000E+00  1.00800000E+00
  1.60000000E+01  1.00800000E+00  1.00800000E+00  1.60000000E+01  1.00800000E+00
  1.00800000E+00  1.60000000E+01  1.00800000E+00  1.00800000E+00  1.60000000E+01
  1.00800000E+00  1.00800000E+00  1.60000000E+01  1.00800000E+00  1.00800000E+00
  1.60000000E+01  1.00800000E+00  1.00800000E+00  1.60000000E+01  1.00800000E+00
  1.00800000E+00  1.60000000E+01  1.00800000E+00  1.00800000E+00  1.60000000E+01
  1.00800000E+00  1.00800000E+00  1.60000000E+01  1.00800000E+00  1.00800000E+00
  1.60000000E+01  1.00800000E+00  1.00800000E+00  1.60000000E+01  1.00800000E+00
  1.00800000E+00  1.60000000E+01  1.00800000E+00  1.00800000E+00  1.60000000E+01
  1.00800000E+00  1.00800000E+00  1.60000000E+01  1.00800000E+00  1.00800000E+00
  1.60000000E+01  1.00800000E+00  1.00800000E+00  1.60000000E+01  1.00800000E+00
  1.00800000E+00  1.60000000E+01  1.00800000E+00  1.00800000E+00  1.60000000E+01
  1.00800000E+00  1.00800000E+00  1.60000000E+01  1.00800000E+00  1.00800000E+00
  1.60000000E+01  1.00800000E+00  1.00800000E+00  1.60000000E+01  1.00800000E+00
  1.00800000E+00  1.60000000E+01  1.00800000E+00  1.00800000E+00  1.60000000E+01
  1.00800000E+00  1.00800000E+00  1.60000000E+01  1.00800000E+00  1.00800000E+00
  1.60000000E+01  1.00800000E+00  1.00800000E+00  1.60000000E+01  1.00800000E+00
  1.00800000E+00  1.60000000E+01  1.00800000E+00  1.00800000E+00  1.60000000E+01
  1.00800000E+00  1.00800000E+00  1.60000000E+01  1.00800000E+00  1.00800000E+00
  1.60000000E+01  1.00800000E+00  1.00800000E+00  1.60000000E+01  1.00800000E+00
  1.00800000E+00  1.60000000E+01  1.00800000E+00  1.00800000E+00  1.60000000E+01
  1.00800000E+00  1.00800000E+00  1.60000000E+01  1.00800000E+00  1.00800000E+00
  1.60000000E+01  1.00800000E+00  1.00800000E+00  1.60000000E+01  1.00800000E+00
  1.00800000E+00  1.60000000E+01  1.00800000E+00  1.00800000E+00  1.60000000E+01
  1.00800000E+00  1.00800000E+00  1.60000000E+01  1.00800000E+00  1.00800000E+00
  1.60000000E+01  1.00800000E+00  1.00800000E+00  1.60000000E+01  1.00800000E+00
  1.00800000E+00  1.60000000E+01  1.00800000E+00  1.00800000E+00  1.60000000E+01
  1.00800000E+00  1.00800000E+00  1.60000000E+01  1.00800000E+00  1.00800000E+00
  1.60000000E+01  1.00800000E+00  1.00800000E+00  1.60000000E+01  1.00800000E+00
  1.00800000E+00  1.60000000E+01  1.00800000E+00  1.00800000E+00  1.60000000E+01
  1.00800000E+00  1.00800000E+00  1.60000000E+01  1.00800000E+00  1.00800000E+00
  1.60000000E+01  1.00800000E+00  1.00800000E+00  1.60000000E+01  1.00800000E+00
  1.00800000E+00  1.60000000E+01  1.00800000E+00  1.00800000E+00  1.60000000E+01
  1.00800000E+00  1.00800000E+00  1.60000000E+01  1.00800000E+00  1.00800000E+00
  1.60000000E+01  1.00800000E+00  1.00800000E+00  1.60000000E+01  1.00800000E+00
  1.00800000E+00  1.60000000E+01  1.00800000E+00  1.00800000E+00  1.60000000E+01
  1.00800000E+00  1.00800000E+00  1.60000000E+01  1.00800000E+00  1.00800000E+00
  1.60000000E+01  1.00800000E+00  1.00800000E+00  1.60000000E+01  1.00800000E+00
  1.00800000E+00  1.60000000E+01  1.00800000E+00  1.00800000E+00  1.60000000E+01
  1.00800000E+00  1.00800000E+00  1.60000000E+01  1.00800000E+00  1.00800000E+00
  1.60000000E+01  1.00800000E+00  1.00800000E+00  1.60000000E+01  1.00800000E+00
  1.00800000E+00  1.60000000E+01  1.00800000E+00  1.00800000E+00  1.60000000E+01
  1.00800000E+00  1.00800000E+00  1.60000000E+01  1.00800000E+00  1.00800000E+00
  1.60000000E+01  1.00800000E+00  1.00800000E+00  1.60000000E+01  1.00800000E+00
  1.00800000E+00  1.60000000E+01  1.00800000E+00  1.00800000E+00  1.60000000E+01
  1.00800000E+00  1.00800000E+00  1.60000000E+01  1.00800000E+00  1.00800000E+00
  1.60000000E+01  1.00800000E+00  1.00800000E+00  1.60000000E+01  1.00800000E+00
  1.00800000E+00  1.60000000E+01  1.00800000E+00  1.00800000E+00  1.60000000E+01
  1.00800000E+00  1.00800000E+00  1.60000000E+01  1.00800000E+00  1.00800000E+00
  1.60000000E+01  1.00800000E+00  1.00800000E+00  1.60000000E+01  1.00800000E+00
  1.00800000E+00  1.60000000E+01  1.00800000E+00  1.00800000E+00  1.60000000E+01
  1.00800000E+00  1.00800000E+00  1.60000000E+01  1.00800000E+00  1.00800000E+00
  1.60000000E+01  1.00800000E+00  1.00800000E+00  1.60000000E+01  1.00800000E+00
  1.00800000E+00  1.60000000E+01  1.00800000E+00  1.00800000E+00  1.60000000E+01
  1.00800000E+00  1.00800000E+00  1.60000000E+01  1.00800000E+00  1.00800000E+00
  1.60000000E+01  1.00800000E+00  1.00800000E+00  1.60000000E+01  1.00800000E+00
  1.00800000E+00  1.60000000E+01  1.00800000E+00  1.00800000E+00  1.60000000E+01
  1.00800000E+00  1.00800000E+00  1.60000000E+01  1.00800000E+00  1.00800000E+00
  1.60000000E+01  1.00800000E+00  1.00800000E+00  1.60000000E+01  1.00800000E+00
  1.00800000E+00  1.60000000E+01  1.00800000E+00  1.00800000E+00  1.60000000E+01
  1.00800000E+00  1.00800000E+00  1.60000000E+01  1.00800000E+00  1.00800000E+00
  1.60000000E+01  1.00800000E+00  1.00800000E+00  1.60000000E+01  1.00800000E+00
  1.00800000E+00  1.60000000E+01  1.00800000E+00  1.00800000E+00  1.60000000E+01
  1.00800000E+00  1.00800000E+00  1.60000000E+01  1.00800000E+00  1.00800000E+00
  1.60000000E+01  1.00800000E+00  1.00800000E+00  1.60000000E+01  1.00800000E+00
  1.00800000E+00  1.60000000E+01  1.00800000E+00  1.00800000E+00  1.60000000E+01
  1.00800000E+00  1.00800000E+00  1.60000000E+01  1.00800000E+00  1.00800000E+00
  1.60000000E+01  1.00800000E+00  1.00800000E+00  1.60000000E+01  1.00800000E+00
  1.00800000E+00  1.60000000E+01  1.00800000E+00  1.00800000E+00  1.60000000E+01
  1.00800000E+00  1.00800000E+00  1.60000000E+01  1.00800000E+00  1.00800000E+00
  1.60000000E+01  1.00800000E+00  1.00800000E+00  1.60000000E+01  1.00800000E+00
  1.00800000E+00  1.60000000E+01  1.00800000E+00  1.00800000E+00  1.60000000E+01
  1.00800000E+00  1.00800000E+00  1.60000000E+01  1.00800000E+00  1.00800000E+00
  1.60000000E+01  1.00800000E+00  1.00800000E+00  1.60000000E+01  1.00800000E+00
  1.00800000E+00  1.60000000E+01  1.00800000E+00  1.00800000E+00  1.60000000E+01
  1.00800000E+00  1.00800000E+00  1.60000000E+01  1.00800000E+00  1.00800000E+00
  1.60000000E+01  1.00800000E+00  1.00800000E+00  1.60000000E+01  1.00800000E+00
  1.00800000E+00  1.60000000E+01  1.00800000E+00  1.00800000E+00  1.60000000E+01
  1.00800000E+00  1.00800000E+00  1.60000000E+01  1.00800000E+00  1.00800000E+00
  1.60000000E+01  1.00800000E+00  1.00800000E+00  1.60000000E+01  1.00800000E+00
  1.00800000E+00  1.60000000E+01  1.00800000E+00  1.00800000E+00  1.60000000E+01
  1.00800000E+00  1.00800000E+00  1.60000000E+01  1.00800000E+00  1.00800000E+00
  1.60000000E+01  1.00800000E+00  1.00800000E+00  1.60000000E+01  1.00800000E+00
  1.00800000E+00  1.60000000E+01  1.00800000E+00  1.00800000E+00  1.60000000E+01
  1.00800000E+00  1.00800000E+00  1.60000000E+01  1.00800000E+00  1.00800000E+00
  1.60000000E+01  1.00800000E+00  1.00800000E+00  1.60000000E+01  1.00800000E+00
  1.00800000E+00  1.60000000E+01  1.00800000E+00  1.00800000E+00  1.60000000E+01
  1.00800000E+00  1.00800000E+00  1.60000000E+01  1.00800000E+00  1.00800000E+00
  1.60000000E+01  1.00800000E+00  1.00800000E+00  1.60000000E+01  1.00800000E+00
  1.00800000E+00  1.60000000E+01  1.00800000E+00  1.00800000E+00  1.60000000E+01
  1.00800000E+00  1.00800000E+00  1.60000000E+01  1.00800000E+00  1.00800000E+00
  1.60000000E+01  1.00800000E+00  1.00800000E+00  1.60000000E+01  1.00800000E+00
  1.00800000E+00  1.60000000E+01  1.00800000E+00  1.00800000E+00  1.60000000E+01
  1.00800000E+00  1.00800000E+00  1.60000000E+01  1.00800000E+00  1.00800000E+00
  1.60000000E+01  1.00800000E+00  1.00800000E+00  1.60000000E+01  1.00800000E+00
  1.00800000E+00  1.60000000E+01  1.00800000E+00  1.00800000E+00  1.60000000E+01
  1.00800000E+00  1.00800000E+00  1.60000000E+01  1.00800000E+00  1.00800000E+00
  1.60000000E+01  1.00800000E+00  1.00800000E+00  1.60000000E+01  1.00800000E+00
  1.00800000E+00  1.60000000E+01  1.00800000E+00  1.00800000E+00  1.60000000E+01
  1.00800000E+00  1.00800000E+00  1.60000000E+01  1.00800000E+00  1.00800000E+00
  1.60000000E+01  1.00800000E+00  1.00800000E+00  1.60000000E+01  1.00800000E+00
  1.00800000E+00  1.60000000E+01  1.00800000E+00  1.00800000E+00  1.60000000E+01
  1.00800000E+00  1.00800000E+00  1.60000000E+01  1.00800000E+00  1.00800000E+00
  1.60000000E+01  1.00800000E+00  1.00800000E+00  1.60000000E+01  1.00800000E+00
  1.00800000E+00  1.60000000E+01  1.00800000E+00  1.00800000E+00  1.60000000E+01
  1.00800000E+00  1.00800000E+00  1.60000000E+01  1.00800000E+00  1.00800000E+00
  1.60000000E+01  1.00800000E+00  1.00800000E+00  1.60000000E+01  1.00800000E+00
  1.00800000E+00  1.60000000E+01  1.00800000E+00  1.00800000E+00  1.60000000E+01
  1.00800000E+00  1.00800000E+00  1.60000000E+01  1.00800000E+00  1.00800000E+00
  1.60000000E+01  1.00800000E+00  1.00800000E+00  1.60000000E+01  1.00800000E+00
  1.00800000E+00  1.60000000E+01  1.00800000E+00  1.00800000E+00  1.60000000E+01
  1.00800000E+00  1.00800000E+00  1.60000000E+01  1.00800000E+00  1.00800000E+00
  1.60000000E+01  1.00800000E+00  1.00800000E+00  1.60000000E+01  1.00800000E+00
  1.00800000E+00  1.60000000E+01  1.00800000E+00  1.00800000E+00  1.60000000E+01
  1.00800000E+00  1.00800000E+00  1.60000000E+01  1.00800000E+00  1.00800000E+00
  1.60000000E+01  1.00800000E+00  1.00800000E+00  1.60000000E+01  1.00800000E+00
  1.00800000E+00  1.60000000E+01  1.00800000E+00  1.00800000E+00  1.60000000E+01
  1.00800000E+00  1.00800000E+00  1.60000000E+01  1.00800000E+00  1.00800000E+00
  1.60000000E+01  1.00800000E+00  1.00800000E+00  1.60000000E+01  1.00800000E+00
  1.00800000E+00  1.60000000E+01  1.00800000E+00  1.00800000E+00  1.60000000E+01
  1.00800000E+00  1.00800000E+00  1.60000000E+01  1.00800000E+00  1.00800000E+00
  1.60000000E+01  1.00800000E+00  1.00800000E+00  1.60000000E+01  1.00800000E+00
  1.00800000E+00  1.60000000E+01  1.00800000E+00  1.00800000E+00  1.60000000E+01
  1.00800000E+00  1.00800000E+00  1.60000000E+01  1.00800000E+00  1.00800000E+00
  1.60000000E+01  1.00800000E+00  1.00800000E+00  1.60000000E+01  1.00800000E+00
  1.00800000E+00  1.60000000E+01  1.00800000E+00  1.00800000E+00  1.60000000E+01
  1.00800000E+00  1.00800000E+00  1.60000000E+01  1.00800000E+00  1.00800000E+00
  1.60000000E+01  1.00800000E+00  1.00800000E+00  1.60000000E+01  1.00800000E+00
  1.00800000E+00  1.60000000E+01  1.00800000E+00  1.00800000E+00  1.60000000E+01
  1.00800000E+00  1.00800000E+00  1.60000000E+01  1.00800000E+00  1.00800000E+00
  1.60000000E+01  1.00800000E+00  1.00800000E+00  1.60000000E+01  1.00800000E+00
  1.00800000E+00  1.60000000E+01  1.00800000E+00  1.00800000E+00  1.60000000E+01
  1.00800000E+00  1.00800000E+00  1.60000000E+01  1.00800000E+00  1.00800000E+00
  1.60000000E+01  1.00800000E+00  1.00800000E+00  1.60000000E+01  1.00800000E+00
  1.00800000E+00  1.60000000E+01  1.00800000E+00  1.00800000E+00  1.60000000E+01
  1.00800000E+00  1.00800000E+00  1.60000000E+01  1.00800000E+00  1.00800000E+00
  1.60000000E+01  1.00800000E+00  1.00800000E+00  1.60000000E+01  1.00800000E+00
  1.00800000E+00  1.60000000E+01  1.00800000E+00  1.00800000E+00  1.60000000E+01
  1.00800000E+00  1.00800000E+00  1.60000000E+01  1.00800000E+00  1.00800000E+00
  1.60000000E+01  1.00800000E+00  1.00800000E+00  1.60000000E+01  1.00800000E+00
  1.00800000E+00  1.60000000E+01  1.00800000E+00  1.00800000E+00  1.60000000E+01
  1.00800000E+00  1.00800000E+00  1.60000000E+01  1.00800000E+00  1.00800000E+00
  1.60000000E+01  1.00800000E+00  1.00800000E+00  1.60000000E+01  1.00800000E+00
  1.00800000E+00  1.60000000E+01  1.00800000E+00  1.00800000E+00  1.60000000E+01
  1.00800000E+00  1.00800000E+00  1.60000000E+01  1.00800000E+00  1.00800000E+00
  1.60000000E+01  1.00800000E+00  1.00800000E+00  1.60000000E+01  1.00800000E+00
  1.00800000E+00  1.60000000E+01  1.00800000E+00  1.00800000E+00  1.60000000E+01
  1.00800000E+00  1.00800000E+00  1.60000000E+01  1.00800000E+00  1.00800000E+00
  1.60000000E+01  1.00800000E+00  1.00800000E+00  1.60000000E+01  1.00800000E+00
  1.00800000E+00  1.60000000E+01  1.00800000E+00  1.00800000E+00  1.60000000E+01
  1.00800000E+00  1.00800000E+00  1.60000000E+01  1.00800000E+00  1.00800000E+00
  1.60000000E+01  1.00800000E+00  1.00800000E+00  1.60000000E+01  1.00800000E+00
  1.00800000E+00  1.60000000E+01  1.00800000E+00  1.00800000E+00  1.60000000E+01
  1.00800000E+00  1.00800000E+00  1.60000000E+01  1.00800000E+00  1.00800000E+00
  1.60000000E+01  1.00800000E+00  1.00800000E+00  1.60000000E+01  1.00800000E+00
  1.00800000E+00  1.60000000E+01  1.00800000E+00  1.00800000E+00  1.60000000E+01
  1.00800000E+00  1.00800000E+00  1.60000000E+01  1.00800000E+00  1.00800000E+00
  1.60000000E+01  1.00800000E+00  1.00800000E+00  1.60000000E+01  1.00800000E+00
  1.00800000E+00  1.60000000E+01  1.00800000E+00  1.00800000E+00  1.60000000E+01
  1.00800000E+00  1.00800000E+00  1.60000000E+01  1.00800000E+00  1.00800000E+00
  1.60000000E+01  1.00800000E+00  1.00800000E+00  1.60000000E+01  1.00800000E+00
  1.00800000E+00  1.60000000E+01  1.00800000E+00  1.00800000E+00  1.60000000E+01
  1.00800000E+00  1.00800000E+00  1.60000000E+01  1.00800000E+00  1.00800000E+00
  1.60000000E+01  1.00800000E+00  1.00800000E+00  1.60000000E+01  1.00800000E+00
  1.00800000E+00  1.60000000E+01  1.00800000E+00  1.00800000E+00  1.60000000E+01
  1.00800000E+00  1.00800000E+00  1.60000000E+01  1.00800000E+00  1.00800000E+00
  1.60000000E+01  1.00800000E+00  1.00800000E+00  1.60000000E+01  1.00800000E+00
  1.00800000E+00  1.60000000E+01  1.00800000E+00  1.00800000E+00  1.60000000E+01
  1.00800000E+00  1.00800000E+00  1.60000000E+01  1.00800000E+00  1.00800000E+00
  1.60000000E+01  1.00800000E+00  1.00800000E+00  1.60000000E+01  1.00800000E+00
  1.00800000E+00  1.60000000E+01  1.00800000E+00  1.00800000E+00  1.60000000E+01
  1.00800000E+00  1.00800000E+00  1.60000000E+01  1.00800000E+00  1.00800000E+00
  1.60000000E+01  1.00800000E+00  1.00800000E+00  1.60000000E+01  1.00800000E+00
  1.00800000E+00  1.60000000E+01  1.00800000E+00  1.00800000E+00  1.60000000E+01
  1.00800000E+00  1.00800000E+00  1.60000000E+01  1.00800000E+00  1.00800000E+00
  1.60000000E+01  1.00800000E+00  1.00800000E+00  1.60000000E+01  1.00800000E+00
  1.00800000E+00  1.60000000E+01  1.00800000E+00  1.00800000E+00  1.60000000E+01
  1.00800000E+00  1.00800000E+00  1.60000000E+01  1.00800000E+00  1.00800000E+00
  1.60000000E+01  1.00800000E+00  1.00800000E+00  1.60000000E+01  1.00800000E+00
  1.00800000E+00  1.60000000E+01  1.00800000E+00  1.00800000E+00  1.60000000E+01
  1.00800000E+00  1.00800000E+00  1.60000000E+01  1.00800000E+00  1.00800000E+00
  1.60000000E+01  1.00800000E+00  1.00800000E+00  1.60000000E+01  1.00800000E+00
  1.00800000E+00  1.60000000E+01  1.00800000E+00  1.00800000E+00  1.60000000E+01
  1.00800000E+00  1.00800000E+00  1.60000000E+01  1.00800000E+00  1.00800000E+00
  1.60000000E+01  1.00800000E+00  1.00800000E+00  1.60000000E+01  1.00800000E+00
  1.00800000E+00  1.60000000E+01  1.00800000E+00  1.00800000E+00  1.60000000E+01
  1.00800000E+00  1.00800000E+00  1.60000000E+01  1.00800000E+00  1.00800000E+00
  1.60000000E+01  1.00800000E+00  1.00800000E+00  1.60000000E+01  1.00800000E+00
  1.00800000E+00  1.60000000E+01  1.00800000E+00  1.00800000E+00  1.60000000E+01
  1.00800000E+00  1.00800000E+00  1.60000000E+01  1.00800000E+00  1.00800000E+00
  1.60000000E+01  1.00800000E+00  1.00800000E+00  1.60000000E+01  1.00800000E+00
  1.00800000E+00  1.60000000E+01  1.00800000E+00  1.00800000E+00  1.60000000E+01
  1.00800000E+00  1.00800000E+00  1.60000000E+01  1.00800000E+00  1.00800000E+00
  1.60000000E+01  1.00800000E+00  1.00800000E+00  1.60000000E+01  1.00800000E+00
  1.00800000E+00  1.60000000E+01  1.00800000E+00  1.00800000E+00  1.60000000E+01
  1.00800000E+00  1.00800000E+00  1.60000000E+01  1.00800000E+00  1.00800000E+00
  1.60000000E+01  1.00800000E+00  1.00800000E+00  1.60000000E+01  1.00800000E+00
  1.00800000E+00  1.60000000E+01  1.00800000E+00  1.00800000E+00  1.60000000E+01
  1.00800000E+00  1.00800000E+00  1.60000000E+01  1.00800000E+00  1.00800000E+00
  1.60000000E+01  1.00800000E+00  1.00800000E+00  1.60000000E+01  1.00800000E+00
  1.00800000E+00  1.60000000E+01  1.00800000E+00  1.00800000E+00  1.60000000E+01
  1.00800000E+00  1.00800000E+00  1.60000000E+01  1.00800000E+00  1.00800000E+00
  1.60000000E+01  1.00800000E+00  1.00800000E+00  1.60000000E+01  1.00800000E+00
  1.00800000E+00  1.60000000E+01  1.00800000E+00  1.00800000E+00  1.60000000E+01
  1.00800000E+00  1.00800000E+00  1.60000000E+01  1.00800000E+00  1.00800000E+00
  1.60000000E+01  1.00800000E+00  1.00800000E+00  1.60000000E+01  1.00800000E+00
  1.00800000E+00  1.60000000E+01  1.00800000E+00  1.00800000E+00  1.60000000E+01
  1.00800000E+00  1.00800000E+00  1.60000000E+01  1.00800000E+00  1.00800000E+00
  1.60000000E+01  1.00800000E+00  1.00800000E+00  1.60000000E+01  1.00800000E+00
  1.00800000E+00  1.60000000E+01  1.00800000E+00  1.00800000E+00  1.60000000E+01
  1.00800000E+00  1.00800000E+00  1.60000000E+01  1.00800000E+00  1.00800000E+00
  1.60000000E+01  1.00800000E+00  1.00800000E+00  1.60000000E+01  1.00800000E+00
  1.00800000E+00  1.60000000E+01  1.00800000E+00  1.00800000E+00  1.60000000E+01
  1.00800000E+00  1.00800000E+00  1.60000000E+01  1.00800000E+00  1.00800000E+00
  1.60000000E+01  1.00800000E+00  1.00800000E+00  1.60000000E+01  1.00800000E+00
  1.00800000E+00  1.60000000E+01  1.00800000E+00  1.00800000E+00  1.60000000E+01
  1.00800000E+00  1.00800000E+00  1.60000000E+01  1.00800000E+00  1.00800000E+00
  1.60000000E+01  1.00800000E+00  1.00800000E+00  1.60000000E+01  1.00800000E+00
  1.00800000E+00  1.60000000E+01  1.00800000E+00  1.00800000E+00  1.60000000E+01
  1.00800000E+00  1.00800000E+00  1.60000000E+01  1.00800000E+00  1.00800000E+00
  1.60000000E+01  1.00800000E+00  1.00800000E+00  1.60000000E+01  1.00800000E+00
  1.00800000E+00  1.60000000E+01  1.00800000E+00  1.00800000E+00  1.60000000E+01
  1.00800000E+00  1.00800000E+00  1.60000000E+01  1.00800000E+00  1.00800000E+00
  1.60000000E+01  1.00800000E+00  1.00800000E+00  1.60000000E+01  1.00800000E+00
  1.00800000E+00  1.60000000E+01  1.00800000E+00  1.00800000E+00  1.60000000E+01
  1.00800000E+00  1.00800000E+00  1.60000000E+01  1.00800000E+00  1.00800000E+00
  1.60000000E+01  1.00800000E+00  1.00800000E+00  1.60000000E+01  1.00800000E+00
  1.00800000E+00  1.60000000E+01  1.00800000E+00  1.00800000E+00  1.60000000E+01
  1.00800000E+00  1.00800000E+00  1.60000000E+01  1.00800000E+00  1.00800000E+00
  1.60000000E+01  1.00800000E+00  1.00800000E+00  1.60000000E+01  1.00800000E+00
  1.00800000E+00  1.60000000E+01  1.00800000E+00  1.00800000E+00  1.60000000E+01
  1.00800000E+00  1.00800000E+00  1.60000000E+01  1.00800000E+00  1.00800000E+00
  1.60000000E+01  1.00800000E+00  1.00800000E+00  1.60000000E+01  1.00800000E+00
  1.00800000E+00  1.60000000E+01  1.00800000E+00  1.00800000E+00  1.60000000E+01
  1.00800000E+00  1.00800000E+00  1.60000000E+01  1.00800000E+00  1.00800000E+00
  1.60000000E+01  1.00800000E+00  1.00800000E+00  1.60000000E+01  1.00800000E+00
  1.00800000E+00  1.60000000E+01  1.00800000E+00  1.00800000E+00  1.60000000E+01
  1.00800000E+00  1.00800000E+00  1.60000000E+01  1.00800000E+00  1.00800000E+00
  1.60000000E+01  1.00800000E+00  1.00800000E+00  1.60000000E+01  1.00800000E+00
  1.00800000E+00  1.60000000E+01  1.00800000E+00  1.00800000E+00  1.60000000E+01
  1.00800000E+00  1.00800000E+00  1.60000000E+01  1.00800000E+00  1.00800000E+00
  1.60000000E+01  1.00800000E+00  1.00800000E+00  1.60000000E+01  1.00800000E+00
  1.00800000E+00  1.60000000E+01  1.00800000E+00  1.00800000E+00  1.60000000E+01
  1.00800000E+00  1.00800000E+00  1.60000000E+01  1.00800000E+00  1.00800000E+00
  1.60000000E+01  1.00800000E+00  1.00800000E+00  1.60000000E+01  1.00800000E+00
  1.00800000E+00  1.60000000E+01  1.00800000E+00  1.00800000E+00  1.60000000E+01
  1.00800000E+00  1.00800000E+00  1.60000000E+01  1.00800000E+00  1.00800000E+00
  1.60000000E+01  1.00800000E+00  1.00800000E+00  1.60000000E+01  1.00800000E+00
  1.00800000E+00  1.60000000E+01  1.00800000E+00  1.00800000E+00  1.60000000E+01
  1.00800000E+00  1.00800000E+00  1.60000000E+01  1.00800000E+00  1.00800000E+00
  1.60000000E+01  1.00800000E+00  1.00800000E+00  1.60000000E+01  1.00800000E+00
  1.00800000E+00  1.60000000E+01  1.00800000E+00  1.00800000E+00  1.60000000E+01
  1.00800000E+00  1.00800000E+00  1.60000000E+01  1.00800000E+00  1.00800000E+00
  1.60000000E+01  1.00800000E+00  1.00800000E+00  1.60000000E+01  1.00800000E+00
  1.00800000E+00  1.60000000E+01  1.00800000E+00  1.00800000E+00  1.60000000E+01
  1.00800000E+00  1.00800000E+00  1.60000000E+01  1.00800000E+00  1.00800000E+00
  1.60000000E+01  1.00800000E+00  1.00800000E+00  1.60000000E+01  1.00800000E+00
  1.00800000E+00  1.60000000E+01  1.00800000E+00  1.00800000E+00  1.60000000E+01
  1.00800000E+00  1.00800000E+00  1.60000000E+01  1.00800000E+00  1.00800000E+00
  1.60000000E+01  1.00800000E+00  1.00800000E+00  1.60000000E+01  1.00800000E+00
  1.00800000E+00  1.60000000E+01  1.00800000E+00  1.00800000E+00  1.60000000E+01
  1.00800000E+00  1.00800000E+00  1.60000000E+01  1.00800000E+00  1.00800000E+00
  1.60000000E+01  1.00800000E+00  1.00800000E+00  1.60000000E+01  1.00800000E+00
  1.00800000E+00  1.60000000E+01  1.00800000E+00  1.00800000E+00  1.60000000E+01
  1.00800000E+00  1.00800000E+00  1.60000000E+01  1.00800000E+00  1.00800000E+00
  1.60000000E+01  1.00800000E+00  1.00800000E+00  1.60000000E+01  1.00800000E+00
  1.00800000E+00  1.60000000E+01  1.00800000E+00  1.00800000E+00  1.60000000E+01
  1.00800000E+00  1.00800000E+00  1.60000000E+01  1.00800000E+00  1.00800000E+00
  1.60000000E+01  1.00800000E+00  1.00800000E+00  1.60000000E+01  1.00800000E+00
  1.00800000E+00  1.60000000E+01  1.00800000E+00  1.00800000E+00  1.60000000E+01
  1.00800000E+00  1.00800000E+00  1.60000000E+01  1.00800000E+00  1.00800000E+00
  1.60000000E+01  1.00800000E+00  1.00800000E+00  1.60000000E+01  1.00800000E+00
  1.00800000E+00  1.60000000E+01  1.00800000E+00  1.00800000E+00  1.60000000E+01
  1.00800000E+00  1.00800000E+00  1.60000000E+01  1.00800000E+00  1.00800000E+00
  1.60000000E+01  1.00800000E+00  1.00800000E+00  1.60000000E+01  1.00800000E+00
  1.00800000E+00  1.60000000E+01  1.00800000E+00  1.00800000E+00  1.60000000E+01
  1.00800000E+00  1.00800000E+00  1.60000000E+01  1.00800000E+00  1.00800000E+00
  1.60000000E+01  1.00800000E+00  1.00800000E+00  1.60000000E+01  1.00800000E+00
  1.00800000E+00  1.60000000E+01  1.00800000E+00  1.00800000E+00  1.60000000E+01
  1.00800000E+00  1.00800000E+00  1.60000000E+01  1.00800000E+00  1.00800000E+00
  1.60000000E+01  1.00800000E+00  1.00800000E+00  1.60000000E+01  1.00800000E+00
  1.00800000E+00  1.60000000E+01  1.00800000E+00  1.00800000E+00  1.60000000E+01
  1.00800000E+00  1.00800000E+00  1.60000000E+01  1.00800000E+00  1.00800000E+00
  1.60000000E+01  1.00800000E+00  1.00800000E+00  1.60000000E+01  1.00800000E+00
  1.00800000E+00  1.60000000E+01  1.00800000E+00  1.00800000E+00  1.60000000E+01
  1.00800000E+00  1.00800000E+00  1.60000000E+01  1.00800000E+00  1.00800000E+00
  1.60000000E+01  1.00800000E+00  1.00800000E+00  1.60000000E+01  1.00800000E+00
  1.00800000E+00  1.60000000E+01  1.00800000E+00  1.00800000E+00  1.60000000E+01
  1.00800000E+00  1.00800000E+00  1.60000000E+01  1.00800000E+00  1.00800000E+00
  1.60000000E+01  1.00800000E+00  1.00800000E+00  1.60000000E+01  1.00800000E+00
  1.00800000E+00  1.60000000E+01  1.00800000E+00  1.00800000E+00  1.60000000E+01
  1.00800000E+00  1.00800000E+00  1.60000000E+01  1.00800000E+00  1.00800000E+00
  1.60000000E+01  1.00800000E+00  1.00800000E+00  1.60000000E+01  1.00800000E+00
  1.00800000E+00  1.60000000E+01  1.00800000E+00  1.00800000E+00  1.60000000E+01
  1.00800000E+00  1.00800000E+00  1.60000000E+01  1.00800000E+00  1.00800000E+00
  1.60000000E+01  1.00800000E+00  1.00800000E+00  1.60000000E+01  1.00800000E+00
  1.00800000E+00  1.60000000E+01  1.00800000E+00  1.00800000E+00  1.60000000E+01
  1.00800000E+00  1.00800000E+00  1.60000000E+01  1.00800000E+00  1.00800000E+00
  1.60000000E+01  1.00800000E+00  1.00800000E+00  1.60000000E+01  1.00800000E+00
  1.00800000E+00  1.60000000E+01  1.00800000E+00  1.00800000E+00  1.60000000E+01
  1.00800000E+00  1.00800000E+00  1.60000000E+01  1.00800000E+00  1.00800000E+00
  1.60000000E+01  1.00800000E+00  1.00800000E+00  1.60000000E+01  1.00800000E+00
  1.00800000E+00  1.60000000E+01  1.00800000E+00  1.00800000E+00  1.60000000E+01
  1.00800000E+00  1.00800000E+00  1.60000000E+01  1.00800000E+00  1.00800000E+00
  1.60000000E+01  1.00800000E+00  1.00800000E+00  1.60000000E+01  1.00800000E+00
  1.00800000E+00  1.60000000E+01  1.00800000E+00  1.00800000E+00  1.60000000E+01
  1.00800000E+00  1.00800000E+00  1.60000000E+01  1.00800000E+00  1.00800000E+00
  1.60000000E+01  1.00800000E+00  1.00800000E+00  1.60000000E+01  1.00800000E+00
  1.00800000E+00  1.60000000E+01  1.00800000E+00  1.00800000E+00  1.60000000E+01
  1.00800000E+00  1.00800000E+00  1.60000000E+01  1.00800000E+00  1.00800000E+00
  1.60000000E+01  1.00800000E+00  1.00800000E+00  1.60000000E+01  1.00800000E+00
  1.00800000E+00  1.60000000E+01  1.00800000E+00  1.00800000E+00  1.60000000E+01
  1.00800000E+00  1.00800000E+00  1.60000000E+01  1.00800000E+00  1.00800000E+00
  1.60000000E+01  1.00800000E+00  1.00800000E+00  1.60000000E+01  1.00800000E+00
  1.00800000E+00  1.60000000E+01  1.00800000E+00  1.00800000E+00  1.60000000E+01
  1.00800000E+00  1.00800000E+00  1.60000000E+01  1.00800000E+00  1.00800000E+00
  1.60000000E+01  1.00800000E+00  1.00800000E+00  1.60000000E+01  1.00800000E+00
  1.00800000E+00  1.60000000E+01  1.00800000E+00  1.00800000E+00  1.60000000E+01
  1.00800000E+00  1.00800000E+00  1.60000000E+01  1.00800000E+00  1.00800000E+00
  1.60000000E+01  1.00800000E+00  1.00800000E+00  1.60000000E+01  1.00800000E+00
  1.00800000E+00  1.60000000E+01  1.00800000E+00  1.00800000E+00  1.60000000E+01
  1.00800000E+00  1.00800000E+00  1.60000000E+01  1.00800000E+00  1.00800000E+00
  1.60000000E+01  1.00800000E+00  1.00800000E+00  1.60000000E+01  1.00800000E+00
  1.00800000E+00  1.60000000E+01  1.00800000E+00  1.00800000E+00  1.60000000E+01
  1.00800000E+00  1.00800000E+00  1.60000000E+01  1.00800000E+00  1.00800000E+00
  1.60000000E+01  1.00800000E+00  1.00800000E+00  1.60000000E+01  1.00800000E+00
  1.00800000E+00  1.60000000E+01  1.00800000E+00  1.00800000E+00  1.60000000E+01
  1.00800000E+00  1.00800000E+00  1.60000000E+01  1.00800000E+00  1.00800000E+00
  1.60000000E+01  1.00800000E+00  1.00800000E+00  1.60000000E+01  1.00800000E+00
  1.00800000E+00  1.60000000E+01  1.00800000E+00  1.00800000E+00  1.60000000E+01
  1.00800000E+00  1.00800000E+00  1.60000000E+01  1.00800000E+00  1.00800000E+00
  1.60000000E+01  1.00800000E+00  1.00800000E+00  1.60000000E+01  1.00800000E+00
  1.00800000E+00  1.60000000E+01  1.00800000E+00  1.00800000E+00  1.60000000E+01
  1.00800000E+00  1.00800000E+00  1.60000000E+01  1.00800000E+00  1.00800000E+00
  1.60000000E+01  1.00800000E+00  1.00800000E+00  1.60000000E+01  1.00800000E+00
  1.00800000E+00  1.60000000E+01  1.00800000E+00  1.00800000E+00  1.60000000E+01
  1.00800000E+00  1.00800000E+00  1.60000000E+01  1.00800000E+00  1.00800000E+00
  1.60000000E+01  1.00800000E+00  1.00800000E+00  1.60000000E+01  1.00800000E+00
  1.00800000E+00  1.60000000E+01  1.00800000E+00  1.00800000E+00  1.60000000E+01
  1.00800000E+00  1.00800000E+00  1.60000000E+01  1.00800000E+00  1.00800000E+00
  1.60000000E+01  1.00800000E+00  1.00800000E+00  1.60000000E+01  1.00800000E+00
  1.00800000E+00  1.60000000E+01  1.00800000E+00  1.00800000E+00  1.60000000E+01
  1.00800000E+00  1.00800000E+00  1.60000000E+01  1.00800000E+00  1.00800000E+00
  1.60000000E+01  1.00800000E+00  1.00800000E+00  1.60000000E+01  1.00800000E+00
  1.00800000E+00  1.60000000E+01  1.00800000E+00  1.00800000E+00  1.60000000E+01
  1.00800000E+00  1.00800000E+00  1.60000000E+01  1.00800000E+00  1.00800000E+00
  1.60000000E+01  1.00800000E+00  1.00800000E+00  1.60000000E+01  1.00800000E+00
  1.00800000E+00  1.60000000E+01  1.00800000E+00  1.00800000E+00  1.60000000E+01
  1.00800000E+00  1.00800000E+00  1.60000000E+01  1.00800000E+00  1.00800000E+00
  1.60000000E+01  1.00800000E+00  1.00800000E+00  1.60000000E+01  1.00800000E+00
  1.00800000E+00  1.60000000E+01  1.00800000E+00  1.00800000E+00  1.60000000E+01
  1.00800000E+00  1.00800000E+00  1.60000000E+01  1.00800000E+00  1.00800000E+00
  1.60000000E+01  1.00800000E+00  1.00800000E+00  1.60000000E+01  1.00800000E+00
  1.00800000E+00  1.60000000E+01  1.00800000E+00  1.00800000E+00  1.60000000E+01
  1.00800000E+00  1.00800000E+00  1.60000000E+01  1.00800000E+00  1.00800000E+00
  1.60000000E+01  1.00800000E+00  1.00800000E+00  1.60000000E+01  1.00800000E+00
  1.00800000E+00  1.60000000E+01  1.00800000E+00  1.00800000E+00  1.60000000E+01
  1.00800000E+00  1.00800000E+00  1.60000000E+01  1.00800000E+00  1.00800000E+00
  1.60000000E+01  1.00800000E+00  1.00800000E+00  1.60000000E+01  1.00800000E+00
  1.00800000E+00  1.60000000E+01  1.00800000E+00  1.00800000E+00  1.60000000E+01
  1.00800000E+00  1.00800000E+00  1.60000000E+01  1.00800000E+00  1.00800000E+00
  1.60000000E+01  1.00800000E+00  1.00800000E+00  1.60000000E+01  1.00800000E+00
  1.00800000E+00  1.60000000E+01  1.00800000E+00  1.00800000E+00  1.60000000E+01
  1.00800000E+00  1.00800000E+00  1.60000000E+01  1.00800000E+00  1.00800000E+00
  1.60000000E+01  1.00800000E+00  1.00800000E+00  1.60000000E+01  1.00800000E+00
  1.00800000E+00  1.60000000E+01  1.00800000E+00  1.00800000E+00  1.60000000E+01
  1.00800000E+00  1.00800000E+00  1.60000000E+01  1.00800000E+00  1.00800000E+00
  1.60000000E+01  1.00800000E+00  1.00800000E+00  1.60000000E+01  1.00800000E+00
  1.00800000E+00  1.60000000E+01  1.00800000E+00  1.00800000E+00  1.60000000E+01
  1.00800000E+00  1.00800000E+00  1.60000000E+01  1.00800000E+00  1.00800000E+00
  1.60000000E+01  1.00800000E+00  1.00800000E+00  1.60000000E+01  1.00800000E+00
  1.00800000E+00  1.60000000E+01  1.00800000E+00  1.00800000E+00  1.60000000E+01
  1.00800000E+00  1.00800000E+00  1.60000000E+01  1.00800000E+00  1.00800000E+00
  1.60000000E+01  1.00800000E+00  1.00800000E+00  1.60000000E+01  1.00800000E+00
  1.00800000E+00  1.60000000E+01  1.00800000E+00  1.00800000E+00  1.60000000E+01
  1.00800000E+00  1.00800000E+00  1.60000000E+01  1.00800000E+00  1.00800000E+00
  1.60000000E+01  1.00800000E+00  1.00800000E+00  1.60000000E+01  1.00800000E+00
  1.00800000E+00  1.60000000E+01  1.00800000E+00  1.00800000E+00  1.60000000E+01
  1.00800000E+00  1.00800000E+00  1.60000000E+01  1.00800000E+00  1.00800000E+00
  1.60000000E+01  1.00800000E+00  1.00800000E+00  1.60000000E+01  1.00800000E+00
  1.00800000E+00  1.60000000E+01  1.00800000E+00  1.00800000E+00  1.60000000E+01
  1.00800000E+00  1.00800000E+00  1.60000000E+01  1.00800000E+00  1.00800000E+00
  1.60000000E+01  1.00800000E+00  1.00800000E+00  1.60000000E+01  1.00800000E+00
  1.00800000E+00  1.60000000E+01  1.00800000E+00  1.00800000E+00  1.60000000E+01
  1.00800000E+00  1.00800000E+00  1.60000000E+01  1.00800000E+00  1.00800000E+00
  1.60000000E+01  1.00800000E+00  1.00800000E+00  1.60000000E+01  1.00800000E+00
  1.00800000E+00  1.60000000E+01  1.00800000E+00  1.00800000E+00  1.60000000E+01
  1.00800000E+00  1.00800000E+00  1.60000000E+01  1.00800000E+00  1.00800000E+00
  1.60000000E+01  1.00800000E+00  1.00800000E+00  1.60000000E+01  1.00800000E+00
  1.00800000E+00  1.60000000E+01  1.00800000E+00  1.00800000E+00  1.60000000E+01
  1.00800000E+00  1.00800000E+00  1.60000000E+01  1.00800000E+00  1.00800000E+00
  1.60000000E+01  1.00800000E+00  1.00800000E+00  1.60000000E+01  1.00800000E+00
  1.00800000E+00  1.60000000E+01  1.00800000E+00  1.00800000E+00  1.60000000E+01
  1.00800000E+00  1.00800000E+00  1.60000000E+01  1.00800000E+00  1.00800000E+00
  1.60000000E+01  1.00800000E+00  1.00800000E+00  1.60000000E+01  1.00800000E+00
  1.00800000E+00  1.60000000E+01  1.00800000E+00  1.00800000E+00  1.60000000E+01
  1.00800000E+00  1.00800000E+00  1.60000000E+01  1.00800000E+00  1.00800000E+00
  1.60000000E+01  1.00800000E+00  1.00800000E+00  1.60000000E+01  1.00800000E+00
  1.00800000E+00  1.60000000E+01  1.00800000E+00  1.00800000E+00  1.60000000E+01
  1.00800000E+00  1.00800000E+00  1.60000000E+01  1.00800000E+00  1.00800000E+00
  1.60000000E+01  1.00800000E+00  1.00800000E+00  1.60000000E+01  1.00800000E+00
  1.00800000E+00  1.60000000E+01  1.00800000E+00  1.00800000E+00  1.60000000E+01
  1.00800000E+00  1.00800000E+00  1.60000000E+01  1.00800000E+00  1.00800000E+00
  1.60000000E+01  1.00800000E+00  1.00800000E+00  1.60000000E+01  1.00800000E+00
  1.00800000E+00  1.60000000E+01  1.00800000E+00  1.00800000E+00  1.60000000E+01
  1.00800000E+00  1.00800000E+00  1.60000000E+01  1.00800000E+00  1.00800000E+00
  1.60000000E+01  1.00800000E+00  1.00800000E+00  1.60000000E+01  1.00800000E+00
  1.00800000E+00  1.60000000E+01  1.00800000E+00  1.00800000E+00  1.60000000E+01
  1.00800000E+00  1.00800000E+00  1.60000000E+01  1.00800000E+00  1.00800000E+00
  1.60000000E+01  1.00800000E+00  1.00800000E+00  1.60000000E+01  1.00800000E+00
  1.00800000E+00  1.60000000E+01  1.00800000E+00  1.00800000E+00  1.60000000E+01
  1.00800000E+00  1.00800000E+00  1.60000000E+01  1.00800000E+00  1.00800000E+00
  1.60000000E+01  1.00800000E+00  1.00800000E+00  1.60000000E+01  1.00800000E+00
  1.00800000E+00  1.60000000E+01  1.00800000E+00  1.00800000E+00  1.60000000E+01
  1.00800000E+00  1.00800000E+00  1.60000000E+01  1.00800000E+00  1.00800000E+00
  1.60000000E+01  1.00800000E+00  1.00800000E+00  1.60000000E+01  1.00800000E+00
  1.00800000E+00  1.60000000E+01  1.00800000E+00  1.00800000E+00  1.60000000E+01
  1.00800000E+00  1.00800000E+00  1.60000000E+01  1.00800000E+00  1.00800000E+00
  1.60000000E+01  1.00800000E+00  1.00800000E+00  1.60000000E+01  1.00800000E+00
  1.00800000E+00  1.60000000E+01  1.00800000E+00  1.00800000E+00  1.60000000E+01
  1.00800000E+00  1.00800000E+00  1.60000000E+01  1.00800000E+00  1.00800000E+00
  1.60000000E+01  1.00800000E+00  1.00800000E+00  1.60000000E+01  1.00800000E+00
  1.00800000E+00  1.60000000E+01  1.00800000E+00  1.00800000E+00  1.60000000E+01
  1.00800000E+00  1.00800000E+00  1.60000000E+01  1.00800000E+00  1.00800000E+00
  1.60000000E+01  1.00800000E+00  1.00800000E+00  1.60000000E+01  1.00800000E+00
  1.00800000E+00  1.60000000E+01  1.00800000E+00  1.00800000E+00  1.60000000E+01
  1.00800000E+00  1.00800000E+00  1.60000000E+01  1.00800000E+00  1.00800000E+00
  1.60000000E+01  1.00800000E+00  1.00800000E+00  1.60000000E+01  1.00800000E+00
  1.00800000E+00  1.60000000E+01  1.00800000E+00  1.00800000E+00  1.60000000E+01
  1.00800000E+00  1.00800000E+00  1.60000000E+01  1.00800000E+00  1.00800000E+00
  1.60000000E+01  1.00800000E+00  1.00800000E+00  1.60000000E+01  1.00800000E+00
  1.00800000E+00  1.60000000E+01  1.00800000E+00  1.00800000E+00  1.60000000E+01
  1.00800000E+00  1.00800000E+00  1.60000000E+01  1.00800000E+00  1.00800000E+00
  1.60000000E+01  1.00800000E+00  1.00800000E+00  1.60000000E+01  1.00800000E+00
  1.00800000E+00  1.60000000E+01  1.00800000E+00  1.00800000E+00  1.60000000E+01
  1.00800000E+00  1.00800000E+00  1.60000000E+01  1.00800000E+00  1.00800000E+00
  1.60000000E+01  1.00800000E+00  1.00800000E+00  1.60000000E+01  1.00800000E+00
  1.00800000E+00  1.60000000E+01  1.00800000E+00  1.00800000E+00  1.60000000E+01
  1.00800000E+00  1.00800000E+00  1.60000000E+01  1.00800000E+00  1.00800000E+00
  1.60000000E+01  1.00800000E+00  1.00800000E+00  1.60000000E+01  1.00800000E+00
  1.00800000E+00  1.60000000E+01  1.00800000E+00  1.00800000E+00  1.60000000E+01
  1.00800000E+00  1.00800000E+00  1.60000000E+01  1.00800000E+00  1.00800000E+00
  1.60000000E+01  1.00800000E+00  1.00800000E+00  1.60000000E+01  1.00800000E+00
  1.00800000E+00  1.60000000E+01  1.00800000E+00  1.00800000E+00  1.60000000E+01
  1.00800000E+00  1.00800000E+00  1.60000000E+01  1.00800000E+00  1.00800000E+00
  1.60000000E+01  1.00800000E+00  1.00800000E+00  1.60000000E+01  1.00800000E+00
  1.00800000E+00  1.60000000E+01  1.00800000E+00  1.00800000E+00  1.60000000E+01
  1.00800000E+00  1.00800000E+00  1.60000000E+01  1.00800000E+00  1.00800000E+00
  1.60000000E+01  1.00800000E+00  1.00800000E+00  1.60000000E+01  1.00800000E+00
  1.00800000E+00  1.60000000E+01  1.00800000E+00  1.00800000E+00  1.60000000E+01
  1.00800000E+00  1.00800000E+00  1.60000000E+01  1.00800000E+00  1.00800000E+00
  1.60000000E+01  1.00800000E+00  1.00800000E+00  1.60000000E+01  1.00800000E+00
  1.00800000E+00  1.60000000E+01  1.00800000E+00  1.00800000E+00  1.60000000E+01
  1.00800000E+00  1.00800000E+00  1.60000000E+01  1.00800000E+00  1.00800000E+00
  1.60000000E+01  1.00800000E+00  1.00800000E+00  1.60000000E+01  1.00800000E+00
  1.00800000E+00  1.60000000E+01  1.00800000E+00  1.00800000E+00  1.60000000E+01
  1.00800000E+00  1.00800000E+00  1.60000000E+01  1.00800000E+00  1.00800000E+00
  1.60000000E+01  1.00800000E+00  1.00800000E+00  1.60000000E+01  1.00800000E+00
  1.00800000E+00  1.60000000E+01  1.00800000E+00  1.00800000E+00  1.60000000E+01
  1.00800000E+00  1.00800000E+00  1.60000000E+01  1.00800000E+00  1.00800000E+00
  1.60000000E+01  1.00800000E+00  1.00800000E+00  1.60000000E+01  1.00800000E+00
  1.00800000E+00  1.60000000E+01  1.00800000E+00  1.00800000E+00  1.60000000E+01
  1.00800000E+00  1.00800000E+00  1.60000000E+01  1.00800000E+00  1.00800000E+00
  1.60000000E+01  1.00800000E+00  1.00800000E+00  1.60000000E+01  1.00800000E+00
  1.00800000E+00  1.60000000E+01  1.00800000E+00  1.00800000E+00  1.60000000E+01
  1.00800000E+00  1.00800000E+00  1.60000000E+01  1.00800000E+00  1.00800000E+00
  1.60000000E+01  1.00800000E+00  1.00800000E+00  1.60000000E+01  1.00800000E+00
  1.00800000E+00  1.60000000E+01  1.00800000E+00  1.00800000E+00  1.60000000E+01
  1.00800000E+00  1.00800000E+00  1.60000000E+01  1.00800000E+00  1.00800000E+00
  1.60000000E+01  1.00800000E+00  1.00800000E+00  1.60000000E+01  1.00800000E+00
  1.00800000E+00  1.60000000E+01  1.00800000E+00  1.00800000E+00  1.60000000E+01
  1.00800000E+00  1.00800000E+00  1.60000000E+01  1.00800000E+00  1.00800000E+00
  1.60000000E+01  1.00800000E+00  1.00800000E+00  1.60000000E+01  1.00800000E+00
  1.00800000E+00  1.60000000E+01  1.00800000E+00  1.00800000E+00  1.60000000E+01
  1.00800000E+00  1.00800000E+00  1.60000000E+01  1.00800000E+00  1.00800000E+00
  1.60000000E+01  1.00800000E+00  1.00800000E+00  1.60000000E+01  1.00800000E+00
  1.00800000E+00  1.60000000E+01  1.00800000E+00  1.00800000E+00  1.60000000E+01
  1.00800000E+00  1.00800000E+00  1.60000000E+01  1.00800000E+00  1.00800000E+00
  1.60000000E+01  1.00800000E+00  1.00800000E+00  1.60000000E+01  1.00800000E+00
  1.00800000E+00  1.60000000E+01  1.00800000E+00  1.00800000E+00  1.60000000E+01
  1.00800000E+00  1.00800000E+00  1.60000000E+01  1.00800000E+00  1.00800000E+00
  1.60000000E+01  1.00800000E+00  1.00800000E+00  1.60000000E+01  1.00800000E+00
  1.00800000E+00  1.60000000E+01  1.00800000E+00  1.00800000E+00  1.60000000E+01
  1.00800000E+00  1.00800000E+00  1.60000000E+01  1.00800000E+00  1.00800000E+00
  1.60000000E+01  1.00800000E+00  1.00800000E+00  1.60000000E+01  1.00800000E+00
  1.00800000E+00  1.60000000E+01  1.00800000E+00  1.00800000E+00  1.60000000E+01
  1.00800000E+00  1.00800000E+00  1.60000000E+01  1.00800000E+00  1.00800000E+00
  1.60000000E+01  1.00800000E+00  1.00800000E+00  1.60000000E+01  1.00800000E+00
  1.00800000E+00  1.60000000E+01  1.00800000E+00  1.00800000E+00  1.60000000E+01
  1.00800000E+00  1.00800000E+00  1.60000000E+01  1.00800000E+00  1.00800000E+00
  1.60000000E+01  1.00800000E+00  1.00800000E+00  1.60000000E+01  1.00800000E+00
  1.00800000E+00  1.60000000E+01  1.00800000E+00  1.00800000E+00  1.60000000E+01
  1.00800000E+00  1.00800000E+00  1.60000000E+01  1.00800000E+00  1.00800000E+00
  1.60000000E+01  1.00800000E+00  1.00800000E+00  1.60000000E+01  1.00800000E+00
  1.00800000E+00  1.60000000E+01  1.00800000E+00  1.00800000E+00  1.60000000E+01
  1.00800000E+00  1.00800000E+00  1.60000000E+01  1.00800000E+00  1.00800000E+00
  1.60000000E+01  1.00800000E+00  1.00800000E+00  1.60000000E+01  1.00800000E+00
  1.00800000E+00  1.60000000E+01  1.00800000E+00  1.00800000E+00  1.60000000E+01
  1.00800000E+00  1.00800000E+00  1.60000000E+01  1.00800000E+00  1.00800000E+00
  1.60000000E+01  1.00800000E+00  1.00800000E+00  1.60000000E+01  1.00800000E+00
  1.00800000E+00  1.60000000E+01  1.00800000E+00  1.00800000E+00  1.60000000E+01
  1.00800000E+00  1.00800000E+00  1.60000000E+01  1.00800000E+00  1.00800000E+00
  1.60000000E+01  1.00800000E+00  1.00800000E+00  1.60000000E+01  1.00800000E+00
  1.00800000E+00  1.60000000E+01  1.00800000E+00  1.00800000E+00  1.60000000E+01
  1.00800000E+00  1.00800000E+00  1.60000000E+01  1.00800000E+00  1.00800000E+00
  1.60000000E+01  1.00800000E+00  1.00800000E+00  1.60000000E+01  1.00800000E+00
  1.00800000E+00  1.60000000E+01  1.00800000E+00  1.00800000E+00  1.60000000E+01
  1.00800000E+00  1.00800000E+00  1.60000000E+01  1.00800000E+00  1.00800000E+00
  1.60000000E+01  1.00800000E+00  1.00800000E+00  1.60000000E+01  1.00800000E+00
  1.00800000E+00  1.60000000E+01  1.00800000E+00  1.00800000E+00  1.60000000E+01
  1.00800000E+00  1.00800000E+00  1.60000000E+01  1.00800000E+00  1.00800000E+00
  1.60000000E+01  1.00800000E+00  1.00800000E+00  1.60000000E+01  1.00800000E+00
  1.00800000E+00  1.60000000E+01  1.00800000E+00  1.00800000E+00  1.60000000E+01
  1.00800000E+00  1.00800000E+00  1.60000000E+01  1.00800000E+00  1.00800000E+00
  1.60000000E+01  1.00800000E+00  1.00800000E+00  1.60000000E+01  1.00800000E+00
  1.00800000E+00  1.60000000E+01  1.00800000E+00  1.00800000E+00  1.60000000E+01
  1.00800000E+00  1.00800000E+00  1.60000000E+01  1.00800000E+00  1.00800000E+00
  1.60000000E+01  1.00800000E+00  1.00800000E+00  1.60000000E+01  1.00800000E+00
  1.00800000E+00  1.60000000E+01  1.00800000E+00  1.00800000E+00  1.60000000E+01
  1.00800000E+00  1.00800000E+00  1.60000000E+01  1.00800000E+00  1.00800000E+00
  1.60000000E+01  1.00800000E+00  1.00800000E+00  1.60000000E+01  1.00800000E+00
  1.00800000E+00  1.60000000E+01  1.00800000E+00  1.00800000E+00  1.60000000E+01
  1.00800000E+00  1.00800000E+00  1.60000000E+01  1.00800000E+00  1.00800000E+00
  1.60000000E+01  1.00800000E+00  1.00800000E+00  1.60000000E+01  1.00800000E+00
  1.00800000E+00  1.60000000E+01  1.00800000E+00  1.00800000E+00  1.60000000E+01
  1.00800000E+00  1.00800000E+00  1.60000000E+01  1.00800000E+00  1.00800000E+00
  1.60000000E+01  1.00800000E+00  1.00800000E+00  1.60000000E+01  1.00800000E+00
  1.00800000E+00  1.60000000E+01  1.00800000E+00  1.00800000E+00  1.60000000E+01
  1.00800000E+00  1.00800000E+00  1.60000000E+01  1.00800000E+00  1.00800000E+00
  1.60000000E+01  1.00800000E+00  1.00800000E+00  1.60000000E+01  1.00800000E+00
  1.00800000E+00  1.60000000E+01  1.00800000E+00  1.00800000E+00  1.60000000E+01
  1.00800000E+00  1.00800000E+00  1.60000000E+01  1.00800000E+00  1.00800000E+00
  1.60000000E+01  1.00800000E+00  1.00800000E+00  1.60000000E+01  1.00800000E+00
  1.00800000E+00  1.60000000E+01  1.00800000E+00  1.00800000E+00  1.60000000E+01
  1.00800000E+00  1.00800000E+00  1.60000000E+01  1.00800000E+00  1.00800000E+00
  1.60000000E+01  1.00800000E+00  1.00800000E+00  1.60000000E+01  1.00800000E+00
  1.00800000E+00  1.60000000E+01  1.00800000E+00  1.00800000E+00  1.60000000E+01
  1.00800000E+00  1.00800000E+00  1.60000000E+01  1.00800000E+00  1.00800000E+00
  1.60000000E+01  1.00800000E+00  1.00800000E+00  1.60000000E+01  1.00800000E+00
  1.00800000E+00  1.60000000E+01  1.00800000E+00  1.00800000E+00  1.60000000E+01
  1.00800000E+00  1.00800000E+00  1.60000000E+01  1.00800000E+00  1.00800000E+00
  1.60000000E+01  1.00800000E+00  1.00800000E+00  1.60000000E+01  1.00800000E+00
  1.00800000E+00  1.60000000E+01  1.00800000E+00  1.00800000E+00  1.60000000E+01
  1.00800000E+00  1.00800000E+00  1.60000000E+01  1.00800000E+00  1.00800000E+00
  1.60000000E+01  1.00800000E+00  1.00800000E+00  1.60000000E+01  1.00800000E+00
  1.00800000E+00  1.60000000E+01  1.00800000E+00  1.00800000E+00  1.60000000E+01
  1.00800000E+00  1.00800000E+00  1.60000000E+01  1.00800000E+00  1.00800000E+00
  1.60000000E+01  1.00800000E+00  1.00800000E+00  1.60000000E+01  1.00800000E+00
  1.00800000E+00  1.60000000E+01  1.00800000E+00  1.00800000E+00  1.60000000E+01
  1.00800000E+00  1.00800000E+00  1.60000000E+01  1.00800000E+00  1.00800000E+00
  1.60000000E+01  1.00800000E+00  1.00800000E+00  1.60000000E+01  1.00800000E+00
  1.00800000E+00  1.60000000E+01  1.00800000E+00  1.00800000E+00  1.60000000E+01
  1.00800000E+00  1.00800000E+00  1.60000000E+01  1.00800000E+00  1.00800000E+00
  1.60000000E+01  1.00800000E+00  1.00800000E+00  1.60000000E+01  1.00800000E+00
  1.00800000E+00  1.60000000E+01  1.00800000E+00  1.00800000E+00  1.60000000E+01
  1.00800000E+00  1.00800000E+00  1.60000000E+01  1.00800000E+00  1.00800000E+00
  1.60000000E+01  1.00800000E+00  1.00800000E+00  1.60000000E+01  1.00800000E+00
  1.00800000E+00  1.60000000E+01  1.00800000E+00  1.00800000E+00  1.60000000E+01
  1.00800000E+00  1.00800000E+00  1.60000000E+01  1.00800000E+00  1.00800000E+00
  1.60000000E+01  1.00800000E+00  1.00800000E+00  1.60000000E+01  1.00800000E+00
  1.00800000E+00  1.60000000E+01  1.00800000E+00  1.00800000E+00  1.60000000E+01
  1.00800000E+00  1.00800000E+00  1.60000000E+01  1.00800000E+00  1.00800000E+00
  1.60000000E+01  1.00800000E+00  1.00800000E+00  1.60000000E+01  1.00800000E+00
  1.00800000E+00  1.60000000E+01  1.00800000E+00  1.00800000E+00  1.60000000E+01
  1.00800000E+00  1.00800000E+00  1.60000000E+01  1.00800000E+00  1.00800000E+00
  1.60000000E+01  1.00800000E+00  1.00800000E+00  1.60000000E+01  1.00800000E+00
  1.00800000E+00  1.60000000E+01  1.00800000E+00  1.00800000E+00  1.60000000E+01
  1.00800000E+00  1.00800000E+00  1.60000000E+01  1.00800000E+00  1.00800000E+00
  1.60000000E+01  1.00800000E+00  1.00800000E+00  1.60000000E+01  1.00800000E+00
  1.00800000E+00  1.60000000E+01  1.00800000E+00  1.00800000E+00  1.60000000E+01
  1.00800000E+00  1.00800000E+00  1.60000000E+01  1.00800000E+00  1.00800000E+00
  1.60000000E+01  1.00800000E+00  1.00800000E+00  1.60000000E+01  1.00800000E+00
  1.00800000E+00  1.60000000E+01  1.00800000E+00  1.00800000E+00  1.60000000E+01
  1.00800000E+00  1.00800000E+00  1.60000000E+01  1.00800000E+00  1.00800000E+00
  1.60000000E+01  1.00800000E+00  1.00800000E+00  1.60000000E+01  1.00800000E+00
  1.00800000E+00  1.60000000E+01  1.00800000E+00  1.00800000E+00  1.60000000E+01
  1.00800000E+00  1.00800000E+00  1.60000000E+01  1.00800000E+00  1.00800000E+00
  1.60000000E+01  1.00800000E+00  1.00800000E+00  1.60000000E+01  1.00800000E+00
  1.00800000E+00  1.60000000E+01  1.00800000E+00  1.00800000E+00  1.60000000E+01
  1.00800000E+00  1.00800000E+00  1.60000000E+01  1.00800000E+00  1.00800000E+00
  1.60000000E+01  1.00800000E+00  1.00800000E+00  1.60000000E+01  1.00800000E+00
  1.00800000E+00  1.60000000E+01  1.00800000E+00  1.00800000E+00  1.60000000E+01
  1.00800000E+00  1.00800000E+00  1.60000000E+01  1.00800000E+00  1.00800000E+00
  1.60000000E+01  1.00800000E+00  1.00800000E+00  1.60000000E+01  1.00800000E+00
  1.00800000E+00  1.60000000E+01  1.00800000E+00  1.00800000E+00  1.60000000E+01
  1.00800000E+00  1.00800000E+00  1.60000000E+01  1.00800000E+00  1.00800000E+00
  1.60000000E+01  1.00800000E+00  1.00800000E+00  1.60000000E+01  1.00800000E+00
  1.00800000E+00  1.60000000E+01  1.00800000E+00  1.00800000E+00  1.60000000E+01
  1.00800000E+00  1.00800000E+00  1.60000000E+01  1.00800000E+00  1.00800000E+00
  1.60000000E+01  1.00800000E+00  1.00800000E+00  1.60000000E+01  1.00800000E+00
  1.00800000E+00  1.60000000E+01  1.00800000E+00  1.00800000E+00  1.60000000E+01
  1.00800000E+00  1.00800000E+00  1.60000000E+01  1.00800000E+00  1.00800000E+00
  1.60000000E+01  1.00800000E+00  1.00800000E+00  1.60000000E+01  1.00800000E+00
  1.00800000E+00  1.60000000E+01  1.00800000E+00  1.00800000E+00  1.60000000E+01
  1.00800000E+00  1.00800000E+00  1.60000000E+01  1.00800000E+00  1.00800000E+00
  1.60000000E+01  1.00800000E+00  1.00800000E+00  1.60000000E+01  1.00800000E+00
  1.00800000E+00  1.60000000E+01  1.00800000E+00  1.00800000E+00  1.60000000E+01
  1.00800000E+00  1.00800000E+00  1.60000000E+01  1.00800000E+00  1.00800000E+00
  1.60000000E+01  1.00800000E+00  1.00800000E+00  1.60000000E+01  1.00800000E+00
  1.00800000E+00  1.60000000E+01  1.00800000E+00  1.00800000E+00  1.60000000E+01
  1.00800000E+00  1.00800000E+00  1.60000000E+01  1.00800000E+00  1.00800000E+00
  1.60000000E+01  1.00800000E+00  1.00800000E+00  1.60000000E+01  1.00800000E+00
  1.00800000E+00  1.60000000E+01  1.00800000E+00  1.00800000E+00  1.60000000E+01
  1.00800000E+00  1.00800000E+00  1.60000000E+01  1.00800000E+00  1.00800000E+00
  1.60000000E+01  1.00800000E+00  1.00800000E+00  1.60000000E+01  1.00800000E+00
  1.00800000E+00  1.60000000E+01  1.00800000E+00  1.00800000E+00  1.60000000E+01
  1.00800000E+00  1.00800000E+00  1.60000000E+01  1.00800000E+00  1.00800000E+00
  1.60000000E+01  1.00800000E+00  1.00800000E+00  1.60000000E+01  1.00800000E+00
  1.00800000E+00  1.60000000E+01  1.00800000E+00  1.00800000E+00  1.60000000E+01
  1.00800000E+00  1.00800000E+00  1.60000000E+01  1.00800000E+00  1.00800000E+00
  1.60000000E+01  1.00800000E+00  1.00800000E+00  1.60000000E+01  1.00800000E+00
  1.00800000E+00  1.60000000E+01  1.00800000E+00  1.00800000E+00  1.60000000E+01
  1.00800000E+00  1.00800000E+00  1.60000000E+01  1.00800000E+00  1.00800000E+00
  1.60000000E+01  1.00800000E+00  1.00800000E+00  1.60000000E+01  1.00800000E+00
  1.00800000E+00  1.60000000E+01  1.00800000E+00  1.00800000E+00  1.60000000E+01
  1.00800000E+00  1.00800000E+00  1.60000000E+01  1.00800000E+00  1.00800000E+00
  1.60000000E+01  1.00800000E+00  1.00800000E+00  1.60000000E+01  1.00800000E+00
  1.00800000E+00  1.60000000E+01  1.00800000E+00  1.00800000E+00  1.60000000E+01
  1.00800000E+00  1.00800000E+00  1.60000000E+01  1.00800000E+00  1.00800000E+00
  1.60000000E+01  1.00800000E+00  1.00800000E+00  1.60000000E+01  1.00800000E+00
  1.00800000E+00  1.60000000E+01  1.00800000E+00  1.00800000E+00  1.60000000E+01
  1.00800000E+00  1.00800000E+00  1.60000000E+01  1.00800000E+00  1.00800000E+00
  1.60000000E+01  1.00800000E+00  1.00800000E+00  1.60000000E+01  1.00800000E+00
  1.00800000E+00  1.60000000E+01  1.00800000E+00  1.00800000E+00  1.60000000E+01
  1.00800000E+00  1.00800000E+00  1.60000000E+01  1.00800000E+00  1.00800000E+00
  1.60000000E+01  1.00800000E+00  1.00800000E+00  1.60000000E+01  1.00800000E+00
  1.00800000E+00  1.60000000E+01  1.00800000E+00  1.00800000E+00  1.60000000E+01
  1.00800000E+00  1.00800000E+00  1.60000000E+01  1.00800000E+00  1.00800000E+00
  1.60000000E+01  1.00800000E+00  1.00800000E+00  1.60000000E+01  1.00800000E+00
  1.00800000E+00  1.60000000E+01  1.00800000E+00  1.00800000E+00  1.60000000E+01
  1.00800000E+00  1.00800000E+00  1.60000000E+01  1.00800000E+00  1.00800000E+00
  1.60000000E+01  1.00800000E+00  1.00800000E+00  1.60000000E+01  1.00800000E+00
  1.00800000E+00  1.60000000E+01  1.00800000E+00  1.00800000E+00  1.60000000E+01
  1.00800000E+00  1.00800000E+00  1.60000000E+01  1.00800000E+00  1.00800000E+00
  1.60000000E+01  1.00800000E+00  1.00800000E+00  1.60000000E+01  1.00800000E+00
  1.00800000E+00  1.60000000E+01  1.00800000E+00  1.00800000E+00  1.60000000E+01
  1.00800000E+00  1.00800000E+00  1.60000000E+01  1.00800000E+00  1.00800000E+00
  1.60000000E+01  1.00800000E+00  1.00800000E+00  1.60000000E+01  1.00800000E+00
  1.00800000E+00  1.60000000E+01  1.00800000E+00  1.00800000E+00  1.60000000E+01
  1.00800000E+00  1.00800000E+00  1.60000000E+01  1.00800000E+00  1.00800000E+00
  1.60000000E+01  1.00800000E+00  1.00800000E+00  1.60000000E+01  1.00800000E+00
  1.00800000E+00  1.60000000E+01  1.00800000E+00  1.00800000E+00  1.60000000E+01
  1.00800000E+00  1.00800000E+00  1.60000000E+01  1.00800000E+00  1.00800000E+00
  1.60000000E+01  1.00800000E+00  1.00800000E+00  1.60000000E+01  1.00800000E+00
  1.00800000E+00  1.60000000E+01  1.00800000E+00  1.00800000E+00  1.60000000E+01
  1.00800000E+00  1.00800000E+00  1.60000000E+01  1.00800000E+00  1.00800000E+00
  1.60000000E+01  1.00800000E+00  1.00800000E+00  1.60000000E+01  1.00800000E+00
  1.00800000E+00  1.60000000E+01  1.00800000E+00  1.00800000E+00  1.60000000E+01
  1.00800000E+00  1.00800000E+00  1.60000000E+01  1.00800000E+00  1.00800000E+00
  1.60000000E+01  1.00800000E+00  1.00800000E+00  1.60000000E+01  1.00800000E+00
  1.00800000E+00  1.60000000E+01  1.00800000E+00  1.00800000E+00  1.60000000E+01
  1.00800000E+00  1.00800000E+00  1.60000000E+01  1.00800000E+00  1.00800000E+00
  1.60000000E+01  1.00800000E+00  1.00800000E+00  1.60000000E+01  1.00800000E+00
  1.00800000E+00  1.60000000E+01  1.00800000E+00  1.00800000E+00  1.60000000E+01
  1.00800000E+00  1.00800000E+00  1.60000000E+01  1.00800000E+00  1.00800000E+00
  1.60000000E+01  1.00800000E+00  1.00800000E+00  1.60000000E+01  1.00800000E+00
  1.00800000E+00  1.60000000E+01  1.00800000E+00  1.00800000E+00  1.60000000E+01
  1.00800000E+00  1.00800000E+00  1.60000000E+01  1.00800000E+00  1.00800000E+00
  1.60000000E+01  1.00800000E+00  1.00800000E+00  1.60000000E+01  1.00800000E+00
  1.00800000E+00  1.60000000E+01  1.00800000E+00  1.00800000E+00  1.60000000E+01
  1.00800000E+00  1.00800000E+00  1.60000000E+01  1.00800000E+00  1.00800000E+00
  1.60000000E+01  1.00800000E+00  1.00800000E+00  1.60000000E+01  1.00800000E+00
  1.00800000E+00  1.60000000E+01  1.00800000E+00  1.00800000E+00  1.60000000E+01
  1.00800000E+00  1.00800000E+00  1.60000000E+01  1.00800000E+00  1.00800000E+00
  1.60000000E+01  1.00800000E+00  1.00800000E+00  1.60000000E+01  1.00800000E+00
  1.00800000E+00  1.60000000E+01  1.00800000E+00  1.00800000E+00  1.60000000E+01
  1.00800000E+00  1.00800000E+00  1.60000000E+01  1.00800000E+00  1.00800000E+00
  1.60000000E+01  1.00800000E+00  1.00800000E+00  1.60000000E+01  1.00800000E+00
  1.00800000E+00  1.60000000E+01  1.00800000E+00  1.00800000E+00  1.60000000E+01
  1.00800000E+00  1.00800000E+00  1.60000000E+01  1.00800000E+00  1.00800000E+00
  1.60000000E+01  1.00800000E+00  1.00800000E+00  1.60000000E+01  1.00800000E+00
  1.00800000E+00  1.60000000E+01  1.00800000E+00  1.00800000E+00  1.60000000E+01
  1.00800000E+00  1.00800000E+00  1.60000000E+01  1.00800000E+00  1.00800000E+00
  1.60000000E+01  1.00800000E+00  1.00800000E+00  1.60000000E+01  1.00800000E+00
  1.00800000E+00  1.60000000E+01  1.00800000E+00  1.00800000E+00  1.60000000E+01
  1.00800000E+00  1.00800000E+00  1.60000000E+01  1.00800000E+00  1.00800000E+00
  1.60000000E+01  1.00800000E+00  1.00800000E+00  1.60000000E+01  1.00800000E+00
  1.00800000E+00  1.60000000E+01  1.00800000E+00  1.00800000E+00  1.60000000E+01
  1.00800000E+00  1.00800000E+00  1.60000000E+01  1.00800000E+00  1.00800000E+00
  1.60000000E+01  1.00800000E+00  1.00800000E+00  1.60000000E+01  1.00800000E+00
  1.00800000E+00  1.60000000E+01  1.00800000E+00  1.00800000E+00  1.60000000E+01
  1.00800000E+00  1.00800000E+00  1.60000000E+01  1.00800000E+00  1.00800000E+00
  1.60000000E+01  1.00800000E+00  1.00800000E+00  1.60000000E+01  1.00800000E+00
  1.00800000E+00  1.60000000E+01  1.00800000E+00  1.00800000E+00  1.60000000E+01
  1.00800000E+00  1.00800000E+00  1.60000000E+01  1.00800000E+00  1.00800000E+00
  1.60000000E+01  1.00800000E+00  1.00800000E+00  1.60000000E+01  1.00800000E+00
  1.00800000E+00  1.60000000E+01  1.00800000E+00  1.00800000E+00  1.60000000E+01
  1.00800000E+00  1.00800000E+00  1.60000000E+01  1.00800000E+00  1.00800000E+00
  1.60000000E+01  1.00800000E+00  1.00800000E+00  1.60000000E+01  1.00800000E+00
  1.00800000E+00  1.60000000E+01  1.00800000E+00  1.00800000E+00  1.60000000E+01
  1.00800000E+00  1.00800000E+00  1.60000000E+01  1.00800000E+00  1.00800000E+00
  1.60000000E+01  1.00800000E+00  1.00800000E+00  1.60000000E+01  1.00800000E+00
  1.00800000E+00  1.60000000E+01  1.00800000E+00  1.00800000E+00  1.60000000E+01
  1.00800000E+00  1.00800000E+00  1.60000000E+01  1.00800000E+00  1.00800000E+00
  1.60000000E+01  1.00800000E+00  1.00800000E+00  1.60000000E+01  1.00800000E+00
  1.00800000E+00  1.60000000E+01  1.00800000E+00  1.00800000E+00  1.60000000E+01
  1.00800000E+00  1.00800000E+00  1.60000000E+01  1.00800000E+00  1.00800000E+00
  1.60000000E+01  1.00800000E+00  1.00800000E+00  1.60000000E+01  1.00800000E+00
  1.00800000E+00  1.60000000E+01  1.00800000E+00  1.00800000E+00  1.60000000E+01
  1.00800000E+00  1.00800000E+00  1.60000000E+01  1.00800000E+00  1.00800000E+00
  1.60000000E+01  1.00800000E+00  1.00800000E+00  1.60000000E+01  1.00800000E+00
  1.00800000E+00  1.60000000E+01  1.00800000E+00  1.00800000E+00  1.60000000E+01
  1.00800000E+00  1.00800000E+00  1.60000000E+01  1.00800000E+00  1.00800000E+00
  1.60000000E+01  1.00800000E+00  1.00800000E+00  1.60000000E+01  1.00800000E+00
  1.00800000E+00  1.60000000E+01  1.00800000E+00  1.00800000E+00  1.60000000E+01
  1.00800000E+00  1.00800000E+00  1.60000000E+01  1.00800000E+00  1.00800000E+00
  1.60000000E+01  1.00800000E+00  1.00800000E+00  1.60000000E+01  1.00800000E+00
  1.00800000E+00  1.60000000E+01  1.00800000E+00  1.00800000E+00  1.60000000E+01
  1.00800000E+00  1.00800000E+00  1.60000000E+01  1.00800000E+00  1.00800000E+00
  1.60000000E+01  1.00800000E+00  1.00800000E+00  1.60000000E+01  1.00800000E+00
  1.00800000E+00  1.60000000E+01  1.00800000E+00  1.00800000E+00  1.60000000E+01
  1.00800000E+00  1.00800000E+00  1.60000000E+01  1.00800000E+00  1.00800000E+00
  1.60000000E+01  1.00800000E+00  1.00800000E+00  1.60000000E+01  1.00800000E+00
  1.00800000E+00  1.60000000E+01  1.00800000E+00  1.00800000E+00  1.60000000E+01
  1.00800000E+00  1.00800000E+00  1.60000000E+01  1.00800000E+00  1.00800000E+00
  1.60000000E+01  1.00800000E+00  1.00800000E+00  1.60000000E+01  1.00800000E+00
  1.00800000E+00  1.60000000E+01  1.00800000E+00  1.00800000E+00  1.60000000E+01
  1.00800000E+00  1.00800000E+00  1.60000000E+01  1.00800000E+00  1.00800000E+00
  1.60000000E+01  1.00800000E+00  1.00800000E+00  1.60000000E+01  1.00800000E+00
  1.00800000E+00  1.60000000E+01  1.00800000E+00  1.00800000E+00  1.60000000E+01
  1.00800000E+00  1.00800000E+00  1.60000000E+01  1.00800000E+00  1.00800000E+00
  1.60000000E+01  1.00800000E+00  1.00800000E+00  1.60000000E+01  1.00800000E+00
  1.00800000E+00  1.60000000E+01  1.00800000E+00  1.00800000E+00  1.60000000E+01
  1.00800000E+00  1.00800000E+00  1.60000000E+01  1.00800000E+00  1.00800000E+00
  1.60000000E+01  1.00800000E+00  1.00800000E+00  1.60000000E+01  1.00800000E+00
  1.00800000E+00  1.60000000E+01  1.00800000E+00  1.00800000E+00  1.60000000E+01
  1.00800000E+00  1.00800000E+00  1.60000000E+01  1.00800000E+00  1.00800000E+00
  1.60000000E+01  1.00800000E+00  1.00800000E+00  1.60000000E+01  1.00800000E+00
  1.00800000E+00  1.60000000E+01  1.00800000E+00  1.00800000E+00  1.60000000E+01
  1.00800000E+00  1.00800000E+00  1.60000000E+01  1.00800000E+00  1.00800000E+00
  1.60000000E+01  1.00800000E+00  1.00800000E+00  1.60000000E+01  1.00800000E+00
  1.00800000E+00  1.60000000E+01  1.00800000E+00  1.00800000E+00  1.60000000E+01
  1.00800000E+00  1.00800000E+00  1.60000000E+01  1.00800000E+00  1.00800000E+00
  1.60000000E+01  1.00800000E+00  1.00800000E+00  1.60000000E+01  1.00800000E+00
  1.00800000E+00  1.60000000E+01  1.00800000E+00  1.00800000E+00  1.60000000E+01
  1.00800000E+00  1.00800000E+00  1.60000000E+01  1.00800000E+00  1.00800000E+00
  1.60000000E+01  1.00800000E+00  1.00800000E+00  1.60000000E+01  1.00800000E+00
  1.00800000E+00  1.60000000E+01  1.00800000E+00  1.00800000E+00  1.60000000E+01
  1.00800000E+00  1.00800000E+00  1.60000000E+01  1.00800000E+00  1.00800000E+00
  1.60000000E+01  1.00800000E+00  1.00800000E+00  1.60000000E+01  1.00800000E+00
  1.00800000E+00  1.60000000E+01  1.00800000E+00  1.00800000E+00  1.60000000E+01
  1.00800000E+00  1.00800000E+00  1.60000000E+01  1.00800000E+00  1.00800000E+00
  1.60000000E+01  1.00800000E+00  1.00800000E+00  1.60000000E+01  1.00800000E+00
  1.00800000E+00  1.60000000E+01  1.00800000E+00  1.00800000E+00  1.60000000E+01
  1.00800000E+00  1.00800000E+00  1.60000000E+01  1.00800000E+00  1.00800000E+00
  1.60000000E+01  1.00800000E+00  1.00800000E+00  1.60000000E+01  1.00800000E+00
  1.00800000E+00  1.60000000E+01  1.00800000E+00  1.00800000E+00  1.60000000E+01
  1.00800000E+00  1.00800000E+00  1.60000000E+01  1.00800000E+00  1.00800000E+00
  1.60000000E+01  1.00800000E+00  1.00800000E+00  1.60000000E+01  1.00800000E+00
  1.00800000E+00  1.60000000E+01  1.00800000E+00  1.00800000E+00  1.60000000E+01
  1.00800000E+00  1.00800000E+00  1.60000000E+01  1.00800000E+00  1.00800000E+00
  1.60000000E+01  1.00800000E+00  1.00800000E+00  1.60000000E+01  1.00800000E+00
  1.00800000E+00  1.60000000E+01  1.00800000E+00  1.00800000E+00  1.60000000E+01
  1.00800000E+00  1.00800000E+00  1.60000000E+01  1.00800000E+00  1.00800000E+00
  1.60000000E+01  1.00800000E+00  1.00800000E+00  1.60000000E+01  1.00800000E+00
  1.00800000E+00  1.60000000E+01  1.00800000E+00  1.00800000E+00  1.60000000E+01
  1.00800000E+00  1.00800000E+00  1.60000000E+01  1.00800000E+00  1.00800000E+00
  1.60000000E+01  1.00800000E+00  1.00800000E+00  1.60000000E+01  1.00800000E+00
  1.00800000E+00  1.60000000E+01  1.00800000E+00  1.00800000E+00  1.60000000E+01
  1.00800000E+00  1.00800000E+00  1.60000000E+01  1.00800000E+00  1.00800000E+00
  1.60000000E+01  1.00800000E+00  1.00800000E+00  1.60000000E+01  1.00800000E+00
  1.00800000E+00  1.60000000E+01  1.00800000E+00  1.00800000E+00  1.60000000E+01
  1.00800000E+00  1.00800000E+00  1.60000000E+01  1.00800000E+00  1.00800000E+00
  1.60000000E+01  1.00800000E+00  1.00800000E+00  1.60000000E+01  1.00800000E+00
  1.00800000E+00  1.60000000E+01  1.00800000E+00  1.00800000E+00  1.60000000E+01
  1.00800000E+00  1.00800000E+00  1.60000000E+01  1.00800000E+00  1.00800000E+00
  1.60000000E+01  1.00800000E+00  1.00800000E+00  1.60000000E+01  1.00800000E+00
  1.00800000E+00  1.60000000E+01  1.00800000E+00  1.00800000E+00  1.60000000E+01
  1.00800000E+00  1.00800000E+00  1.60000000E+01  1.00800000E+00  1.00800000E+00
  1.60000000E+01  1.00800000E+00  1.00800000E+00  1.60000000E+01  1.00800000E+00
  1.00800000E+00  1.60000000E+01  1.00800000E+00  1.00800000E+00  1.60000000E+01
  1.00800000E+00  1.00800000E+00  1.60000000E+01  1.00800000E+00  1.00800000E+00
  1.60000000E+01  1.00800000E+00  1.00800000E+00  1.60000000E+01  1.00800000E+00
  1.00800000E+00  1.60000000E+01  1.00800000E+00  1.00800000E+00  1.60000000E+01
  1.00800000E+00  1.00800000E+00  1.60000000E+01  1.00800000E+00  1.00800000E+00
  1.60000000E+01  1.00800000E+00  1.00800000E+00  1.60000000E+01  1.00800000E+00
  1.00800000E+00  1.60000000E+01  1.00800000E+00  1.00800000E+00  1.60000000E+01
  1.00800000E+00  1.00800000E+00  1.60000000E+01  1.00800000E+00  1.00800000E+00
  1.60000000E+01  1.00800000E+00  1.00800000E+00  1.60000000E+01  1.00800000E+00
  1.00800000E+00  1.60000000E+01  1.00800000E+00  1.00800000E+00  1.60000000E+01
  1.00800000E+00  1.00800000E+00  1.60000000E+01  1.00800000E+00  1.00800000E+00
  1.60000000E+01  1.00800000E+00  1.00800000E+00  1.60000000E+01  1.00800000E+00
  1.00800000E+00  1.60000000E+01  1.00800000E+00  1.00800000E+00  1.60000000E+01
  1.00800000E+00  1.00800000E+00  1.60000000E+01  1.00800000E+00  1.00800000E+00
  1.60000000E+01  1.00800000E+00  1.00800000E+00  1.60000000E+01  1.00800000E+00
  1.00800000E+00  1.60000000E+01  1.00800000E+00  1.00800000E+00  1.60000000E+01
  1.00800000E+00  1.00800000E+00  1.60000000E+01  1.00800000E+00  1.00800000E+00
  1.60000000E+01  1.00800000E+00  1.00800000E+00  1.60000000E+01  1.00800000E+00
  1.00800000E+00  1.60000000E+01  1.00800000E+00  1.00800000E+00  1.60000000E+01
  1.00800000E+00  1.00800000E+00  1.60000000E+01  1.00800000E+00  1.00800000E+00
  1.60000000E+01  1.00800000E+00  1.00800000E+00  1.60000000E+01  1.00800000E+00
  1.00800000E+00  1.60000000E+01  1.00800000E+00  1.00800000E+00  1.60000000E+01
  1.00800000E+00  1.00800000E+00  1.60000000E+01  1.00800000E+00  1.00800000E+00
  1.60000000E+01  1.00800000E+00  1.00800000E+00  1.60000000E+01  1.00800000E+00
  1.00800000E+00  1.60000000E+01  1.00800000E+00  1.00800000E+00  1.60000000E+01
  1.00800000E+00  1.00800000E+00  1.60000000E+01  1.00800000E+00  1.00800000E+00
  1.60000000E+01  1.00800000E+00  1.00800000E+00  1.60000000E+01  1.00800000E+00
  1.00800000E+00  1.60000000E+01  1.00800000E+00  1.00800000E+00  1.60000000E+01
  1.00800000E+00  1.00800000E+00  1.60000000E+01  1.00800000E+00  1.00800000E+00
  1.60000000E+01  1.00800000E+00  1.00800000E+00  1.60000000E+01  1.00800000E+00
  1.00800000E+00  1.60000000E+01  1.00800000E+00  1.00800000E+00  1.60000000E+01
  1.00800000E+00  1.00800000E+00  1.60000000E+01  1.00800000E+00  1.00800000E+00
  1.60000000E+01  1.00800000E+00  1.00800000E+00  1.60000000E+01  1.00800000E+00
  1.00800000E+00  1.60000000E+01  1.00800000E+00  1.00800000E+00  1.60000000E+01
  1.00800000E+00  1.00800000E+00  1.60000000E+01  1.00800000E+00  1.00800000E+00
  1.60000000E+01  1.00800000E+00  1.00800000E+00  1.60000000E+01  1.00800000E+00
  1.00800000E+00  1.60000000E+01  1.00800000E+00  1.00800000E+00  1.60000000E+01
  1.00800000E+00  1.00800000E+00  1.60000000E+01  1.00800000E+00  1.00800000E+00
  1.60000000E+01  1.00800000E+00  1.00800000E+00  1.60000000E+01  1.00800000E+00
  1.00800000E+00  1.60000000E+01  1.00800000E+00  1.00800000E+00  1.60000000E+01
  1.00800000E+00  1.00800000E+00  1.60000000E+01  1.00800000E+00  1.00800000E+00
  1.60000000E+01  1.00800000E+00  1.00800000E+00  1.60000000E+01  1.00800000E+00
  1.00800000E+00  1.60000000E+01  1.00800000E+00  1.00800000E+00  1.60000000E+01
  1.00800000E+00  1.00800000E+00  1.60000000E+01  1.00800000E+00  1.00800000E+00
  1.60000000E+01  1.00800000E+00  1.00800000E+00  1.60000000E+01  1.00800000E+00
  1.00800000E+00  1.60000000E+01  1.00800000E+00  1.00800000E+00  1.60000000E+01
  1.00800000E+00  1.00800000E+00  1.60000000E+01  1.00800000E+00  1.00800000E+00
  1.60000000E+01  1.00800000E+00  1.00800000E+00  1.60000000E+01  1.00800000E+00
  1.00800000E+00  1.60000000E+01  1.00800000E+00  1.00800000E+00  1.60000000E+01
  1.00800000E+00  1.00800000E+00  1.60000000E+01  1.00800000E+00  1.00800000E+00
  1.60000000E+01  1.00800000E+00  1.00800000E+00  1.60000000E+01  1.00800000E+00
  1.00800000E+00  1.60000000E+01  1.00800000E+00  1.00800000E+00  1.60000000E+01
  1.00800000E+00  1.00800000E+00  1.60000000E+01  1.00800000E+00  1.00800000E+00
  1.60000000E+01  1.00800000E+00  1.00800000E+00  1.60000000E+01  1.00800000E+00
  1.00800000E+00  1.60000000E+01  1.00800000E+00  1.00800000E+00  1.60000000E+01
  1.00800000E+00  1.00800000E+00  1.60000000E+01  1.00800000E+00  1.00800000E+00
  1.60000000E+01  1.00800000E+00  1.00800000E+00  1.60000000E+01  1.00800000E+00
  1.00800000E+00  1.60000000E+01  1.00800000E+00  1.00800000E+00  1.60000000E+01
  1.00800000E+00  1.00800000E+00  1.60000000E+01  1.00800000E+00  1.00800000E+00
  1.60000000E+01  1.00800000E+00  1.00800000E+00  1.60000000E+01  1.00800000E+00
  1.00800000E+00  1.60000000E+01  1.00800000E+00  1.00800000E+00  1.60000000E+01
  1.00800000E+00  1.00800000E+00  1.60000000E+01  1.00800000E+00  1.00800000E+00
  1.60000000E+01  1.00800000E+00  1.00800000E+00  1.60000000E+01  1.00800000E+00
  1.00800000E+00  1.60000000E+01  1.00800000E+00  1.00800000E+00  1.60000000E+01
  1.00800000E+00  1.00800000E+00  1.60000000E+01  1.00800000E+00  1.00800000E+00
  1.60000000E+01  1.00800000E+00  1.00800000E+00  1.60000000E+01  1.00800000E+00
  1.00800000E+00  1.60000000E+01  1.00800000E+00  1.00800000E+00  1.60000000E+01
  1.00800000E+00  1.00800000E+00  1.60000000E+01  1.00800000E+00  1.00800000E+00
  1.60000000E+01  1.00800000E+00  1.00800000E+00  1.60000000E+01  1.00800000E+00
  1.00800000E+00  1.60000000E+01  1.00800000E+00  1.00800000E+00  1.60000000E+01
  1.00800000E+00  1.00800000E+00  1.60000000E+01  1.00800000E+00  1.00800000E+00
  1.60000000E+01  1.00800000E+00  1.00800000E+00  1.60000000E+01  1.00800000E+00
  1.00800000E+00  1.60000000E+01  1.00800000E+00  1.00800000E+00  1.60000000E+01
  1.00800000E+00  1.00800000E+00  1.60000000E+01  1.00800000E+00  1.00800000E+00
  1.60000000E+01  1.00800000E+00  1.00800000E+00  1.60000000E+01  1.00800000E+00
  1.00800000E+00  1.60000000E+01  1.00800000E+00  1.00800000E+00  1.60000000E+01
  1.00800000E+00  1.00800000E+00  1.60000000E+01  1.00800000E+00  1.00800000E+00
  1.60000000E+01  1.00800000E+00  1.00800000E+00  1.60000000E+01  1.00800000E+00
  1.00800000E+00  1.60000000E+01  1.00800000E+00  1.00800000E+00  1.60000000E+01
  1.00800000E+00  1.00800000E+00  1.60000000E+01  1.00800000E+00  1.00800000E+00
  1.60000000E+01  1.00800000E+00  1.00800000E+00  1.60000000E+01  1.00800000E+00
  1.00800000E+00  1.60000000E+01  1.00800000E+00  1.00800000E+00  1.60000000E+01
  1.00800000E+00  1.00800000E+00  1.60000000E+01  1.00800000E+00  1.00800000E+00
  1.60000000E+01  1.00800000E+00  1.00800000E+00  1.60000000E+01  1.00800000E+00
  1.00800000E+00  1.60000000E+01  1.00800000E+00  1.00800000E+00  1.60000000E+01
  1.00800000E+00  1.00800000E+00  1.60000000E+01  1.00800000E+00  1.00800000E+00
  1.60000000E+01  1.00800000E+00  1.00800000E+00  1.60000000E+01  1.00800000E+00
  1.00800000E+00  1.60000000E+01  1.00800000E+00  1.00800000E+00  1.60000000E+01
  1.00800000E+00  1.00800000E+00  1.60000000E+01  1.00800000E+00  1.00800000E+00
  1.60000000E+01  1.00800000E+00  1.00800000E+00  1.60000000E+01  1.00800000E+00
  1.00800000E+00  1.60000000E+01  1.00800000E+00  1.00800000E+00  1.60000000E+01
  1.00800000E+00  1.00800000E+00  1.60000000E+01  1.00800000E+00  1.00800000E+00
  1.60000000E+01  1.00800000E+00  1.00800000E+00  1.60000000E+01  1.00800000E+00
  1.00800000E+00  1.60000000E+01  1.00800000E+00  1.00800000E+00  1.60000000E+01
  1.00800000E+00  1.00800000E+00  1.60000000E+01  1.00800000E+00  1.00800000E+00
  1.60000000E+01  1.00800000E+00  1.00800000E+00  1.60000000E+01  1.00800000E+00
  1.00800000E+00  1.60000000E+01  1.00800000E+00  1.00800000E+00  1.60000000E+01
  1.00800000E+00  1.00800000E+00  1.60000000E+01  1.00800000E+00  1.00800000E+00
  1.60000000E+01  1.00800000E+00  1.00800000E+00  1.60000000E+01  1.00800000E+00
  1.00800000E+00  1.60000000E+01  1.00800000E+00  1.00800000E+00  1.60000000E+01
  1.00800000E+00  1.00800000E+00  1.60000000E+01  1.00800000E+00  1.00800000E+00
  1.60000000E+01  1.00800000E+00  1.00800000E+00  1.60000000E+01  1.00800000E+00
  1.00800000E+00  1.60000000E+01  1.00800000E+00  1.00800000E+00  1.60000000E+01
  1.00800000E+00  1.00800000E+00  1.60000000E+01  1.00800000E+00  1.00800000E+00
  1.60000000E+01  1.00800000E+00  1.00800000E+00  1.60000000E+01  1.00800000E+00
  1.00800000E+00  1.60000000E+01  1.00800000E+00  1.00800000E+00  1.60000000E+01
  1.00800000E+00  1.00800000E+00  1.60000000E+01  1.00800000E+00  1.00800000E+00
  1.60000000E+01  1.00800000E+00  1.00800000E+00  1.60000000E+01  1.00800000E+00
  1.00800000E+00  1.60000000E+01  1.00800000E+00  1.00800000E+00  1.60000000E+01
  1.00800000E+00  1.00800000E+00  1.60000000E+01  1.00800000E+00  1.00800000E+00
  1.60000000E+01  1.00800000E+00  1.00800000E+00  1.60000000E+01  1.00800000E+00
  1.00800000E+00  1.60000000E+01  1.00800000E+00  1.00800000E+00  1.60000000E+01
  1.00800000E+00  1.00800000E+00  1.60000000E+01  1.00800000E+00  1.00800000E+00
  1.60000000E+01  1.00800000E+00  1.00800000E+00  1.60000000E+01  1.00800000E+00
  1.00800000E+00  1.60000000E+01  1.00800000E+00  1.00800000E+00  1.60000000E+01
  1.00800000E+00  1.00800000E+00  1.60000000E+01  1.00800000E+00  1.00800000E+00
  1.60000000E+01  1.00800000E+00  1.00800000E+00  1.60000000E+01  1.00800000E+00
  1.00800000E+00  1.60000000E+01  1.00800000E+00  1.00800000E+00  1.60000000E+01
  1.00800000E+00  1.00800000E+00  1.60000000E+01  1.00800000E+00  1.00800000E+00
  1.60000000E+01  1.00800000E+00  1.00800000E+00  1.60000000E+01  1.00800000E+00
  1.00800000E+00  1.60000000E+01  1.00800000E+00  1.00800000E+00  1.60000000E+01
  1.00800000E+00  1.00800000E+00  1.60000000E+01  1.00800000E+00  1.00800000E+00
  1.60000000E+01  1.00800000E+00  1.00800000E+00  1.60000000E+01  1.00800000E+00
  1.00800000E+00  1.60000000E+01  1.00800000E+00  1.00800000E+00  1.60000000E+01
  1.00800000E+00  1.00800000E+00  1.60000000E+01  1.00800000E+00  1.00800000E+00
  1.60000000E+01  1.00800000E+00  1.00800000E+00  1.60000000E+01  1.00800000E+00
  1.00800000E+00  1.60000000E+01  1.00800000E+00  1.00800000E+00  1.60000000E+01
  1.00800000E+00  1.00800000E+00  1.60000000E+01  1.00800000E+00  1.00800000E+00
  1.60000000E+01  1.00800000E+00  1.00800000E+00  1.60000000E+01  1.00800000E+00
  1.00800000E+00  1.60000000E+01  1.00800000E+00  1.00800000E+00  1.60000000E+01
  1.00800000E+00  1.00800000E+00  1.60000000E+01  1.00800000E+00  1.00800000E+00
  1.60000000E+01  1.00800000E+00  1.00800000E+00  1.60000000E+01  1.00800000E+00
  1.00800000E+00  1.60000000E+01  1.00800000E+00  1.00800000E+00  1.60000000E+01
  1.00800000E+00  1.00800000E+00  1.60000000E+01  1.00800000E+00  1.00800000E+00
  1.60000000E+01  1.00800000E+00  1.00800000E+00  1.60000000E+01  1.00800000E+00
  1.00800000E+00  1.60000000E+01  1.00800000E+00  1.00800000E+00  1.60000000E+01
  1.00800000E+00  1.00800000E+00  1.60000000E+01  1.00800000E+00  1.00800000E+00
  1.60000000E+01  1.00800000E+00  1.00800000E+00  1.60000000E+01  1.00800000E+00
  1.00800000E+00  1.60000000E+01  1.00800000E+00  1.00800000E+00  1.60000000E+01
  1.00800000E+00  1.00800000E+00  1.60000000E+01  1.00800000E+00  1.00800000E+00
  1.60000000E+01  1.00800000E+00  1.00800000E+00  1.60000000E+01  1.00800000E+00
  1.00800000E+00  1.60000000E+01  1.00800000E+00  1.00800000E+00  1.60000000E+01
  1.00800000E+00  1.00800000E+00  1.60000000E+01  1.00800000E+00  1.00800000E+00
  1.60000000E+01  1.00800000E+00  1.00800000E+00  1.60000000E+01  1.00800000E+00
  1.00800000E+00  1.60000000E+01  1.00800000E+00  1.00800000E+00  1.60000000E+01
  1.00800000E+00  1.00800000E+00  1.60000000E+01  1.00800000E+00  1.00800000E+00
  1.60000000E+01  1.00800000E+00  1.00800000E+00  1.60000000E+01  1.00800000E+00
  1.00800000E+00  1.60000000E+01  1.00800000E+00  1.00800000E+00  1.60000000E+01
  1.00800000E+00  1.00800000E+00  1.60000000E+01  1.00800000E+00  1.00800000E+00
  1.60000000E+01  1.00800000E+00  1.00800000E+00  1.60000000E+01  1.00800000E+00
  1.00800000E+00  1.60000000E+01  1.00800000E+00  1.00800000E+00  1.60000000E+01
  1.00800000E+00  1.00800000E+00  1.60000000E+01  1.00800000E+00  1.00800000E+00
  1.60000000E+01  1.00800000E+00  1.00800000E+00  1.60000000E+01  1.00800000E+00
  1.00800000E+00  1.60000000E+01  1.00800000E+00  1.00800000E+00  1.60000000E+01
  1.00800000E+00  1.00800000E+00  1.60000000E+01  1.00800000E+00  1.00800000E+00
  1.60000000E+01  1.00800000E+00  1.00800000E+00  1.60000000E+01  1.00800000E+00
  1.00800000E+00  1.60000000E+01  1.00800000E+00  1.00800000E+00  1.60000000E+01
  1.00800000E+00  1.00800000E+00  1.60000000E+01  1.00800000E+00  1.00800000E+00
  1.60000000E+01  1.00800000E+00  1.00800000E+00  1.60000000E+01  1.00800000E+00
  1.00800000E+00  1.60000000E+01  1.00800000E+00  1.00800000E+00  1.60000000E+01
  1.00800000E+00  1.00800000E+00  1.60000000E+01  1.00800000E+00  1.00800000E+00
  1.60000000E+01  1.00800000E+00  1.00800000E+00  1.60000000E+01  1.00800000E+00
  1.00800000E+00  1.60000000E+01  1.00800000E+00  1.00800000E+00  1.60000000E+01
  1.00800000E+00  1.00800000E+00  1.60000000E+01  1.00800000E+00  1.00800000E+00
  1.60000000E+01  1.00800000E+00  1.00800000E+00  1.60000000E+01  1.00800000E+00
  1.00800000E+00  1.60000000E+01  1.00800000E+00  1.00800000E+00  1.60000000E+01
  1.00800000E+00  1.00800000E+00  1.60000000E+01  1.00800000E+00  1.00800000E+00
  1.60000000E+01  1.00800000E+00  1.00800000E+00  1.60000000E+01  1.00800000E+00
  1.00800000E+00  1.60000000E+01  1.00800000E+00  1.00800000E+00  1.60000000E+01
  1.00800000E+00  1.00800000E+00  1.60000000E+01  1.00800000E+00  1.00800000E+00
  1.60000000E+01  1.00800000E+00  1.00800000E+00  1.60000000E+01  1.00800000E+00
  1.00800000E+00  1.60000000E+01  1.00800000E+00  1.00800000E+00  1.60000000E+01
  1.00800000E+00  1.00800000E+00  1.60000000E+01  1.00800000E+00  1.00800000E+00
  1.60000000E+01  1.00800000E+00  1.00800000E+00  1.60000000E+01  1.00800000E+00
  1.00800000E+00  1.60000000E+01  1.00800000E+00  1.00800000E+00  1.60000000E+01
  1.00800000E+00  1.00800000E+00  1.60000000E+01  1.00800000E+00  1.00800000E+00
  1.60000000E+01  1.00800000E+00  1.00800000E+00  1.60000000E+01  1.00800000E+00
  1.00800000E+00  1.60000000E+01  1.00800000E+00  1.00800000E+00  1.60000000E+01
  1.00800000E+00  1.00800000E+00  1.60000000E+01  1.00800000E+00  1.00800000E+00
  1.60000000E+01  1.00800000E+00  1.00800000E+00  1.60000000E+01  1.00800000E+00
  1.00800000E+00  1.60000000E+01  1.00800000E+00  1.00800000E+00  1.60000000E+01
  1.00800000E+00  1.00800000E+00  1.60000000E+01  1.00800000E+00  1.00800000E+00
  1.60000000E+01  1.00800000E+00  1.00800000E+00  1.60000000E+01  1.00800000E+00
  1.00800000E+00  1.60000000E+01  1.00800000E+00  1.00800000E+00  1.60000000E+01
  1.00800000E+00  1.00800000E+00  1.60000000E+01  1.00800000E+00  1.00800000E+00
  1.60000000E+01  1.00800000E+00  1.00800000E+00  1.60000000E+01  1.00800000E+00
  1.00800000E+00  1.60000000E+01  1.00800000E+00  1.00800000E+00  1.60000000E+01
  1.00800000E+00  1.00800000E+00  1.60000000E+01  1.00800000E+00  1.00800000E+00
  1.60000000E+01  1.00800000E+00  1.00800000E+00  1.60000000E+01  1.00800000E+00
  1.00800000E+00  1.60000000E+01  1.00800000E+00  1.00800000E+00  1.60000000E+01
  1.00800000E+00  1.00800000E+00  1.60000000E+01  1.00800000E+00  1.00800000E+00
  1.60000000E+01  1.00800000E+00  1.00800000E+00  1.60000000E+01  1.00800000E+00
  1.00800000E+00  1.60000000E+01  1.00800000E+00  1.00800000E+00  1.60000000E+01
  1.00800000E+00  1.00800000E+00  1.60000000E+01  1.00800000E+00  1.00800000E+00
  1.60000000E+01  1.00800000E+00  1.00800000E+00  1.60000000E+01  1.00800000E+00
  1.00800000E+00  1.60000000E+01  1.00800000E+00  1.00800000E+00  1.60000000E+01
  1.00800000E+00  1.00800000E+00  1.60000000E+01  1.00800000E+00  1.00800000E+00
  1.60000000E+01  1.00800000E+00  1.00800000E+00  1.60000000E+01  1.00800000E+00
  1.00800000E+00  1.60000000E+01  1.00800000E+00  1.00800000E+00  1.60000000E+01
  1.00800000E+00  1.00800000E+00  1.60000000E+01  1.00800000E+00  1.00800000E+00
  1.60000000E+01  1.00800000E+00  1.00800000E+00  1.60000000E+01  1.00800000E+00
  1.00800000E+00  1.60000000E+01  1.00800000E+00  1.00800000E+00  1.60000000E+01
  1.00800000E+00  1.00800000E+00  1.60000000E+01  1.00800000E+00  1.00800000E+00
  1.60000000E+01  1.00800000E+00  1.00800000E+00  1.60000000E+01  1.00800000E+00
  1.00800000E+00  1.60000000E+01  1.00800000E+00  1.00800000E+00  1.60000000E+01
  1.00800000E+00  1.00800000E+00  1.60000000E+01  1.00800000E+00  1.00800000E+00
  1.60000000E+01  1.00800000E+00  1.00800000E+00  1.60000000E+01  1.00800000E+00
  1.00800000E+00  1.60000000E+01  1.00800000E+00  1.00800000E+00  1.60000000E+01
  1.00800000E+00  1.00800000E+00  1.60000000E+01  1.00800000E+00  1.00800000E+00
  1.60000000E+01  1.00800000E+00  1.00800000E+00  1.60000000E+01  1.00800000E+00
  1.00800000E+00  1.60000000E+01  1.00800000E+00  1.00800000E+00  1.60000000E+01
  1.00800000E+00  1.00800000E+00  1.60000000E+01  1.00800000E+00  1.00800000E+00
  1.60000000E+01  1.00800000E+00  1.00800000E+00  1.60000000E+01  1.00800000E+00
  1.00800000E+00  1.60000000E+01  1.00800000E+00  1.00800000E+00  1.60000000E+01
  1.00800000E+00  1.00800000E+00  1.60000000E+01  1.00800000E+00  1.00800000E+00
  1.60000000E+01  1.00800000E+00  1.00800000E+00  1.60000000E+01  1.00800000E+00
  1.00800000E+00  1.60000000E+01  1.00800000E+00  1.00800000E+00  1.60000000E+01
  1.00800000E+00  1.00800000E+00  1.60000000E+01  1.00800000E+00  1.00800000E+00
  1.60000000E+01  1.00800000E+00  1.00800000E+00  1.60000000E+01  1.00800000E+00
  1.00800000E+00  1.60000000E+01  1.00800000E+00  1.00800000E+00  1.60000000E+01
  1.00800000E+00  1.00800000E+00  1.60000000E+01  1.00800000E+00  1.00800000E+00
  1.60000000E+01  1.00800000E+00  1.00800000E+00  1.60000000E+01  1.00800000E+00
  1.00800000E+00  1.60000000E+01  1.00800000E+00  1.00800000E+00  1.60000000E+01
  1.00800000E+00  1.00800000E+00  1.60000000E+01  1.00800000E+00  1.00800000E+00
  1.60000000E+01  1.00800000E+00  1.00800000E+00  1.60000000E+01  1.00800000E+00
  1.00800000E+00  1.60000000E+01  1.00800000E+00  1.00800000E+00  1.60000000E+01
  1.00800000E+00  1.00800000E+00  1.60000000E+01  1.00800000E+00  1.00800000E+00
  1.60000000E+01  1.00800000E+00  1.00800000E+00  1.60000000E+01  1.00800000E+00
  1.00800000E+00  1.60000000E+01  1.00800000E+00  1.00800000E+00  1.60000000E+01
  1.00800000E+00  1.00800000E+00  1.60000000E+01  1.00800000E+00  1.00800000E+00
  1.60000000E+01  1.00800000E+00  1.00800000E+00  1.60000000E+01  1.00800000E+00
  1.00800000E+00  1.60000000E+01  1.00800000E+00  1.00800000E+00  1.60000000E+01
  1.00800000E+00  1.00800000E+00  1.60000000E+01  1.00800000E+00  1.00800000E+00
  1.60000000E+01  1.00800000E+00  1.00800000E+00  1.60000000E+01  1.00800000E+00
  1.00800000E+00  1.60000000E+01  1.00800000E+00  1.00800000E+00  1.60000000E+01
  1.00800000E+00  1.00800000E+00  1.60000000E+01  1.00800000E+00  1.00800000E+00
  1.60000000E+01  1.00800000E+00  1.00800000E+00  1.60000000E+01  1.00800000E+00
  1.00800000E+00  1.60000000E+01  1.00800000E+00  1.00800000E+00  1.60000000E+01
  1.00800000E+00  1.00800000E+00  1.60000000E+01  1.00800000E+00  1.00800000E+00
  1.60000000E+01  1.00800000E+00  1.00800000E+00  1.60000000E+01  1.00800000E+00
  1.00800000E+00  1.60000000E+01  1.00800000E+00  1.00800000E+00  1.60000000E+01
  1.00800000E+00  1.00800000E+00  1.60000000E+01  1.00800000E+00  1.00800000E+00
  1.60000000E+01  1.00800000E+00  1.00800000E+00  1.60000000E+01  1.00800000E+00
  1.00800000E+00  1.60000000E+01  1.00800000E+00  1.00800000E+00  1.60000000E+01
  1.00800000E+00  1.00800000E+00  1.60000000E+01  1.00800000E+00  1.00800000E+00
  1.60000000E+01  1.00800000E+00  1.00800000E+00  1.60000000E+01  1.00800000E+00
  1.00800000E+00  1.60000000E+01  1.00800000E+00  1.00800000E+00  1.60000000E+01
  1.00800000E+00  1.00800000E+00  1.60000000E+01  1.00800000E+00  1.00800000E+00
  1.60000000E+01  1.00800000E+00  1.00800000E+00  1.60000000E+01  1.00800000E+00
  1.00800000E+00  1.60000000E+01  1.00800000E+00  1.00800000E+00  1.60000000E+01
  1.00800000E+00  1.00800000E+00  1.60000000E+01  1.00800000E+00  1.00800000E+00
  1.60000000E+01  1.00800000E+00  1.00800000E+00  1.60000000E+01  1.00800000E+00
  1.00800000E+00  1.60000000E+01  1.00800000E+00  1.00800000E+00  1.60000000E+01
  1.00800000E+00  1.00800000E+00  1.60000000E+01  1.00800000E+00  1.00800000E+00
  1.60000000E+01  1.00800000E+00  1.00800000E+00  1.60000000E+01  1.00800000E+00
  1.00800000E+00  1.60000000E+01  1.00800000E+00  1.00800000E+00  1.60000000E+01
  1.00800000E+00  1.00800000E+00  1.60000000E+01  1.00800000E+00  1.00800000E+00
  1.60000000E+01  1.00800000E+00  1.00800000E+00  1.60000000E+01  1.00800000E+00
  1.00800000E+00  1.60000000E+01  1.00800000E+00  1.00800000E+00  1.60000000E+01
  1.00800000E+00  1.00800000E+00  1.60000000E+01  1.00800000E+00  1.00800000E+00
  1.60000000E+01  1.00800000E+00  1.00800000E+00  1.60000000E+01  1.00800000E+00
  1.00800000E+00  1.60000000E+01  1.00800000E+00  1.00800000E+00  1.60000000E+01
  1.00800000E+00  1.00800000E+00  1.60000000E+01  1.00800000E+00  1.00800000E+00
  1.60000000E+01  1.00800000E+00  1.00800000E+00  1.60000000E+01  1.00800000E+00
  1.00800000E+00  1.60000000E+01  1.00800000E+00  1.00800000E+00  1.60000000E+01
  1.00800000E+00  1.00800000E+00  1.60000000E+01  1.00800000E+00  1.00800000E+00
  1.60000000E+01  1.00800000E+00  1.00800000E+00  1.60000000E+01  1.00800000E+00
  1.00800000E+00  1.60000000E+01  1.00800000E+00  1.00800000E+00  1.60000000E+01
  1.00800000E+00  1.00800000E+00  1.60000000E+01  1.00800000E+00  1.00800000E+00
  1.60000000E+01  1.00800000E+00  1.00800000E+00  1.60000000E+01  1.00800000E+00
  1.00800000E+00  1.60000000E+01  1.00800000E+00  1.00800000E+00  1.60000000E+01
  1.00800000E+00  1.00800000E+00  1.60000000E+01  1.00800000E+00  1.00800000E+00
  1.60000000E+01  1.00800000E+00  1.00800000E+00  1.60000000E+01  1.00800000E+00
  1.00800000E+00  1.60000000E+01  1.00800000E+00  1.00800000E+00  1.60000000E+01
  1.00800000E+00  1.00800000E+00  1.60000000E+01  1.00800000E+00  1.00800000E+00
  1.60000000E+01  1.00800000E+00  1.00800000E+00  1.60000000E+01  1.00800000E+00
  1.00800000E+00  1.60000000E+01  1.00800000E+00  1.00800000E+00  1.60000000E+01
  1.00800000E+00  1.00800000E+00  1.60000000E+01  1.00800000E+00  1.00800000E+00
  1.60000000E+01  1.00800000E+00  1.00800000E+00  1.60000000E+01  1.00800000E+00
  1.00800000E+00  1.60000000E+01  1.00800000E+00  1.00800000E+00  1.60000000E+01
  1.00800000E+00  1.00800000E+00  1.60000000E+01  1.00800000E+00  1.00800000E+00
  1.60000000E+01  1.00800000E+00  1.00800000E+00  1.60000000E+01  1.00800000E+00
  1.00800000E+00  1.60000000E+01  1.00800000E+00  1.00800000E+00  1.60000000E+01
  1.00800000E+00  1.00800000E+00  1.60000000E+01  1.00800000E+00  1.00800000E+00
  1.60000000E+01  1.00800000E+00  1.00800000E+00  1.60000000E+01  1.00800000E+00
  1.00800000E+00  1.60000000E+01  1.00800000E+00  1.00800000E+00  1.60000000E+01
  1.00800000E+00  1.00800000E+00  1.60000000E+01  1.00800000E+00  1.00800000E+00
  1.60000000E+01  1.00800000E+00  1.00800000E+00  1.60000000E+01  1.00800000E+00
  1.00800000E+00  1.60000000E+01  1.00800000E+00  1.00800000E+00  1.60000000E+01
  1.00800000E+00  1.00800000E+00  1.60000000E+01  1.00800000E+00  1.00800000E+00
  1.60000000E+01  1.00800000E+00  1.00800000E+00  1.60000000E+01  1.00800000E+00
  1.00800000E+00  1.60000000E+01  1.00800000E+00  1.00800000E+00  1.60000000E+01
  1.00800000E+00  1.00800000E+00  1.60000000E+01  1.00800000E+00  1.00800000E+00
  1.60000000E+01  1.00800000E+00  1.00800000E+00  1.60000000E+01  1.00800000E+00
  1.00800000E+00  1.60000000E+01  1.00800000E+00  1.00800000E+00  1.60000000E+01
  1.00800000E+00  1.00800000E+00  1.60000000E+01  1.00800000E+00  1.00800000E+00
  1.60000000E+01  1.00800000E+00  1.00800000E+00  1.60000000E+01  1.00800000E+00
  1.00800000E+00  1.60000000E+01  1.00800000E+00  1.00800000E+00  1.60000000E+01
  1.00800000E+00  1.00800000E+00  1.60000000E+01  1.00800000E+00  1.00800000E+00
  1.60000000E+01  1.00800000E+00  1.00800000E+00  1.60000000E+01  1.00800000E+00
  1.00800000E+00  1.60000000E+01  1.00800000E+00  1.00800000E+00  1.60000000E+01
  1.00800000E+00  1.00800000E+00  1.60000000E+01  1.00800000E+00  1.00800000E+00
  1.60000000E+01  1.00800000E+00  1.00800000E+00  1.60000000E+01  1.00800000E+00
  1.00800000E+00  1.60000000E+01  1.00800000E+00  1.00800000E+00  1.60000000E+01
  1.00800000E+00  1.00800000E+00  1.60000000E+01  1.00800000E+00  1.00800000E+00
  1.60000000E+01  1.00800000E+00  1.00800000E+00  1.60000000E+01  1.00800000E+00
  1.00800000E+00  1.60000000E+01  1.00800000E+00  1.00800000E+00  1.60000000E+01
  1.00800000E+00  1.00800000E+00  1.60000000E+01  1.00800000E+00  1.00800000E+00
  1.60000000E+01  1.00800000E+00  1.00800000E+00  1.60000000E+01  1.00800000E+00
  1.00800000E+00  1.60000000E+01  1.00800000E+00  1.00800000E+00  1.60000000E+01
  1.00800000E+00  1.00800000E+00  1.60000000E+01  1.00800000E+00  1.00800000E+00
  1.60000000E+01  1.00800000E+00  1.00800000E+00  1.60000000E+01  1.00800000E+00
  1.00800000E+00  1.60000000E+01  1.00800000E+00  1.00800000E+00  1.60000000E+01
  1.00800000E+00  1.00800000E+00  1.60000000E+01  1.00800000E+00  1.00800000E+00
  1.60000000E+01  1.00800000E+00  1.00800000E+00  1.60000000E+01  1.00800000E+00
  1.00800000E+00  1.60000000E+01  1.00800000E+00  1.00800000E+00  1.60000000E+01
  1.00800000E+00  1.00800000E+00  1.60000000E+01  1.00800000E+00  1.00800000E+00
  1.60000000E+01  1.00800000E+00  1.00800000E+00  1.60000000E+01  1.00800000E+00
  1.00800000E+00  1.60000000E+01  1.00800000E+00  1.00800000E+00  1.60000000E+01
  1.00800000E+00  1.00800000E+00  1.60000000E+01  1.00800000E+00  1.00800000E+00
  1.60000000E+01  1.00800000E+00  1.00800000E+00  1.60000000E+01  1.00800000E+00
  1.00800000E+00  1.60000000E+01  1.00800000E+00  1.00800000E+00  1.60000000E+01
  1.00800000E+00  1.00800000E+00  1.60000000E+01  1.00800000E+00  1.00800000E+00
  1.60000000E+01  1.00800000E+00  1.00800000E+00  1.60000000E+01  1.00800000E+00
  1.00800000E+00  1.60000000E+01  1.00800000E+00  1.00800000E+00  1.60000000E+01
  1.00800000E+00  1.00800000E+00  1.60000000E+01  1.00800000E+00  1.00800000E+00
  1.60000000E+01  1.00800000E+00  1.00800000E+00  1.60000000E+01  1.00800000E+00
  1.00800000E+00  1.60000000E+01  1.00800000E+00  1.00800000E+00  1.60000000E+01
  1.00800000E+00  1.00800000E+00  1.60000000E+01  1.00800000E+00  1.00800000E+00
  1.60000000E+01  1.00800000E+00  1.00800000E+00  1.60000000E+01  1.00800000E+00
  1.00800000E+00  1.60000000E+01  1.00800000E+00  1.00800000E+00  1.60000000E+01
  1.00800000E+00  1.00800000E+00  1.60000000E+01  1.00800000E+00  1.00800000E+00
  1.60000000E+01  1.00800000E+00  1.00800000E+00  1.60000000E+01  1.00800000E+00
  1.00800000E+00  1.60000000E+01  1.00800000E+00  1.00800000E+00  1.60000000E+01
  1.00800000E+00  1.00800000E+00  1.60000000E+01  1.00800000E+00  1.00800000E+00
  1.60000000E+01  1.00800000E+00  1.00800000E+00  1.60000000E+01  1.00800000E+00
  1.00800000E+00  1.60000000E+01  1.00800000E+00  1.00800000E+00  1.60000000E+01
  1.00800000E+00  1.00800000E+00  1.60000000E+01  1.00800000E+00  1.00800000E+00
  1.60000000E+01  1.00800000E+00  1.00800000E+00  1.60000000E+01  1.00800000E+00
  1.00800000E+00  1.60000000E+01  1.00800000E+00  1.00800000E+00  1.60000000E+01
  1.00800000E+00  1.00800000E+00  1.60000000E+01  1.00800000E+00  1.00800000E+00
  1.60000000E+01  1.00800000E+00  1.00800000E+00  1.60000000E+01  1.00800000E+00
  1.00800000E+00  1.60000000E+01  1.00800000E+00  1.00800000E+00  1.60000000E+01
  1.00800000E+00  1.00800000E+00  1.60000000E+01  1.00800000E+00  1.00800000E+00
  1.60000000E+01  1.00800000E+00  1.00800000E+00  1.60000000E+01  1.00800000E+00
  1.00800000E+00  1.60000000E+01  1.00800000E+00  1.00800000E+00  1.60000000E+01
  1.00800000E+00  1.00800000E+00  1.60000000E+01  1.00800000E+00  1.00800000E+00
  1.60000000E+01  1.00800000E+00  1.00800000E+00  1.60000000E+01  1.00800000E+00
  1.00800000E+00  1.60000000E+01  1.00800000E+00  1.00800000E+00  1.60000000E+01
  1.00800000E+00  1.00800000E+00  1.60000000E+01  1.00800000E+00  1.00800000E+00
  1.60000000E+01  1.00800000E+00  1.00800000E+00  1.60000000E+01  1.00800000E+00
  1.00800000E+00  1.60000000E+01  1.00800000E+00  1.00800000E+00  1.60000000E+01
  1.00800000E+00  1.00800000E+00  1.60000000E+01  1.00800000E+00  1.00800000E+00
  1.60000000E+01  1.00800000E+00  1.00800000E+00  1.60000000E+01  1.00800000E+00
  1.00800000E+00  1.60000000E+01  1.00800000E+00  1.00800000E+00  1.60000000E+01
  1.00800000E+00  1.00800000E+00  1.60000000E+01  1.00800000E+00  1.00800000E+00
  1.60000000E+01  1.00800000E+00  1.00800000E+00  1.60000000E+01  1.00800000E+00
  1.00800000E+00  1.60000000E+01  1.00800000E+00  1.00800000E+00  1.60000000E+01
  1.00800000E+00  1.00800000E+00  1.60000000E+01  1.00800000E+00  1.00800000E+00
  1.60000000E+01  1.00800000E+00  1.00800000E+00  1.60000000E+01  1.00800000E+00
  1.00800000E+00  1.60000000E+01  1.00800000E+00  1.00800000E+00  1.60000000E+01
  1.00800000E+00  1.00800000E+00  1.60000000E+01  1.00800000E+00  1.00800000E+00
  1.60000000E+01  1.00800000E+00  1.00800000E+00  1.60000000E+01  1.00800000E+00
  1.00800000E+00  1.60000000E+01  1.00800000E+00  1.00800000E+00  1.60000000E+01
  1.00800000E+00  1.00800000E+00  1.60000000E+01  1.00800000E+00  1.00800000E+00
  1.60000000E+01  1.00800000E+00  1.00800000E+00  1.60000000E+01  1.00800000E+00
  1.00800000E+00  1.60000000E+01  1.00800000E+00  1.00800000E+00  1.60000000E+01
  1.00800000E+00  1.00800000E+00  1.60000000E+01  1.00800000E+00  1.00800000E+00
  1.60000000E+01  1.00800000E+00  1.00800000E+00  1.60000000E+01  1.00800000E+00
  1.00800000E+00  1.60000000E+01  1.00800000E+00  1.00800000E+00  1.60000000E+01
  1.00800000E+00  1.00800000E+00  1.60000000E+01  1.00800000E+00  1.00800000E+00
  1.60000000E+01  1.00800000E+00  1.00800000E+00  1.60000000E+01  1.00800000E+00
  1.00800000E+00  1.60000000E+01  1.00800000E+00  1.00800000E+00  1.60000000E+01
  1.00800000E+00  1.00800000E+00  1.60000000E+01  1.00800000E+00  1.00800000E+00
  1.60000000E+01  1.00800000E+00  1.00800000E+00  1.60000000E+01  1.00800000E+00
  1.00800000E+00  1.60000000E+01  1.00800000E+00  1.00800000E+00  1.60000000E+01
  1.00800000E+00  1.00800000E+00  1.60000000E+01  1.00800000E+00  1.00800000E+00
  1.60000000E+01  1.00800000E+00  1.00800000E+00  1.60000000E+01  1.00800000E+00
  1.00800000E+00  1.60000000E+01  1.00800000E+00  1.00800000E+00  1.60000000E+01
  1.00800000E+00  1.00800000E+00  1.60000000E+01  1.00800000E+00  1.00800000E+00
  1.60000000E+01  1.00800000E+00  1.00800000E+00  1.60000000E+01  1.00800000E+00
  1.00800000E+00  1.60000000E+01  1.00800000E+00  1.00800000E+00  1.60000000E+01
  1.00800000E+00  1.00800000E+00  1.60000000E+01  1.00800000E+00  1.00800000E+00
  1.60000000E+01  1.00800000E+00  1.00800000E+00  1.60000000E+01  1.00800000E+00
  1.00800000E+00  1.60000000E+01  1.00800000E+00  1.00800000E+00  1.60000000E+01
  1.00800000E+00  1.00800000E+00  1.60000000E+01  1.00800000E+00  1.00800000E+00
  1.60000000E+01  1.00800000E+00  1.00800000E+00  1.60000000E+01  1.00800000E+00
  1.00800000E+00  1.60000000E+01  1.00800000E+00  1.00800000E+00  1.60000000E+01
  1.00800000E+00  1.00800000E+00  1.60000000E+01  1.00800000E+00  1.00800000E+00
  1.60000000E+01  1.00800000E+00  1.00800000E+00  1.60000000E+01  1.00800000E+00
  1.00800000E+00  1.60000000E+01  1.00800000E+00  1.00800000E+00  1.60000000E+01
  1.00800000E+00  1.00800000E+00  1.60000000E+01  1.00800000E+00  1.00800000E+00
  1.60000000E+01  1.00800000E+00  1.00800000E+00  1.60000000E+01  1.00800000E+00
  1.00800000E+00  1.60000000E+01  1.00800000E+00  1.00800000E+00  1.60000000E+01
  1.00800000E+00  1.00800000E+00  1.60000000E+01  1.00800000E+00  1.00800000E+00
  1.60000000E+01  1.00800000E+00  1.00800000E+00  1.60000000E+01  1.00800000E+00
  1.00800000E+00  1.60000000E+01  1.00800000E+00  1.00800000E+00  1.60000000E+01
  1.00800000E+00  1.00800000E+00  1.60000000E+01  1.00800000E+00  1.00800000E+00
  1.60000000E+01  1.00800000E+00  1.00800000E+00  1.60000000E+01  1.00800000E+00
  1.00800000E+00  1.60000000E+01  1.00800000E+00  1.00800000E+00  1.60000000E+01
  1.00800000E+00  1.00800000E+00  1.60000000E+01  1.00800000E+00  1.00800000E+00
  1.60000000E+01  1.00800000E+00  1.00800000E+00  1.60000000E+01  1.00800000E+00
  1.00800000E+00  1.60000000E+01  1.00800000E+00  1.00800000E+00  1.60000000E+01
  1.00800000E+00  1.00800000E+00  1.60000000E+01  1.00800000E+00  1.00800000E+00
  1.60000000E+01  1.00800000E+00  1.00800000E+00  1.60000000E+01  1.00800000E+00
  1.00800000E+00  1.60000000E+01  1.00800000E+00  1.00800000E+00  1.60000000E+01
  1.00800000E+00  1.00800000E+00  1.60000000E+01  1.00800000E+00  1.00800000E+00
  1.60000000E+01  1.00800000E+00  1.00800000E+00  1.60000000E+01  1.00800000E+00
  1.00800000E+00  1.60000000E+01  1.00800000E+00  1.00800000E+00  1.60000000E+01
  1.00800000E+00  1.00800000E+00  1.60000000E+01  1.00800000E+00  1.00800000E+00
  1.60000000E+01  1.00800000E+00  1.00800000E+00  1.60000000E+01  1.00800000E+00
  1.00800000E+00  1.60000000E+01  1.00800000E+00  1.00800000E+00  1.60000000E+01
  1.00800000E+00  1.00800000E+00  1.60000000E+01  1.00800000E+00  1.00800000E+00
  1.60000000E+01  1.00800000E+00  1.00800000E+00  1.60000000E+01  1.00800000E+00
  1.00800000E+00  1.60000000E+01  1.00800000E+00  1.00800000E+00  1.60000000E+01
  1.00800000E+00  1.00800000E+00  1.60000000E+01  1.00800000E+00  1.00800000E+00
  1.60000000E+01  1.00800000E+00  1.00800000E+00  1.60000000E+01  1.00800000E+00
  1.00800000E+00  1.60000000E+01  1.00800000E+00  1.00800000E+00  1.60000000E+01
  1.00800000E+00  1.00800000E+00  1.60000000E+01  1.00800000E+00  1.00800000E+00
  1.60000000E+01  1.00800000E+00  1.00800000E+00  1.60000000E+01  1.00800000E+00
  1.00800000E+00  1.60000000E+01  1.00800000E+00  1.00800000E+00  1.60000000E+01
  1.00800000E+00  1.00800000E+00  1.60000000E+01  1.00800000E+00  1.00800000E+00
  1.60000000E+01  1.00800000E+00  1.00800000E+00  1.60000000E+01  1.00800000E+00
  1.00800000E+00  1.60000000E+01  1.00800000E+00  1.00800000E+00  1.60000000E+01
  1.00800000E+00  1.00800000E+00  1.60000000E+01  1.00800000E+00  1.00800000E+00
  1.60000000E+01  1.00800000E+00  1.00800000E+00  1.60000000E+01  1.00800000E+00
  1.00800000E+00  1.60000000E+01  1.00800000E+00  1.00800000E+00  1.60000000E+01
  1.00800000E+00  1.00800000E+00  1.60000000E+01  1.00800000E+00  1.00800000E+00
  1.60000000E+01  1.00800000E+00  1.00800000E+00  1.60000000E+01  1.00800000E+00
  1.00800000E+00  1.60000000E+01  1.00800000E+00  1.00800000E+00  1.60000000E+01
  1.00800000E+00  1.00800000E+00  1.60000000E+01  1.00800000E+00  1.00800000E+00
  1.60000000E+01  1.00800000E+00  1.00800000E+00  1.60000000E+01  1.00800000E+00
  1.00800000E+00  1.60000000E+01  1.00800000E+00  1.00800000E+00  1.60000000E+01
  1.00800000E+00  1.00800000E+00  1.60000000E+01  1.00800000E+00  1.00800000E+00
  1.60000000E+01  1.00800000E+00  1.00800000E+00  1.60000000E+01  1.00800000E+00
  1.00800000E+00  1.60000000E+01  1.00800000E+00  1.00800000E+00  1.60000000E+01
  1.00800000E+00  1.00800000E+00  1.60000000E+01  1.00800000E+00  1.00800000E+00
  1.60000000E+01  1.00800000E+00  1.00800000E+00  1.60000000E+01  1.00800000E+00
  1.00800000E+00  1.60000000E+01  1.00800000E+00  1.00800000E+00  1.60000000E+01
  1.00800000E+00  1.00800000E+00  1.60000000E+01  1.00800000E+00  1.00800000E+00
  1.60000000E+01  1.00800000E+00  1.00800000E+00  1.60000000E+01  1.00800000E+00
  1.00800000E+00  1.60000000E+01  1.00800000E+00  1.00800000E+00  1.60000000E+01
  1.00800000E+00  1.00800000E+00  1.60000000E+01  1.00800000E+00  1.00800000E+00
  1.60000000E+01  1.00800000E+00  1.00800000E+00  1.60000000E+01  1.00800000E+00
  1.00800000E+00  1.60000000E+01  1.00800000E+00  1.00800000E+00  1.60000000E+01
  1.00800000E+00  1.00800000E+00  1.60000000E+01  1.00800000E+00  1.00800000E+00
  1.60000000E+01  1.00800000E+00  1.00800000E+00  1.60000000E+01  1.00800000E+00
  1.00800000E+00  1.60000000E+01  1.00800000E+00  1.00800000E+00  1.60000000E+01
  1.00800000E+00  1.00800000E+00  1.60000000E+01  1.00800000E+00  1.00800000E+00
  1.60000000E+01  1.00800000E+00  1.00800000E+00  1.60000000E+01  1.00800000E+00
  1.00800000E+00  1.60000000E+01  1.00800000E+00  1.00800000E+00  1.60000000E+01
  1.00800000E+00  1.00800000E+00  1.60000000E+01  1.00800000E+00  1.00800000E+00
  1.60000000E+01  1.00800000E+00  1.00800000E+00  1.60000000E+01  1.00800000E+00
  1.00800000E+00  1.60000000E+01  1.00800000E+00  1.00800000E+00  1.60000000E+01
  1.00800000E+00  1.00800000E+00  1.60000000E+01  1.00800000E+00  1.00800000E+00
  1.60000000E+01  1.00800000E+00  1.00800000E+00  1.60000000E+01  1.00800000E+00
  1.00800000E+00  1.60000000E+01  1.00800000E+00  1.00800000E+00  1.60000000E+01
  1.00800000E+00  1.00800000E+00  1.60000000E+01  1.00800000E+00  1.00800000E+00
  1.60000000E+01  1.00800000E+00  1.00800000E+00  1.60000000E+01  1.00800000E+00
  1.00800000E+00  1.60000000E+01  1.00800000E+00  1.00800000E+00  1.60000000E+01
  1.00800000E+00  1.00800000E+00  1.60000000E+01  1.00800000E+00  1.00800000E+00
  1.60000000E+01  1.00800000E+00  1.00800000E+00  1.60000000E+01  1.00800000E+00
  1.00800000E+00  1.60000000E+01  1.00800000E+00  1.00800000E+00  1.60000000E+01
  1.00800000E+00  1.00800000E+00  1.60000000E+01  1.00800000E+00  1.00800000E+00
  1.60000000E+01  1.00800000E+00  1.00800000E+00  1.60000000E+01  1.00800000E+00
  1.00800000E+00  1.60000000E+01  1.00800000E+00  1.00800000E+00  1.60000000E+01
  1.00800000E+00  1.00800000E+00  1.60000000E+01  1.00800000E+00  1.00800000E+00
  1.60000000E+01  1.00800000E+00  1.00800000E+00  1.60000000E+01  1.00800000E+00
  1.00800000E+00  1.60000000E+01  1.00800000E+00  1.00800000E+00  1.60000000E+01
  1.00800000E+00  1.00800000E+00  1.60000000E+01  1.00800000E+00  1.00800000E+00
  1.60000000E+01  1.00800000E+00  1.00800000E+00  1.60000000E+01  1.00800000E+00
  1.00800000E+00  1.60000000E+01  1.00800000E+00  1.00800000E+00  1.60000000E+01
  1.00800000E+00  1.00800000E+00  1.60000000E+01  1.00800000E+00  1.00800000E+00
  1.60000000E+01  1.00800000E+00  1.00800000E+00  1.60000000E+01  1.00800000E+00
  1.00800000E+00  1.60000000E+01  1.00800000E+00  1.00800000E+00  1.60000000E+01
  1.00800000E+00  1.00800000E+00  1.60000000E+01  1.00800000E+00  1.00800000E+00
  1.60000000E+01  1.00800000E+00  1.00800000E+00  1.60000000E+01  1.00800000E+00
  1.00800000E+00  1.60000000E+01  1.00800000E+00  1.00800000E+00  1.60000000E+01
  1.00800000E+00  1.00800000E+00  1.60000000E+01  1.00800000E+00  1.00800000E+00
  1.60000000E+01  1.00800000E+00  1.00800000E+00  1.60000000E+01  1.00800000E+00
  1.00800000E+00  1.60000000E+01  1.00800000E+00  1.00800000E+00  1.60000000E+01
  1.00800000E+00  1.00800000E+00  1.60000000E+01  1.00800000E+00  1.00800000E+00
  1.60000000E+01  1.00800000E+00  1.00800000E+00  1.60000000E+01  1.00800000E+00
  1.00800000E+00  1.60000000E+01  1.00800000E+00  1.00800000E+00  1.60000000E+01
  1.00800000E+00  1.00800000E+00  1.60000000E+01  1.00800000E+00  1.00800000E+00
  1.60000000E+01  1.00800000E+00  1.00800000E+00  1.60000000E+01  1.00800000E+00
  1.00800000E+00  1.60000000E+01  1.00800000E+00  1.00800000E+00  1.60000000E+01
  1.00800000E+00  1.00800000E+00  1.60000000E+01  1.00800000E+00  1.00800000E+00
  1.60000000E+01  1.00800000E+00  1.00800000E+00  1.60000000E+01  1.00800000E+00
  1.00800000E+00  1.60000000E+01  1.00800000E+00  1.00800000E+00  1.60000000E+01
  1.00800000E+00  1.00800000E+00  1.60000000E+01  1.00800000E+00  1.00800000E+00
  1.60000000E+01  1.00800000E+00  1.00800000E+00  1.60000000E+01  1.00800000E+00
  1.00800000E+00  1.60000000E+01  1.00800000E+00  1.00800000E+00  1.60000000E+01
  1.00800000E+00  1.00800000E+00  1.60000000E+01  1.00800000E+00  1.00800000E+00
  1.60000000E+01  1.00800000E+00  1.00800000E+00  1.60000000E+01  1.00800000E+00
  1.00800000E+00  1.60000000E+01  1.00800000E+00  1.00800000E+00  1.60000000E+01
  1.00800000E+00  1.00800000E+00  1.60000000E+01  1.00800000E+00  1.00800000E+00
  1.60000000E+01  1.00800000E+00  1.00800000E+00  1.60000000E+01  1.00800000E+00
  1.00800000E+00  1.60000000E+01  1.00800000E+00  1.00800000E+00  1.60000000E+01
  1.00800000E+00  1.00800000E+00  1.60000000E+01  1.00800000E+00  1.00800000E+00
  1.60000000E+01  1.00800000E+00  1.00800000E+00  1.60000000E+01  1.00800000E+00
  1.00800000E+00  1.60000000E+01  1.00800000E+00  1.00800000E+00  1.60000000E+01
  1.00800000E+00  1.00800000E+00  1.60000000E+01  1.00800000E+00  1.00800000E+00
  1.60000000E+01  1.00800000E+00  1.00800000E+00  1.60000000E+01  1.00800000E+00
  1.00800000E+00  1.60000000E+01  1.00800000E+00  1.00800000E+00  1.60000000E+01
  1.00800000E+00  1.00800000E+00  1.60000000E+01  1.00800000E+00  1.00800000E+00
  1.60000000E+01  1.00800000E+00  1.00800000E+00  1.60000000E+01  1.00800000E+00
  1.00800000E+00  1.60000000E+01  1.00800000E+00  1.00800000E+00  1.60000000E+01
  1.00800000E+00  1.00800000E+00  1.60000000E+01  1.00800000E+00  1.00800000E+00
  1.60000000E+01  1.00800000E+00  1.00800000E+00  1.60000000E+01  1.00800000E+00
  1.00800000E+00  1.60000000E+01  1.00800000E+00  1.00800000E+00  1.60000000E+01
  1.00800000E+00  1.00800000E+00  1.60000000E+01  1.00800000E+00  1.00800000E+00
  1.60000000E+01  1.00800000E+00  1.00800000E+00  1.60000000E+01  1.00800000E+00
  1.00800000E+00  1.60000000E+01  1.00800000E+00  1.00800000E+00  1.60000000E+01
  1.00800000E+00  1.00800000E+00  1.60000000E+01  1.00800000E+00  1.00800000E+00
  1.60000000E+01  1.00800000E+00  1.00800000E+00  1.60000000E+01  1.00800000E+00
  1.00800000E+00  1.60000000E+01  1.00800000E+00  1.00800000E+00  1.60000000E+01
  1.00800000E+00  1.00800000E+00  1.60000000E+01  1.00800000E+00  1.00800000E+00
  1.60000000E+01  1.00800000E+00  1.00800000E+00  1.60000000E+01  1.00800000E+00
  1.00800000E+00  1.60000000E+01  1.00800000E+00  1.00800000E+00  1.60000000E+01
  1.00800000E+00  1.00800000E+00  1.60000000E+01  1.00800000E+00  1.00800000E+00
  1.60000000E+01  1.00800000E+00  1.00800000E+00  1.60000000E+01  1.00800000E+00
  1.00800000E+00  1.60000000E+01  1.00800000E+00  1.00800000E+00  1.60000000E+01
  1.00800000E+00  1.00800000E+00  1.60000000E+01  1.00800000E+00  1.00800000E+00
  1.60000000E+01  1.00800000E+00  1.00800000E+00  1.60000000E+01  1.00800000E+00
  1.00800000E+00  1.60000000E+01  1.00800000E+00  1.00800000E+00  1.60000000E+01
  1.00800000E+00  1.00800000E+00  1.60000000E+01  1.00800000E+00  1.00800000E+00
  1.60000000E+01  1.00800000E+00  1.00800000E+00  1.60000000E+01  1.00800000E+00
  1.00800000E+00  1.60000000E+01  1.00800000E+00  1.00800000E+00  1.60000000E+01
  1.00800000E+00  1.00800000E+00  1.60000000E+01  1.00800000E+00  1.00800000E+00
  1.60000000E+01  1.00800000E+00  1.00800000E+00  1.60000000E+01  1.00800000E+00
  1.00800000E+00  1.60000000E+01  1.00800000E+00  1.00800000E+00  1.60000000E+01
  1.00800000E+00  1.00800000E+00  1.60000000E+01  1.00800000E+00  1.00800000E+00
  1.60000000E+01  1.00800000E+00  1.00800000E+00  1.60000000E+01  1.00800000E+00
  1.00800000E+00  1.60000000E+01  1.00800000E+00  1.00800000E+00  1.60000000E+01
  1.00800000E+00  1.00800000E+00  1.60000000E+01  1.00800000E+00  1.00800000E+00
  1.60000000E+01  1.00800000E+00  1.00800000E+00  1.60000000E+01  1.00800000E+00
  1.00800000E+00  1.60000000E+01  1.00800000E+00  1.00800000E+00  1.60000000E+01
  1.00800000E+00  1.00800000E+00  1.60000000E+01  1.00800000E+00  1.00800000E+00
  1.60000000E+01  1.00800000E+00  1.00800000E+00  1.60000000E+01  1.00800000E+00
  1.00800000E+00  1.60000000E+01  1.00800000E+00  1.00800000E+00  1.60000000E+01
  1.00800000E+00  1.00800000E+00  1.60000000E+01  1.00800000E+00  1.00800000E+00
  1.60000000E+01  1.00800000E+00  1.00800000E+00  1.60000000E+01  1.00800000E+00
  1.00800000E+00  1.60000000E+01  1.00800000E+00  1.00800000E+00  1.60000000E+01
  1.00800000E+00  1.00800000E+00  1.60000000E+01  1.00800000E+00  1.00800000E+00
  1.60000000E+01  1.00800000E+00  1.00800000E+00  1.60000000E+01  1.00800000E+00
  1.00800000E+00  1.60000000E+01  1.00800000E+00  1.00800000E+00  1.60000000E+01
  1.00800000E+00  1.00800000E+00  1.60000000E+01  1.00800000E+00  1.00800000E+00
  1.60000000E+01  1.00800000E+00  1.00800000E+00  1.60000000E+01  1.00800000E+00
  1.00800000E+00  1.60000000E+01  1.00800000E+00  1.00800000E+00  1.60000000E+01
  1.00800000E+00  1.00800000E+00  1.60000000E+01  1.00800000E+00  1.00800000E+00
  1.60000000E+01  1.00800000E+00  1.00800000E+00  1.60000000E+01  1.00800000E+00
  1.00800000E+00  1.60000000E+01  1.00800000E+00  1.00800000E+00  1.60000000E+01
  1.00800000E+00  1.00800000E+00  1.60000000E+01  1.00800000E+00  1.00800000E+00
  1.60000000E+01  1.00800000E+00  1.00800000E+00  1.60000000E+01  1.00800000E+00
  1.00800000E+00  1.60000000E+01  1.00800000E+00  1.00800000E+00  1.60000000E+01
  1.00800000E+00  1.00800000E+00  1.60000000E+01  1.00800000E+00  1.00800000E+00
  1.60000000E+01  1.00800000E+00  1.00800000E+00  1.60000000E+01  1.00800000E+00
  1.00800000E+00  1.60000000E+01  1.00800000E+00  1.00800000E+00  1.60000000E+01
  1.00800000E+00  1.00800000E+00  1.60000000E+01  1.00800000E+00  1.00800000E+00
  1.60000000E+01  1.00800000E+00  1.00800000E+00  1.60000000E+01  1.00800000E+00
  1.00800000E+00  1.60000000E+01  1.00800000E+00  1.00800000E+00  1.60000000E+01
  1.00800000E+00  1.00800000E+00  1.60000000E+01  1.00800000E+00  1.00800000E+00
  1.60000000E+01  1.00800000E+00  1.00800000E+00  1.60000000E+01  1.00800000E+00
  1.00800000E+00  1.60000000E+01  1.00800000E+00  1.00800000E+00  1.60000000E+01
  1.00800000E+00  1.00800000E+00  1.60000000E+01  1.00800000E+00  1.00800000E+00
  1.60000000E+01  1.00800000E+00  1.00800000E+00  1.60000000E+01  1.00800000E+00
  1.00800000E+00  1.60000000E+01  1.00800000E+00  1.00800000E+00  1.60000000E+01
  1.00800000E+00  1.00800000E+00  1.60000000E+01  1.00800000E+00  1.00800000E+00
  1.60000000E+01  1.00800000E+00  1.00800000E+00  1.60000000E+01  1.00800000E+00
  1.00800000E+00  1.60000000E+01  1.00800000E+00  1.00800000E+00  1.60000000E+01
  1.00800000E+00  1.00800000E+00  1.60000000E+01  1.00800000E+00  1.00800000E+00
  1.60000000E+01  1.00800000E+00  1.00800000E+00  1.60000000E+01  1.00800000E+00
  1.00800000E+00  1.60000000E+01  1.00800000E+00  1.00800000E+00  1.60000000E+01
  1.00800000E+00  1.00800000E+00  1.60000000E+01  1.00800000E+00  1.00800000E+00
  1.60000000E+01  1.00800000E+00  1.00800000E+00  1.60000000E+01  1.00800000E+00
  1.00800000E+00  1.60000000E+01  1.00800000E+00  1.00800000E+00  1.60000000E+01
  1.00800000E+00  1.00800000E+00  1.60000000E+01  1.00800000E+00  1.00800000E+00
  1.60000000E+01  1.00800000E+00  1.00800000E+00  1.60000000E+01  1.00800000E+00
  1.00800000E+00  1.60000000E+01  1.00800000E+00  1.00800000E+00  1.60000000E+01
  1.00800000E+00  1.00800000E+00  1.60000000E+01  1.00800000E+00  1.00800000E+00
  1.60000000E+01  1.00800000E+00  1.00800000E+00  1.60000000E+01  1.00800000E+00
  1.00800000E+00  1.60000000E+01  1.00800000E+00  1.00800000E+00  1.60000000E+01
  1.00800000E+00  1.00800000E+00  1.60000000E+01  1.00800000E+00  1.00800000E+00
  1.60000000E+01  1.00800000E+00  1.00800000E+00  1.60000000E+01  1.00800000E+00
  1.00800000E+00  1.60000000E+01  1.00800000E+00  1.00800000E+00  1.60000000E+01
  1.00800000E+00  1.00800000E+00  1.60000000E+01  1.00800000E+00  1.00800000E+00
  1.60000000E+01  1.00800000E+00  1.00800000E+00  1.60000000E+01  1.00800000E+00
  1.00800000E+00  1.60000000E+01  1.00800000E+00  1.00800000E+00  1.60000000E+01
  1.00800000E+00  1.00800000E+00  1.60000000E+01  1.00800000E+00  1.00800000E+00
  1.60000000E+01  1.00800000E+00  1.00800000E+00  1.60000000E+01  1.00800000E+00
  1.00800000E+00  1.60000000E+01  1.00800000E+00  1.00800000E+00  1.60000000E+01
  1.00800000E+00  1.00800000E+00  1.60000000E+01  1.00800000E+00  1.00800000E+00
  1.60000000E+01  1.00800000E+00  1.00800000E+00  1.60000000E+01  1.00800000E+00
  1.00800000E+00  1.60000000E+01  1.00800000E+00  1.00800000E+00  1.60000000E+01
  1.00800000E+00  1.00800000E+00  1.60000000E+01  1.00800000E+00  1.00800000E+00
  1.60000000E+01  1.00800000E+00  1.00800000E+00  1.60000000E+01  1.00800000E+00
  1.00800000E+00  1.60000000E+01  1.00800000E+00  1.00800000E+00  1.60000000E+01
  1.00800000E+00  1.00800000E+00  1.60000000E+01  1.00800000E+00  1.00800000E+00
  1.60000000E+01  1.00800000E+00  1.00800000E+00  1.60000000E+01  1.00800000E+00
  1.00800000E+00  1.60000000E+01  1.00800000E+00  1.00800000E+00  1.60000000E+01
  1.00800000E+00  1.00800000E+00  1.60000000E+01  1.00800000E+00  1.00800000E+00
  1.60000000E+01  1.00800000E+00  1.00800000E+00  1.60000000E+01  1.00800000E+00
  1.00800000E+00  1.60000000E+01  1.00800000E+00  1.00800000E+00  1.60000000E+01
  1.00800000E+00  1.00800000E+00  1.60000000E+01  1.00800000E+00  1.00800000E+00
  1.60000000E+01  1.00800000E+00  1.00800000E+00  1.60000000E+01  1.00800000E+00
  1.00800000E+00  1.60000000E+01  1.00800000E+00  1.00800000E+00  1.60000000E+01
  1.00800000E+00  1.00800000E+00  1.60000000E+01  1.00800000E+00  1.00800000E+00
  1.60000000E+01  1.00800000E+00  1.00800000E+00  1.60000000E+01  1.00800000E+00
  1.00800000E+00  1.60000000E+01  1.00800000E+00  1.00800000E+00  1.60000000E+01
  1.00800000E+00  1.00800000E+00  1.60000000E+01  1.00800000E+00  1.00800000E+00
  1.60000000E+01  1.00800000E+00  1.00800000E+00  1.60000000E+01  1.00800000E+00
  1.00800000E+00  1.60000000E+01  1.00800000E+00  1.00800000E+00  1.60000000E+01
  1.00800000E+00  1.00800000E+00  1.60000000E+01  1.00800000E+00  1.00800000E+00
  1.60000000E+01  1.00800000E+00  1.00800000E+00  1.60000000E+01  1.00800000E+00
  1.00800000E+00  1.60000000E+01  1.00800000E+00  1.00800000E+00  1.60000000E+01
  1.00800000E+00  1.00800000E+00  1.60000000E+01  1.00800000E+00  1.00800000E+00
  1.60000000E+01  1.00800000E+00  1.00800000E+00  1.60000000E+01  1.00800000E+00
  1.00800000E+00  1.60000000E+01  1.00800000E+00  1.00800000E+00  1.60000000E+01
  1.00800000E+00  1.00800000E+00  1.60000000E+01  1.00800000E+00  1.00800000E+00
  1.60000000E+01  1.00800000E+00  1.00800000E+00  1.60000000E+01  1.00800000E+00
  1.00800000E+00  1.60000000E+01  1.00800000E+00  1.00800000E+00  1.60000000E+01
  1.00800000E+00  1.00800000E+00  1.60000000E+01  1.00800000E+00  1.00800000E+00
  1.60000000E+01  1.00800000E+00  1.00800000E+00  1.60000000E+01  1.00800000E+00
  1.00800000E+00  1.60000000E+01  1.00800000E+00  1.00800000E+00  1.60000000E+01
  1.00800000E+00  1.00800000E+00  1.60000000E+01  1.00800000E+00  1.00800000E+00
  1.60000000E+01  1.00800000E+00  1.00800000E+00  1.60000000E+01  1.00800000E+00
  1.00800000E+00  1.60000000E+01  1.00800000E+00  1.00800000E+00  1.60000000E+01
  1.00800000E+00  1.00800000E+00  1.60000000E+01  1.00800000E+00  1.00800000E+00
  1.60000000E+01  1.00800000E+00  1.00800000E+00  1.60000000E+01  1.00800000E+00
  1.00800000E+00  1.60000000E+01  1.00800000E+00  1.00800000E+00  1.60000000E+01
  1.00800000E+00  1.00800000E+00  1.60000000E+01  1.00800000E+00  1.00800000E+00
  1.60000000E+01  1.00800000E+00  1.00800000E+00  1.60000000E+01  1.00800000E+00
  1.00800000E+00  1.60000000E+01  1.00800000E+00  1.00800000E+00  1.60000000E+01
  1.00800000E+00  1.00800000E+00  1.60000000E+01  1.00800000E+00  1.00800000E+00
  1.60000000E+01  1.00800000E+00  1.00800000E+00  1.60000000E+01  1.00800000E+00
  1.00800000E+00  1.60000000E+01  1.00800000E+00  1.00800000E+00  1.60000000E+01
  1.00800000E+00  1.00800000E+00  1.60000000E+01  1.00800000E+00  1.00800000E+00
  1.60000000E+01  1.00800000E+00  1.00800000E+00  1.60000000E+01  1.00800000E+00
  1.00800000E+00  1.60000000E+01  1.00800000E+00  1.00800000E+00  1.60000000E+01
  1.00800000E+00  1.00800000E+00  1.60000000E+01  1.00800000E+00  1.00800000E+00
  1.60000000E+01  1.00800000E+00  1.00800000E+00  1.60000000E+01  1.00800000E+00
  1.00800000E+00  1.60000000E+01  1.00800000E+00  1.00800000E+00  1.60000000E+01
  1.00800000E+00  1.00800000E+00  1.60000000E+01  1.00800000E+00  1.00800000E+00
  1.60000000E+01  1.00800000E+00  1.00800000E+00  1.60000000E+01  1.00800000E+00
  1.00800000E+00  1.60000000E+01  1.00800000E+00  1.00800000E+00  1.60000000E+01
  1.00800000E+00  1.00800000E+00  1.60000000E+01  1.00800000E+00  1.00800000E+00
  1.60000000E+01  1.00800000E+00  1.00800000E+00  1.60000000E+01  1.00800000E+00
  1.00800000E+00  1.60000000E+01  1.00800000E+00  1.00800000E+00  1.60000000E+01
  1.00800000E+00  1.00800000E+00  1.60000000E+01  1.00800000E+00  1.00800000E+00
  1.60000000E+01  1.00800000E+00  1.00800000E+00  1.60000000E+01  1.00800000E+00
  1.00800000E+00  1.60000000E+01  1.00800000E+00  1.00800000E+00  1.60000000E+01
  1.00800000E+00  1.00800000E+00  1.60000000E+01  1.00800000E+00  1.00800000E+00
  1.60000000E+01  1.00800000E+00  1.00800000E+00  1.60000000E+01  1.00800000E+00
  1.00800000E+00  1.60000000E+01  1.00800000E+00  1.00800000E+00  1.60000000E+01
  1.00800000E+00  1.00800000E+00  1.60000000E+01  1.00800000E+00  1.00800000E+00
  1.60000000E+01  1.00800000E+00  1.00800000E+00  1.60000000E+01  1.00800000E+00
  1.00800000E+00  1.60000000E+01  1.00800000E+00  1.00800000E+00  1.60000000E+01
  1.00800000E+00  1.00800000E+00  1.60000000E+01  1.00800000E+00  1.00800000E+00
  1.60000000E+01  1.00800000E+00  1.00800000E+00  1.60000000E+01  1.00800000E+00
  1.00800000E+00  1.60000000E+01  1.00800000E+00  1.00800000E+00  1.60000000E+01
  1.00800000E+00  1.00800000E+00  1.60000000E+01  1.00800000E+00  1.00800000E+00
  1.60000000E+01  1.00800000E+00  1.00800000E+00  1.60000000E+01  1.00800000E+00
  1.00800000E+00  1.60000000E+01  1.00800000E+00  1.00800000E+00  1.60000000E+01
  1.00800000E+00  1.00800000E+00  1.60000000E+01  1.00800000E+00  1.00800000E+00
  1.60000000E+01  1.00800000E+00  1.00800000E+00  1.60000000E+01  1.00800000E+00
  1.00800000E+00  1.60000000E+01  1.00800000E+00  1.00800000E+00  1.60000000E+01
  1.00800000E+00  1.00800000E+00  1.60000000E+01  1.00800000E+00  1.00800000E+00
  1.60000000E+01  1.00800000E+00  1.00800000E+00  1.60000000E+01  1.00800000E+00
  1.00800000E+00  1.60000000E+01  1.00800000E+00  1.00800000E+00  1.60000000E+01
  1.00800000E+00  1.00800000E+00  1.60000000E+01  1.00800000E+00  1.00800000E+00
  1.60000000E+01  1.00800000E+00  1.00800000E+00  1.60000000E+01  1.00800000E+00
  1.00800000E+00  1.60000000E+01  1.00800000E+00  1.00800000E+00  1.60000000E+01
  1.00800000E+00  1.00800000E+00  1.60000000E+01  1.00800000E+00  1.00800000E+00
  1.60000000E+01  1.00800000E+00  1.00800000E+00  1.60000000E+01  1.00800000E+00
  1.00800000E+00  1.60000000E+01  1.00800000E+00  1.00800000E+00  1.60000000E+01
  1.00800000E+00  1.00800000E+00  1.60000000E+01  1.00800000E+00  1.00800000E+00
  1.60000000E+01  1.00800000E+00  1.00800000E+00  1.60000000E+01  1.00800000E+00
  1.00800000E+00  1.60000000E+01  1.00800000E+00  1.00800000E+00  1.60000000E+01
  1.00800000E+00  1.00800000E+00  1.60000000E+01  1.00800000E+00  1.00800000E+00
  1.60000000E+01  1.00800000E+00  1.00800000E+00  1.60000000E+01  1.00800000E+00
  1.00800000E+00  1.60000000E+01  1.00800000E+00  1.00800000E+00  1.60000000E+01
  1.00800000E+00  1.00800000E+00  1.60000000E+01  1.00800000E+00  1.00800000E+00
  1.60000000E+01  1.00800000E+00  1.00800000E+00  1.60000000E+01  1.00800000E+00
  1.00800000E+00  1.60000000E+01  1.00800000E+00  1.00800000E+00  1.60000000E+01
  1.00800000E+00  1.00800000E+00  1.60000000E+01  1.00800000E+00  1.00800000E+00
  1.60000000E+01  1.00800000E+00  1.00800000E+00  1.60000000E+01  1.00800000E+00
  1.00800000E+00  1.60000000E+01  1.00800000E+00  1.00800000E+00  1.60000000E+01
  1.00800000E+00  1.00800000E+00  1.60000000E+01  1.00800000E+00  1.00800000E+00
  1.60000000E+01  1.00800000E+00  1.00800000E+00  1.60000000E+01  1.00800000E+00
  1.00800000E+00  1.60000000E+01  1.00800000E+00  1.00800000E+00  1.60000000E+01
  1.00800000E+00  1.00800000E+00  1.60000000E+01  1.00800000E+00  1.00800000E+00
  1.60000000E+01  1.00800000E+00  1.00800000E+00  1.60000000E+01  1.00800000E+00
  1.00800000E+00  1.60000000E+01  1.00800000E+00  1.00800000E+00  1.60000000E+01
  1.00800000E+00  1.00800000E+00  1.60000000E+01  1.00800000E+00  1.00800000E+00
  1.60000000E+01  1.00800000E+00  1.00800000E+00  1.60000000E+01  1.00800000E+00
  1.00800000E+00  1.60000000E+01  1.00800000E+00  1.00800000E+00  1.60000000E+01
  1.00800000E+00  1.00800000E+00  1.60000000E+01  1.00800000E+00  1.00800000E+00
  1.60000000E+01  1.00800000E+00  1.00800000E+00  1.60000000E+01  1.00800000E+00
  1.00800000E+00  1.60000000E+01  1.00800000E+00  1.00800000E+00  1.60000000E+01
  1.00800000E+00  1.00800000E+00  1.60000000E+01  1.00800000E+00  1.00800000E+00
  1.60000000E+01  1.00800000E+00  1.00800000E+00  1.60000000E+01  1.00800000E+00
  1.00800000E+00  1.60000000E+01  1.00800000E+00  1.00800000E+00  1.60000000E+01
  1.00800000E+00  1.00800000E+00  1.60000000E+01  1.00800000E+00  1.00800000E+00
  1.60000000E+01  1.00800000E+00  1.00800000E+00  1.60000000E+01  1.00800000E+00
  1.00800000E+00  1.60000000E+01  1.00800000E+00  1.00800000E+00  1.60000000E+01
  1.00800000E+00  1.00800000E+00  1.60000000E+01  1.00800000E+00  1.00800000E+00
  1.60000000E+01  1.00800000E+00  1.00800000E+00  1.60000000E+01  1.00800000E+00
  1.00800000E+00  1.60000000E+01  1.00800000E+00  1.00800000E+00  1.60000000E+01
  1.00800000E+00  1.00800000E+00  1.60000000E+01  1.00800000E+00  1.00800000E+00
  1.60000000E+01  1.00800000E+00  1.00800000E+00  1.60000000E+01  1.00800000E+00
  1.00800000E+00  1.60000000E+01  1.00800000E+00  1.00800000E+00  1.60000000E+01
  1.00800000E+00  1.00800000E+00  1.60000000E+01  1.00800000E+00  1.00800000E+00
  1.60000000E+01  1.00800000E+00  1.00800000E+00  1.60000000E+01  1.00800000E+00
  1.00800000E+00  1.60000000E+01  1.00800000E+00  1.00800000E+00  1.60000000E+01
  1.00800000E+00  1.00800000E+00  1.60000000E+01  1.00800000E+00  1.00800000E+00
  1.60000000E+01  1.00800000E+00  1.00800000E+00  1.60000000E+01  1.00800000E+00
  1.00800000E+00  1.60000000E+01  1.00800000E+00  1.00800000E+00  1.60000000E+01
  1.00800000E+00  1.00800000E+00  1.60000000E+01  1.00800000E+00  1.00800000E+00
  1.60000000E+01  1.00800000E+00  1.00800000E+00  1.60000000E+01  1.00800000E+00
  1.00800000E+00  1.60000000E+01  1.00800000E+00  1.00800000E+00  1.60000000E+01
  1.00800000E+00  1.00800000E+00  1.60000000E+01  1.00800000E+00  1.00800000E+00
  1.60000000E+01  1.00800000E+00  1.00800000E+00  1.60000000E+01  1.00800000E+00
  1.00800000E+00  1.60000000E+01  1.00800000E+00  1.00800000E+00  1.60000000E+01
  1.00800000E+00  1.00800000E+00  1.60000000E+01  1.00800000E+00  1.00800000E+00
  1.60000000E+01  1.00800000E+00  1.00800000E+00  1.60000000E+01  1.00800000E+00
  1.00800000E+00  1.60000000E+01  1.00800000E+00  1.00800000E+00  1.60000000E+01
  1.00800000E+00  1.00800000E+00  1.60000000E+01  1.00800000E+00  1.00800000E+00
  1.60000000E+01  1.00800000E+00  1.00800000E+00  1.60000000E+01  1.00800000E+00
  1.00800000E+00  1.60000000E+01  1.00800000E+00  1.00800000E+00  1.60000000E+01
  1.00800000E+00  1.00800000E+00  1.60000000E+01  1.00800000E+00  1.00800000E+00
  1.60000000E+01  1.00800000E+00  1.00800000E+00  1.60000000E+01  1.00800000E+00
  1.00800000E+00  1.60000000E+01  1.00800000E+00  1.00800000E+00  1.60000000E+01
  1.00800000E+00  1.00800000E+00  1.60000000E+01  1.00800000E+00  1.00800000E+00
  1.60000000E+01  1.00800000E+00  1.00800000E+00  1.60000000E+01  1.00800000E+00
  1.00800000E+00  1.60000000E+01  1.00800000E+00  1.00800000E+00  1.60000000E+01
  1.00800000E+00  1.00800000E+00  1.60000000E+01  1.00800000E+00  1.00800000E+00
  1.60000000E+01  1.00800000E+00  1.00800000E+00  1.60000000E+01  1.00800000E+00
  1.00800000E+00  1.60000000E+01  1.00800000E+00  1.00800000E+00  1.60000000E+01
  1.00800000E+00  1.00800000E+00  1.60000000E+01  1.00800000E+00  1.00800000E+00
  1.60000000E+01  1.00800000E+00  1.00800000E+00  1.60000000E+01  1.00800000E+00
  1.00800000E+00  1.60000000E+01  1.00800000E+00  1.00800000E+00  1.60000000E+01
  1.00800000E+00  1.00800000E+00  1.60000000E+01  1.00800000E+00  1.00800000E+00
  1.60000000E+01  1.00800000E+00  1.00800000E+00  1.60000000E+01  1.00800000E+00
  1.00800000E+00  1.60000000E+01  1.00800000E+00  1.00800000E+00  1.60000000E+01
  1.00800000E+00  1.00800000E+00  1.60000000E+01  1.00800000E+00  1.00800000E+00
  1.60000000E+01  1.00800000E+00  1.00800000E+00  1.60000000E+01  1.00800000E+00
  1.00800000E+00  1.60000000E+01  1.00800000E+00  1.00800000E+00  1.60000000E+01
  1.00800000E+00  1.00800000E+00  1.60000000E+01  1.00800000E+00  1.00800000E+00
  1.60000000E+01  1.00800000E+00  1.00800000E+00  1.60000000E+01  1.00800000E+00
  1.00800000E+00  1.60000000E+01  1.00800000E+00  1.00800000E+00  1.60000000E+01
  1.00800000E+00  1.00800000E+00  1.60000000E+01  1.00800000E+00  1.00800000E+00
  1.60000000E+01  1.00800000E+00  1.00800000E+00  1.60000000E+01  1.00800000E+00
  1.00800000E+00  1.60000000E+01  1.00800000E+00  1.00800000E+00  1.60000000E+01
  1.00800000E+00  1.00800000E+00  1.60000000E+01  1.00800000E+00  1.00800000E+00
  1.60000000E+01  1.00800000E+00  1.00800000E+00  1.60000000E+01  1.00800000E+00
  1.00800000E+00  1.60000000E+01  1.00800000E+00  1.00800000E+00  1.60000000E+01
  1.00800000E+00  1.00800000E+00  1.60000000E+01  1.00800000E+00  1.00800000E+00
  1.60000000E+01  1.00800000E+00  1.00800000E+00  1.60000000E+01  1.00800000E+00
  1.00800000E+00  1.60000000E+01  1.00800000E+00  1.00800000E+00  1.60000000E+01
  1.00800000E+00  1.00800000E+00  1.60000000E+01  1.00800000E+00  1.00800000E+00
  1.60000000E+01  1.00800000E+00  1.00800000E+00  1.60000000E+01  1.00800000E+00
  1.00800000E+00  1.60000000E+01  1.00800000E+00  1.00800000E+00  1.60000000E+01
  1.00800000E+00  1.00800000E+00  1.60000000E+01  1.00800000E+00  1.00800000E+00
  1.60000000E+01  1.00800000E+00  1.00800000E+00  1.60000000E+01  1.00800000E+00
  1.00800000E+00  1.60000000E+01  1.00800000E+00  1.00800000E+00  1.60000000E+01
  1.00800000E+00  1.00800000E+00  1.60000000E+01  1.00800000E+00  1.00800000E+00
  1.60000000E+01  1.00800000E+00  1.00800000E+00  1.60000000E+01  1.00800000E+00
  1.00800000E+00  1.60000000E+01  1.00800000E+00  1.00800000E+00  1.60000000E+01
  1.00800000E+00  1.00800000E+00  1.60000000E+01  1.00800000E+00  1.00800000E+00
  1.60000000E+01  1.00800000E+00  1.00800000E+00  1.60000000E+01  1.00800000E+00
  1.00800000E+00  1.60000000E+01  1.00800000E+00  1.00800000E+00  1.60000000E+01
  1.00800000E+00  1.00800000E+00  1.60000000E+01  1.00800000E+00  1.00800000E+00
  1.60000000E+01  1.00800000E+00  1.00800000E+00  1.60000000E+01  1.00800000E+00
  1.00800000E+00  1.60000000E+01  1.00800000E+00  1.00800000E+00  1.60000000E+01
  1.00800000E+00  1.00800000E+00  1.60000000E+01  1.00800000E+00  1.00800000E+00
  1.60000000E+01  1.00800000E+00  1.00800000E+00  1.60000000E+01  1.00800000E+00
  1.00800000E+00  1.60000000E+01  1.00800000E+00  1.00800000E+00  1.60000000E+01
  1.00800000E+00  1.00800000E+00  1.60000000E+01  1.00800000E+00  1.00800000E+00
  1.60000000E+01  1.00800000E+00  1.00800000E+00  1.60000000E+01  1.00800000E+00
  1.00800000E+00  1.60000000E+01  1.00800000E+00  1.00800000E+00  1.60000000E+01
  1.00800000E+00  1.00800000E+00  1.60000000E+01  1.00800000E+00  1.00800000E+00
  1.60000000E+01  1.00800000E+00  1.00800000E+00  1.60000000E+01  1.00800000E+00
  1.00800000E+00  1.60000000E+01  1.00800000E+00  1.00800000E+00  1.60000000E+01
  1.00800000E+00  1.00800000E+00  1.60000000E+01  1.00800000E+00  1.00800000E+00
  1.60000000E+01  1.00800000E+00  1.00800000E+00  1.60000000E+01  1.00800000E+00
  1.00800000E+00  1.60000000E+01  1.00800000E+00  1.00800000E+00  1.60000000E+01
  1.00800000E+00  1.00800000E+00  1.60000000E+01  1.00800000E+00  1.00800000E+00
  1.60000000E+01  1.00800000E+00  1.00800000E+00  1.60000000E+01  1.00800000E+00
  1.00800000E+00  1.60000000E+01  1.00800000E+00  1.00800000E+00  1.60000000E+01
  1.00800000E+00  1.00800000E+00  1.60000000E+01  1.00800000E+00  1.00800000E+00
  1.60000000E+01  1.00800000E+00  1.00800000E+00  1.60000000E+01  1.00800000E+00
  1.00800000E+00  1.60000000E+01  1.00800000E+00  1.00800000E+00  1.60000000E+01
  1.00800000E+00  1.00800000E+00  1.60000000E+01  1.00800000E+00  1.00800000E+00
  1.60000000E+01  1.00800000E+00  1.00800000E+00  1.60000000E+01  1.00800000E+00
  1.00800000E+00  1.60000000E+01  1.00800000E+00  1.00800000E+00  1.60000000E+01
  1.00800000E+00  1.00800000E+00  1.60000000E+01  1.00800000E+00  1.00800000E+00
  1.60000000E+01  1.00800000E+00  1.00800000E+00  1.60000000E+01  1.00800000E+00
  1.00800000E+00  1.60000000E+01  1.00800000E+00  1.00800000E+00  1.60000000E+01
  1.00800000E+00  1.00800000E+00  1.60000000E+01  1.00800000E+00  1.00800000E+00
  1.60000000E+01  1.00800000E+00  1.00800000E+00  1.60000000E+01  1.00800000E+00
  1.00800000E+00  1.60000000E+01  1.00800000E+00  1.00800000E+00  1.60000000E+01
  1.00800000E+00  1.00800000E+00  1.60000000E+01  1.00800000E+00  1.00800000E+00
  1.60000000E+01  1.00800000E+00  1.00800000E+00  1.60000000E+01  1.00800000E+00
  1.00800000E+00  1.60000000E+01  1.00800000E+00  1.00800000E+00  1.60000000E+01
  1.00800000E+00  1.00800000E+00  1.60000000E+01  1.00800000E+00  1.00800000E+00
  1.60000000E+01  1.00800000E+00  1.00800000E+00  1.60000000E+01  1.00800000E+00
  1.00800000E+00  1.60000000E+01  1.00800000E+00  1.00800000E+00  1.60000000E+01
  1.00800000E+00  1.00800000E+00  1.60000000E+01  1.00800000E+00  1.00800000E+00
  1.60000000E+01  1.00800000E+00  1.00800000E+00  1.60000000E+01  1.00800000E+00
  1.00800000E+00  1.60000000E+01  1.00800000E+00  1.00800000E+00  1.60000000E+01
  1.00800000E+00  1.00800000E+00  1.60000000E+01  1.00800000E+00  1.00800000E+00
  1.60000000E+01  1.00800000E+00  1.00800000E+00  1.60000000E+01  1.00800000E+00
  1.00800000E+00  1.60000000E+01  1.00800000E+00  1.00800000E+00  1.60000000E+01
  1.00800000E+00  1.00800000E+00  1.60000000E+01  1.00800000E+00  1.00800000E+00
  1.60000000E+01  1.00800000E+00  1.00800000E+00  1.60000000E+01  1.00800000E+00
  1.00800000E+00  1.60000000E+01  1.00800000E+00  1.00800000E+00  1.60000000E+01
  1.00800000E+00  1.00800000E+00  1.60000000E+01  1.00800000E+00  1.00800000E+00
  1.60000000E+01  1.00800000E+00  1.00800000E+00  1.60000000E+01  1.00800000E+00
  1.00800000E+00  1.60000000E+01  1.00800000E+00  1.00800000E+00  1.60000000E+01
  1.00800000E+00  1.00800000E+00  1.60000000E+01  1.00800000E+00  1.00800000E+00
  1.60000000E+01  1.00800000E+00  1.00800000E+00  1.60000000E+01  1.00800000E+00
  1.00800000E+00  1.60000000E+01  1.00800000E+00  1.00800000E+00  1.60000000E+01
  1.00800000E+00  1.00800000E+00  1.60000000E+01  1.00800000E+00  1.00800000E+00
  1.60000000E+01  1.00800000E+00  1.00800000E+00  1.60000000E+01  1.00800000E+00
  1.00800000E+00  1.60000000E+01  1.00800000E+00  1.00800000E+00  1.60000000E+01
  1.00800000E+00  1.00800000E+00  1.60000000E+01  1.00800000E+00  1.00800000E+00
  1.60000000E+01  1.00800000E+00  1.00800000E+00  1.60000000E+01  1.00800000E+00
  1.00800000E+00  1.60000000E+01  1.00800000E+00  1.00800000E+00  1.60000000E+01
  1.00800000E+00  1.00800000E+00  1.60000000E+01  1.00800000E+00  1.00800000E+00
  1.60000000E+01  1.00800000E+00  1.00800000E+00  1.60000000E+01  1.00800000E+00
  1.00800000E+00  1.60000000E+01  1.00800000E+00  1.00800000E+00  1.60000000E+01
  1.00800000E+00  1.00800000E+00  1.60000000E+01  1.00800000E+00  1.00800000E+00
  1.60000000E+01  1.00800000E+00  1.00800000E+00  1.60000000E+01  1.00800000E+00
  1.00800000E+00  1.60000000E+01  1.00800000E+00  1.00800000E+00  1.60000000E+01
  1.00800000E+00  1.00800000E+00  1.60000000E+01  1.00800000E+00  1.00800000E+00
  1.60000000E+01  1.00800000E+00  1.00800000E+00  1.60000000E+01  1.00800000E+00
  1.00800000E+00  1.60000000E+01  1.00800000E+00  1.00800000E+00  1.60000000E+01
  1.00800000E+00  1.00800000E+00  1.60000000E+01  1.00800000E+00  1.00800000E+00
  1.60000000E+01  1.00800000E+00  1.00800000E+00  1.60000000E+01  1.00800000E+00
  1.00800000E+00  1.60000000E+01  1.00800000E+00  1.00800000E+00  1.60000000E+01
  1.00800000E+00  1.00800000E+00  1.60000000E+01  1.00800000E+00  1.00800000E+00
  1.60000000E+01  1.00800000E+00  1.00800000E+00  1.60000000E+01  1.00800000E+00
  1.00800000E+00  1.60000000E+01  1.00800000E+00  1.00800000E+00  1.60000000E+01
  1.00800000E+00  1.00800000E+00  1.60000000E+01  1.00800000E+00  1.00800000E+00
  1.60000000E+01  1.00800000E+00  1.00800000E+00  1.60000000E+01  1.00800000E+00
  1.00800000E+00  1.60000000E+01  1.00800000E+00  1.00800000E+00  1.60000000E+01
  1.00800000E+00  1.00800000E+00  1.60000000E+01  1.00800000E+00  1.00800000E+00
  1.60000000E+01  1.00800000E+00  1.00800000E+00  1.60000000E+01  1.00800000E+00
  1.00800000E+00  1.60000000E+01  1.00800000E+00  1.00800000E+00  1.60000000E+01
  1.00800000E+00  1.00800000E+00  1.60000000E+01  1.00800000E+00  1.00800000E+00
  1.60000000E+01  1.00800000E+00  1.00800000E+00  1.60000000E+01  1.00800000E+00
  1.00800000E+00  1.60000000E+01  1.00800000E+00  1.00800000E+00  1.60000000E+01
  1.00800000E+00  1.00800000E+00  1.60000000E+01  1.00800000E+00  1.00800000E+00
  1.60000000E+01  1.00800000E+00  1.00800000E+00  1.60000000E+01  1.00800000E+00
  1.00800000E+00  1.60000000E+01  1.00800000E+00  1.00800000E+00  1.60000000E+01
  1.00800000E+00  1.00800000E+00  1.60000000E+01  1.00800000E+00  1.00800000E+00
  1.60000000E+01  1.00800000E+00  1.00800000E+00  1.60000000E+01  1.00800000E+00
  1.00800000E+00  1.60000000E+01  1.00800000E+00  1.00800000E+00  1.60000000E+01
  1.00800000E+00  1.00800000E+00  1.60000000E+01  1.00800000E+00  1.00800000E+00
  1.60000000E+01  1.00800000E+00  1.00800000E+00  1.60000000E+01  1.00800000E+00
  1.00800000E+00  1.60000000E+01  1.00800000E+00  1.00800000E+00  1.60000000E+01
  1.00800000E+00  1.00800000E+00  1.60000000E+01  1.00800000E+00  1.00800000E+00
  1.60000000E+01  1.00800000E+00  1.00800000E+00  1.60000000E+01  1.00800000E+00
  1.00800000E+00  1.60000000E+01  1.00800000E+00  1.00800000E+00  1.60000000E+01
  1.00800000E+00  1.00800000E+00  1.60000000E+01  1.00800000E+00  1.00800000E+00
  1.60000000E+01  1.00800000E+00  1.00800000E+00  1.60000000E+01  1.00800000E+00
  1.00800000E+00  1.60000000E+01  1.00800000E+00  1.00800000E+00  1.60000000E+01
  1.00800000E+00  1.00800000E+00  1.60000000E+01  1.00800000E+00  1.00800000E+00
  1.60000000E+01  1.00800000E+00  1.00800000E+00  1.60000000E+01  1.00800000E+00
  1.00800000E+00  1.60000000E+01  1.00800000E+00  1.00800000E+00  1.60000000E+01
  1.00800000E+00  1.00800000E+00  1.60000000E+01  1.00800000E+00  1.00800000E+00
  1.60000000E+01  1.00800000E+00  1.00800000E+00  1.60000000E+01  1.00800000E+00
  1.00800000E+00  1.60000000E+01  1.00800000E+00  1.00800000E+00  1.60000000E+01
  1.00800000E+00  1.00800000E+00  1.60000000E+01  1.00800000E+00  1.00800000E+00
  1.60000000E+01  1.00800000E+00  1.00800000E+00  1.60000000E+01  1.00800000E+00
  1.00800000E+00  1.60000000E+01  1.00800000E+00  1.00800000E+00  1.60000000E+01
  1.00800000E+00  1.00800000E+00  1.60000000E+01  1.00800000E+00  1.00800000E+00
  1.60000000E+01  1.00800000E+00  1.00800000E+00  1.60000000E+01  1.00800000E+00
  1.00800000E+00  1.60000000E+01  1.00800000E+00  1.00800000E+00  1.60000000E+01
  1.00800000E+00  1.00800000E+00  1.60000000E+01  1.00800000E+00  1.00800000E+00
  1.60000000E+01  1.00800000E+00  1.00800000E+00  1.60000000E+01  1.00800000E+00
  1.00800000E+00  1.60000000E+01  1.00800000E+00  1.00800000E+00  1.60000000E+01
  1.00800000E+00  1.00800000E+00  1.60000000E+01  1.00800000E+00  1.00800000E+00
  1.60000000E+01  1.00800000E+00  1.00800000E+00  1.60000000E+01  1.00800000E+00
  1.00800000E+00  1.60000000E+01  1.00800000E+00  1.00800000E+00  1.60000000E+01
  1.00800000E+00  1.00800000E+00  1.60000000E+01  1.00800000E+00  1.00800000E+00
  1.60000000E+01  1.00800000E+00  1.00800000E+00  1.60000000E+01  1.00800000E+00
  1.00800000E+00  1.60000000E+01  1.00800000E+00  1.00800000E+00  1.60000000E+01
  1.00800000E+00  1.00800000E+00  1.60000000E+01  1.00800000E+00  1.00800000E+00
  1.60000000E+01  1.00800000E+00  1.00800000E+00  1.60000000E+01  1.00800000E+00
  1.00800000E+00  1.60000000E+01  1.00800000E+00  1.00800000E+00  1.60000000E+01
  1.00800000E+00  1.00800000E+00  1.60000000E+01  1.00800000E+00  1.00800000E+00
  1.60000000E+01  1.00800000E+00  1.00800000E+00  1.60000000E+01  1.00800000E+00
  1.00800000E+00  1.60000000E+01  1.00800000E+00  1.00800000E+00  1.60000000E+01
  1.00800000E+00  1.00800000E+00  1.60000000E+01  1.00800000E+00  1.00800000E+00
  1.60000000E+01  1.00800000E+00  1.00800000E+00  1.60000000E+01  1.00800000E+00
  1.00800000E+00  1.60000000E+01  1.00800000E+00  1.00800000E+00  1.60000000E+01
  1.00800000E+00  1.00800000E+00  1.60000000E+01  1.00800000E+00  1.00800000E+00
  1.60000000E+01  1.00800000E+00  1.00800000E+00  1.60000000E+01  1.00800000E+00
  1.00800000E+00  1.60000000E+01  1.00800000E+00  1.00800000E+00  1.60000000E+01
  1.00800000E+00  1.00800000E+00  1.60000000E+01  1.00800000E+00  1.00800000E+00
  1.60000000E+01  1.00800000E+00  1.00800000E+00  1.60000000E+01  1.00800000E+00
  1.00800000E+00  1.60000000E+01  1.00800000E+00  1.00800000E+00  1.60000000E+01
  1.00800000E+00  1.00800000E+00  1.60000000E+01  1.00800000E+00  1.00800000E+00
  1.60000000E+01  1.00800000E+00  1.00800000E+00  1.60000000E+01  1.00800000E+00
  1.00800000E+00  1.60000000E+01  1.00800000E+00  1.00800000E+00  1.60000000E+01
  1.00800000E+00  1.00800000E+00  1.60000000E+01  1.00800000E+00  1.00800000E+00
  1.60000000E+01  1.00800000E+00  1.00800000E+00  1.60000000E+01  1.00800000E+00
  1.00800000E+00  1.60000000E+01  1.00800000E+00  1.00800000E+00  1.60000000E+01
  1.00800000E+00  1.00800000E+00  1.60000000E+01  1.00800000E+00  1.00800000E+00
  1.60000000E+01  1.00800000E+00  1.00800000E+00  1.60000000E+01  1.00800000E+00
  1.00800000E+00  1.60000000E+01  1.00800000E+00  1.00800000E+00  1.60000000E+01
  1.00800000E+00  1.00800000E+00  1.60000000E+01  1.00800000E+00  1.00800000E+00
  1.60000000E+01  1.00800000E+00  1.00800000E+00  1.60000000E+01  1.00800000E+00
  1.00800000E+00  1.60000000E+01  1.00800000E+00  1.00800000E+00  1.60000000E+01
  1.00800000E+00  1.00800000E+00  1.60000000E+01  1.00800000E+00  1.00800000E+00
  1.60000000E+01  1.00800000E+00  1.00800000E+00  1.60000000E+01  1.00800000E+00
  1.00800000E+00  1.60000000E+01  1.00800000E+00  1.00800000E+00  1.60000000E+01
  1.00800000E+00  1.00800000E+00  1.60000000E+01  1.00800000E+00  1.00800000E+00
  1.60000000E+01  1.00800000E+00  1.00800000E+00  1.60000000E+01  1.00800000E+00
  1.00800000E+00  1.60000000E+01  1.00800000E+00  1.00800000E+00  1.60000000E+01
  1.00800000E+00  1.00800000E+00  1.60000000E+01  1.00800000E+00  1.00800000E+00
  1.60000000E+01  1.00800000E+00  1.00800000E+00  1.60000000E+01  1.00800000E+00
  1.00800000E+00  1.60000000E+01  1.00800000E+00  1.00800000E+00  1.60000000E+01
  1.00800000E+00  1.00800000E+00  1.60000000E+01  1.00800000E+00  1.00800000E+00
  1.60000000E+01  1.00800000E+00  1.00800000E+00  1.60000000E+01  1.00800000E+00
  1.00800000E+00  1.60000000E+01  1.00800000E+00  1.00800000E+00  1.60000000E+01
  1.00800000E+00  1.00800000E+00  1.60000000E+01  1.00800000E+00  1.00800000E+00
  1.60000000E+01  1.00800000E+00  1.00800000E+00  1.60000000E+01  1.00800000E+00
  1.00800000E+00  1.60000000E+01  1.00800000E+00  1.00800000E+00  1.60000000E+01
  1.00800000E+00  1.00800000E+00  1.60000000E+01  1.00800000E+00  1.00800000E+00
  1.60000000E+01  1.00800000E+00  1.00800000E+00  1.60000000E+01  1.00800000E+00
  1.00800000E+00  1.60000000E+01  1.00800000E+00  1.00800000E+00  1.60000000E+01
  1.00800000E+00  1.00800000E+00  1.60000000E+01  1.00800000E+00  1.00800000E+00
  1.60000000E+01  1.00800000E+00  1.00800000E+00  1.60000000E+01  1.00800000E+00
  1.00800000E+00  1.60000000E+01  1.00800000E+00  1.00800000E+00  1.60000000E+01
  1.00800000E+00  1.00800000E+00  1.60000000E+01  1.00800000E+00  1.00800000E+00
  1.60000000E+01  1.00800000E+00  1.00800000E+00  1.60000000E+01  1.00800000E+00
  1.00800000E+00  1.60000000E+01  1.00800000E+00  1.00800000E+00  1.60000000E+01
  1.00800000E+00  1.00800000E+00  1.60000000E+01  1.00800000E+00  1.00800000E+00
  1.60000000E+01  1.00800000E+00  1.00800000E+00  1.60000000E+01  1.00800000E+00
  1.00800000E+00  1.60000000E+01  1.00800000E+00  1.00800000E+00  1.60000000E+01
  1.00800000E+00  1.00800000E+00  1.60000000E+01  1.00800000E+00  1.00800000E+00
  1.60000000E+01  1.00800000E+00  1.00800000E+00  1.60000000E+01  1.00800000E+00
  1.00800000E+00  1.60000000E+01  1.00800000E+00  1.00800000E+00  1.60000000E+01
  1.00800000E+00  1.00800000E+00  1.60000000E+01  1.00800000E+00  1.00800000E+00
  1.60000000E+01  1.00800000E+00  1.00800000E+00  1.60000000E+01  1.00800000E+00
  1.00800000E+00  1.60000000E+01  1.00800000E+00  1.00800000E+00  1.60000000E+01
  1.00800000E+00  1.00800000E+00  1.60000000E+01  1.00800000E+00  1.00800000E+00
  1.60000000E+01  1.00800000E+00  1.00800000E+00  1.60000000E+01  1.00800000E+00
  1.00800000E+00  1.60000000E+01  1.00800000E+00  1.00800000E+00  1.60000000E+01
  1.00800000E+00  1.00800000E+00  1.60000000E+01  1.00800000E+00  1.00800000E+00
  1.60000000E+01  1.00800000E+00  1.00800000E+00  1.60000000E+01  1.00800000E+00
  1.00800000E+00  1.60000000E+01  1.00800000E+00  1.00800000E+00  1.60000000E+01
  1.00800000E+00  1.00800000E+00  1.60000000E+01  1.00800000E+00  1.00800000E+00
  1.60000000E+01  1.00800000E+00  1.00800000E+00  1.60000000E+01  1.00800000E+00
  1.00800000E+00  1.60000000E+01  1.00800000E+00  1.00800000E+00  1.60000000E+01
  1.00800000E+00  1.00800000E+00  1.60000000E+01  1.00800000E+00  1.00800000E+00
  1.60000000E+01  1.00800000E+00  1.00800000E+00  1.60000000E+01  1.00800000E+00
  1.00800000E+00  1.60000000E+01  1.00800000E+00  1.00800000E+00  1.60000000E+01
  1.00800000E+00  1.00800000E+00  1.60000000E+01  1.00800000E+00  1.00800000E+00
  1.60000000E+01  1.00800000E+00  1.00800000E+00  1.60000000E+01  1.00800000E+00
  1.00800000E+00  1.60000000E+01  1.00800000E+00  1.00800000E+00  1.60000000E+01
  1.00800000E+00  1.00800000E+00  1.60000000E+01  1.00800000E+00  1.00800000E+00
  1.60000000E+01  1.00800000E+00  1.00800000E+00  1.60000000E+01  1.00800000E+00
  1.00800000E+00  1.60000000E+01  1.00800000E+00  1.00800000E+00  1.60000000E+01
  1.00800000E+00  1.00800000E+00  1.60000000E+01  1.00800000E+00  1.00800000E+00
  1.60000000E+01  1.00800000E+00  1.00800000E+00  1.60000000E+01  1.00800000E+00
  1.00800000E+00  1.60000000E+01  1.00800000E+00  1.00800000E+00  1.60000000E+01
  1.00800000E+00  1.00800000E+00  1.60000000E+01  1.00800000E+00  1.00800000E+00
  1.60000000E+01  1.00800000E+00  1.00800000E+00  1.60000000E+01  1.00800000E+00
  1.00800000E+00  1.60000000E+01  1.00800000E+00  1.00800000E+00  1.60000000E+01
  1.00800000E+00  1.00800000E+00  1.60000000E+01  1.00800000E+00  1.00800000E+00
  1.60000000E+01  1.00800000E+00  1.00800000E+00  1.60000000E+01  1.00800000E+00
  1.00800000E+00  1.60000000E+01  1.00800000E+00  1.00800000E+00  1.60000000E+01
  1.00800000E+00  1.00800000E+00  1.60000000E+01  1.00800000E+00  1.00800000E+00
  1.60000000E+01  1.00800000E+00  1.00800000E+00  1.60000000E+01  1.00800000E+00
  1.00800000E+00  1.60000000E+01  1.00800000E+00  1.00800000E+00  1.60000000E+01
  1.00800000E+00  1.00800000E+00  1.60000000E+01  1.00800000E+00  1.00800000E+00
  1.60000000E+01  1.00800000E+00  1.00800000E+00  1.60000000E+01  1.00800000E+00
  1.00800000E+00  1.60000000E+01  1.00800000E+00  1.00800000E+00  1.60000000E+01
  1.00800000E+00  1.00800000E+00  1.60000000E+01  1.00800000E+00  1.00800000E+00
  1.60000000E+01  1.00800000E+00  1.00800000E+00  1.60000000E+01  1.00800000E+00
  1.00800000E+00  1.60000000E+01  1.00800000E+00  1.00800000E+00  1.60000000E+01
  1.00800000E+00  1.00800000E+00  1.60000000E+01  1.00800000E+00  1.00800000E+00
  1.60000000E+01  1.00800000E+00  1.00800000E+00  1.60000000E+01  1.00800000E+00
  1.00800000E+00  1.60000000E+01  1.00800000E+00  1.00800000E+00  1.60000000E+01
  1.00800000E+00  1.00800000E+00  1.60000000E+01  1.00800000E+00  1.00800000E+00
  1.60000000E+01  1.00800000E+00  1.00800000E+00  1.60000000E+01  1.00800000E+00
  1.00800000E+00  1.60000000E+01  1.00800000E+00  1.00800000E+00  1.60000000E+01
  1.00800000E+00  1.00800000E+00  1.60000000E+01  1.00800000E+00  1.00800000E+00
  1.60000000E+01  1.00800000E+00  1.00800000E+00  1.60000000E+01  1.00800000E+00
  1.00800000E+00  1.60000000E+01  1.00800000E+00  1.00800000E+00  1.60000000E+01
  1.00800000E+00  1.00800000E+00  1.60000000E+01  1.00800000E+00  1.00800000E+00
  1.60000000E+01  1.00800000E+00  1.00800000E+00  1.60000000E+01  1.00800000E+00
  1.00800000E+00  1.60000000E+01  1.00800000E+00  1.00800000E+00  1.60000000E+01
  1.00800000E+00  1.00800000E+00  1.60000000E+01  1.00800000E+00  1.00800000E+00
  1.60000000E+01  1.00800000E+00  1.00800000E+00  1.60000000E+01  1.00800000E+00
  1.00800000E+00  1.60000000E+01  1.00800000E+00  1.00800000E+00  1.60000000E+01
  1.00800000E+00  1.00800000E+00  1.60000000E+01  1.00800000E+00  1.00800000E+00
  1.60000000E+01  1.00800000E+00  1.00800000E+00  1.60000000E+01  1.00800000E+00
  1.00800000E+00  1.60000000E+01  1.00800000E+00  1.00800000E+00  1.60000000E+01
  1.00800000E+00  1.00800000E+00  1.60000000E+01  1.00800000E+00  1.00800000E+00
  1.60000000E+01  1.00800000E+00  1.00800000E+00  1.60000000E+01  1.00800000E+00
  1.00800000E+00  1.60000000E+01  1.00800000E+00  1.00800000E+00  1.60000000E+01
  1.00800000E+00  1.00800000E+00  1.60000000E+01  1.00800000E+00  1.00800000E+00
  1.60000000E+01  1.00800000E+00  1.00800000E+00  1.60000000E+01  1.00800000E+00
  1.00800000E+00  1.60000000E+01  1.00800000E+00  1.00800000E+00  1.60000000E+01
  1.00800000E+00  1.00800000E+00  1.60000000E+01  1.00800000E+00  1.00800000E+00
  1.60000000E+01  1.00800000E+00  1.00800000E+00  1.60000000E+01  1.00800000E+00
  1.00800000E+00  1.60000000E+01  1.00800000E+00  1.00800000E+00  1.60000000E+01
  1.00800000E+00  1.00800000E+00  1.60000000E+01  1.00800000E+00  1.00800000E+00
  1.60000000E+01  1.00800000E+00  1.00800000E+00  1.60000000E+01  1.00800000E+00
  1.00800000E+00  1.60000000E+01  1.00800000E+00  1.00800000E+00  1.60000000E+01
  1.00800000E+00  1.00800000E+00  1.60000000E+01  1.00800000E+00  1.00800000E+00
  1.60000000E+01  1.00800000E+00  1.00800000E+00  1.60000000E+01  1.00800000E+00
  1.00800000E+00  1.60000000E+01  1.00800000E+00  1.00800000E+00  1.60000000E+01
  1.00800000E+00  1.00800000E+00  1.60000000E+01  1.00800000E+00  1.00800000E+00
  1.60000000E+01  1.00800000E+00  1.00800000E+00  1.60000000E+01  1.00800000E+00
  1.00800000E+00  1.60000000E+01  1.00800000E+00  1.00800000E+00  1.60000000E+01
  1.00800000E+00  1.00800000E+00  1.60000000E+01  1.00800000E+00  1.00800000E+00
  1.60000000E+01  1.00800000E+00  1.00800000E+00  1.60000000E+01  1.00800000E+00
  1.00800000E+00  1.60000000E+01  1.00800000E+00  1.00800000E+00  1.60000000E+01
  1.00800000E+00  1.00800000E+00  1.60000000E+01  1.00800000E+00  1.00800000E+00
  1.60000000E+01  1.00800000E+00  1.00800000E+00  1.60000000E+01  1.00800000E+00
  1.00800000E+00  1.60000000E+01  1.00800000E+00  1.00800000E+00  1.60000000E+01
  1.00800000E+00  1.00800000E+00  1.60000000E+01  1.00800000E+00  1.00800000E+00
  1.60000000E+01  1.00800000E+00  1.00800000E+00  1.60000000E+01  1.00800000E+00
  1.00800000E+00  1.60000000E+01  1.00800000E+00  1.00800000E+00  1.60000000E+01
  1.00800000E+00  1.00800000E+00  1.60000000E+01  1.00800000E+00  1.00800000E+00
  1.60000000E+01  1.00800000E+00  1.00800000E+00  1.60000000E+01  1.00800000E+00
  1.00800000E+00  1.60000000E+01  1.00800000E+00  1.00800000E+00  1.60000000E+01
  1.00800000E+00  1.00800000E+00  1.60000000E+01  1.00800000E+00  1.00800000E+00
  1.60000000E+01  1.00800000E+00  1.00800000E+00  1.60000000E+01  1.00800000E+00
  1.00800000E+00  1.60000000E+01  1.00800000E+00  1.00800000E+00  1.60000000E+01
  1.00800000E+00  1.00800000E+00  1.60000000E+01  1.00800000E+00  1.00800000E+00
  1.60000000E+01  1.00800000E+00  1.00800000E+00  1.60000000E+01  1.00800000E+00
  1.00800000E+00  1.60000000E+01  1.00800000E+00  1.00800000E+00  1.60000000E+01
  1.00800000E+00  1.00800000E+00  1.60000000E+01  1.00800000E+00  1.00800000E+00
  1.60000000E+01  1.00800000E+00  1.00800000E+00  1.60000000E+01  1.00800000E+00
  1.00800000E+00  1.60000000E+01  1.00800000E+00  1.00800000E+00  1.60000000E+01
  1.00800000E+00  1.00800000E+00  1.60000000E+01  1.00800000E+00  1.00800000E+00
  1.60000000E+01  1.00800000E+00  1.00800000E+00  1.60000000E+01  1.00800000E+00
  1.00800000E+00  1.60000000E+01  1.00800000E+00  1.00800000E+00  1.60000000E+01
  1.00800000E+00  1.00800000E+00  1.60000000E+01  1.00800000E+00  1.00800000E+00
  1.60000000E+01  1.00800000E+00  1.00800000E+00  1.60000000E+01  1.00800000E+00
  1.00800000E+00  1.60000000E+01  1.00800000E+00  1.00800000E+00  1.60000000E+01
  1.00800000E+00  1.00800000E+00  1.60000000E+01  1.00800000E+00  1.00800000E+00
  1.60000000E+01  1.00800000E+00  1.00800000E+00  1.60000000E+01  1.00800000E+00
  1.00800000E+00  1.60000000E+01  1.00800000E+00  1.00800000E+00  1.60000000E+01
  1.00800000E+00  1.00800000E+00  1.60000000E+01  1.00800000E+00  1.00800000E+00
  1.60000000E+01  1.00800000E+00  1.00800000E+00  1.60000000E+01  1.00800000E+00
  1.00800000E+00  1.60000000E+01  1.00800000E+00  1.00800000E+00  1.60000000E+01
  1.00800000E+00  1.00800000E+00  1.60000000E+01  1.00800000E+00  1.00800000E+00
  1.60000000E+01  1.00800000E+00  1.00800000E+00  1.60000000E+01  1.00800000E+00
  1.00800000E+00  1.60000000E+01  1.00800000E+00  1.00800000E+00  1.60000000E+01
  1.00800000E+00  1.00800000E+00  1.60000000E+01  1.00800000E+00  1.00800000E+00
  1.60000000E+01  1.00800000E+00  1.00800000E+00  1.60000000E+01  1.00800000E+00
  1.00800000E+00  1.60000000E+01  1.00800000E+00  1.00800000E+00  1.60000000E+01
  1.00800000E+00  1.00800000E+00  1.60000000E+01  1.00800000E+00  1.00800000E+00
  1.60000000E+01  1.00800000E+00  1.00800000E+00  1.60000000E+01  1.00800000E+00
  1.00800000E+00  1.60000000E+01  1.00800000E+00  1.00800000E+00  1.60000000E+01
  1.00800000E+00  1.00800000E+00  1.60000000E+01  1.00800000E+00  1.00800000E+00
  1.60000000E+01  1.00800000E+00  1.00800000E+00  1.60000000E+01  1.00800000E+00
  1.00800000E+00  1.60000000E+01  1.00800000E+00  1.00800000E+00  1.60000000E+01
  1.00800000E+00  1.00800000E+00  1.60000000E+01  1.00800000E+00  1.00800000E+00
  1.60000000E+01  1.00800000E+00  1.00800000E+00  1.60000000E+01  1.00800000E+00
  1.00800000E+00  1.60000000E+01  1.00800000E+00  1.00800000E+00  1.60000000E+01
  1.00800000E+00  1.00800000E+00  1.60000000E+01  1.00800000E+00  1.00800000E+00
  1.60000000E+01  1.00800000E+00  1.00800000E+00  1.60000000E+01  1.00800000E+00
  1.00800000E+00  1.60000000E+01  1.00800000E+00  1.00800000E+00  1.60000000E+01
  1.00800000E+00  1.00800000E+00  1.60000000E+01  1.00800000E+00  1.00800000E+00
  1.60000000E+01  1.00800000E+00  1.00800000E+00  1.60000000E+01  1.00800000E+00
  1.00800000E+00  1.60000000E+01  1.00800000E+00  1.00800000E+00  1.60000000E+01
  1.00800000E+00  1.00800000E+00  1.60000000E+01  1.00800000E+00  1.00800000E+00
  1.60000000E+01  1.00800000E+00  1.00800000E+00  1.60000000E+01  1.00800000E+00
  1.00800000E+00  1.60000000E+01  1.00800000E+00  1.00800000E+00  1.60000000E+01
  1.00800000E+00  1.00800000E+00  1.60000000E+01  1.00800000E+00  1.00800000E+00
  1.60000000E+01  1.00800000E+00  1.00800000E+00  1.60000000E+01  1.00800000E+00
  1.00800000E+00  1.60000000E+01  1.00800000E+00  1.00800000E+00  1.60000000E+01
  1.00800000E+00  1.00800000E+00  1.60000000E+01  1.00800000E+00  1.00800000E+00
  1.60000000E+01  1.00800000E+00  1.00800000E+00  1.60000000E+01  1.00800000E+00
  1.00800000E+00  1.60000000E+01  1.00800000E+00  1.00800000E+00  1.60000000E+01
  1.00800000E+00  1.00800000E+00  1.60000000E+01  1.00800000E+00  1.00800000E+00
  1.60000000E+01  1.00800000E+00  1.00800000E+00  1.60000000E+01  1.00800000E+00
  1.00800000E+00  1.60000000E+01  1.00800000E+00  1.00800000E+00  1.60000000E+01
  1.00800000E+00  1.00800000E+00  1.60000000E+01  1.00800000E+00  1.00800000E+00
  1.60000000E+01  1.00800000E+00  1.00800000E+00  1.60000000E+01  1.00800000E+00
  1.00800000E+00  1.60000000E+01  1.00800000E+00  1.00800000E+00  1.60000000E+01
  1.00800000E+00  1.00800000E+00  1.60000000E+01  1.00800000E+00  1.00800000E+00
  1.60000000E+01  1.00800000E+00  1.00800000E+00  1.60000000E+01  1.00800000E+00
  1.00800000E+00  1.60000000E+01  1.00800000E+00  1.00800000E+00  1.60000000E+01
  1.00800000E+00  1.00800000E+00  1.60000000E+01  1.00800000E+00  1.00800000E+00
  1.60000000E+01  1.00800000E+00  1.00800000E+00  1.60000000E+01  1.00800000E+00
  1.00800000E+00  1.60000000E+01  1.00800000E+00  1.00800000E+00  1.60000000E+01
  1.00800000E+00  1.00800000E+00  1.60000000E+01  1.00800000E+00  1.00800000E+00
  1.60000000E+01  1.00800000E+00  1.00800000E+00  1.60000000E+01  1.00800000E+00
  1.00800000E+00  1.60000000E+01  1.00800000E+00  1.00800000E+00  1.60000000E+01
  1.00800000E+00  1.00800000E+00  1.60000000E+01  1.00800000E+00  1.00800000E+00
  1.60000000E+01  1.00800000E+00  1.00800000E+00  1.60000000E+01  1.00800000E+00
  1.00800000E+00  1.60000000E+01  1.00800000E+00  1.00800000E+00  1.60000000E+01
  1.00800000E+00  1.00800000E+00  1.60000000E+01  1.00800000E+00  1.00800000E+00
  1.60000000E+01  1.00800000E+00  1.00800000E+00  1.60000000E+01  1.00800000E+00
  1.00800000E+00  1.60000000E+01  1.00800000E+00  1.00800000E+00  1.60000000E+01
  1.00800000E+00  1.00800000E+00  1.60000000E+01  1.00800000E+00  1.00800000E+00
  1.60000000E+01  1.00800000E+00  1.00800000E+00  1.60000000E+01  1.00800000E+00
  1.00800000E+00  1.60000000E+01  1.00800000E+00  1.00800000E+00  1.60000000E+01
  1.00800000E+00  1.00800000E+00  1.60000000E+01  1.00800000E+00  1.00800000E+00
  1.60000000E+01  1.00800000E+00  1.00800000E+00  1.60000000E+01  1.00800000E+00
  1.00800000E+00  1.60000000E+01  1.00800000E+00  1.00800000E+00  1.60000000E+01
  1.00800000E+00  1.00800000E+00  1.60000000E+01  1.00800000E+00  1.00800000E+00
  1.60000000E+01  1.00800000E+00  1.00800000E+00  1.60000000E+01  1.00800000E+00
  1.00800000E+00  1.60000000E+01  1.00800000E+00  1.00800000E+00  1.60000000E+01
  1.00800000E+00  1.00800000E+00  1.60000000E+01  1.00800000E+00  1.00800000E+00
  1.60000000E+01  1.00800000E+00  1.00800000E+00  1.60000000E+01  1.00800000E+00
  1.00800000E+00  1.60000000E+01  1.00800000E+00  1.00800000E+00  1.60000000E+01
  1.00800000E+00  1.00800000E+00  1.60000000E+01  1.00800000E+00  1.00800000E+00
  1.60000000E+01  1.00800000E+00  1.00800000E+00  1.60000000E+01  1.00800000E+00
  1.00800000E+00  1.60000000E+01  1.00800000E+00  1.00800000E+00  1.60000000E+01
  1.00800000E+00  1.00800000E+00  1.60000000E+01  1.00800000E+00  1.00800000E+00
  1.60000000E+01  1.00800000E+00  1.00800000E+00  1.60000000E+01  1.00800000E+00
  1.00800000E+00  1.60000000E+01  1.00800000E+00  1.00800000E+00  1.60000000E+01
  1.00800000E+00  1.00800000E+00  1.60000000E+01  1.00800000E+00  1.00800000E+00
  1.60000000E+01  1.00800000E+00  1.00800000E+00  1.60000000E+01  1.00800000E+00
  1.00800000E+00  1.60000000E+01  1.00800000E+00  1.00800000E+00  1.60000000E+01
  1.00800000E+00  1.00800000E+00  1.60000000E+01  1.00800000E+00  1.00800000E+00
  1.60000000E+01  1.00800000E+00  1.00800000E+00  1.60000000E+01  1.00800000E+00
  1.00800000E+00  1.60000000E+01  1.00800000E+00  1.00800000E+00  1.60000000E+01
  1.00800000E+00  1.00800000E+00  1.60000000E+01  1.00800000E+00  1.00800000E+00
  1.60000000E+01  1.00800000E+00  1.00800000E+00  1.60000000E+01  1.00800000E+00
  1.00800000E+00  1.60000000E+01  1.00800000E+00  1.00800000E+00  1.60000000E+01
  1.00800000E+00  1.00800000E+00  1.60000000E+01  1.00800000E+00  1.00800000E+00
  1.60000000E+01  1.00800000E+00  1.00800000E+00  1.60000000E+01  1.00800000E+00
  1.00800000E+00  1.60000000E+01  1.00800000E+00  1.00800000E+00  1.60000000E+01
  1.00800000E+00  1.00800000E+00  1.60000000E+01  1.00800000E+00  1.00800000E+00
  1.60000000E+01  1.00800000E+00  1.00800000E+00  1.60000000E+01  1.00800000E+00
  1.00800000E+00  1.60000000E+01  1.00800000E+00  1.00800000E+00  1.60000000E+01
  1.00800000E+00  1.00800000E+00  1.60000000E+01  1.00800000E+00  1.00800000E+00
  1.60000000E+01  1.00800000E+00  1.00800000E+00  1.60000000E+01  1.00800000E+00
  1.00800000E+00  1.60000000E+01  1.00800000E+00  1.00800000E+00  1.60000000E+01
  1.00800000E+00  1.00800000E+00  1.60000000E+01  1.00800000E+00  1.00800000E+00
  1.60000000E+01  1.00800000E+00  1.00800000E+00  1.60000000E+01  1.00800000E+00
  1.00800000E+00  1.60000000E+01  1.00800000E+00  1.00800000E+00  1.60000000E+01
  1.00800000E+00  1.00800000E+00  1.60000000E+01  1.00800000E+00  1.00800000E+00
  1.60000000E+01  1.00800000E+00  1.00800000E+00  1.60000000E+01  1.00800000E+00
  1.00800000E+00  1.60000000E+01  1.00800000E+00  1.00800000E+00  1.60000000E+01
  1.00800000E+00  1.00800000E+00  1.60000000E+01  1.00800000E+00  1.00800000E+00
  1.60000000E+01  1.00800000E+00  1.00800000E+00  1.60000000E+01  1.00800000E+00
  1.00800000E+00  1.60000000E+01  1.00800000E+00  1.00800000E+00  1.60000000E+01
  1.00800000E+00  1.00800000E+00  1.60000000E+01  1.00800000E+00  1.00800000E+00
  1.60000000E+01  1.00800000E+00  1.00800000E+00  1.60000000E+01  1.00800000E+00
  1.00800000E+00  1.60000000E+01  1.00800000E+00  1.00800000E+00  1.60000000E+01
  1.00800000E+00  1.00800000E+00  1.60000000E+01  1.00800000E+00  1.00800000E+00
  1.60000000E+01  1.00800000E+00  1.00800000E+00  1.60000000E+01  1.00800000E+00
  1.00800000E+00  1.60000000E+01  1.00800000E+00  1.00800000E+00  1.60000000E+01
  1.00800000E+00  1.00800000E+00  1.60000000E+01  1.00800000E+00  1.00800000E+00
  1.60000000E+01  1.00800000E+00  1.00800000E+00  1.60000000E+01  1.00800000E+00
  1.00800000E+00  1.60000000E+01  1.00800000E+00  1.00800000E+00  1.60000000E+01
  1.00800000E+00  1.00800000E+00  1.60000000E+01  1.00800000E+00  1.00800000E+00
  1.60000000E+01  1.00800000E+00  1.00800000E+00  1.60000000E+01  1.00800000E+00
  1.00800000E+00  1.60000000E+01  1.00800000E+00  1.00800000E+00  1.60000000E+01
  1.00800000E+00  1.00800000E+00  1.60000000E+01  1.00800000E+00  1.00800000E+00
  1.60000000E+01  1.00800000E+00  1.00800000E+00  1.60000000E+01  1.00800000E+00
  1.00800000E+00  1.60000000E+01  1.00800000E+00  1.00800000E+00  1.60000000E+01
  1.00800000E+00  1.00800000E+00  1.60000000E+01  1.00800000E+00  1.00800000E+00
  1.60000000E+01  1.00800000E+00  1.00800000E+00  1.60000000E+01  1.00800000E+00
  1.00800000E+00  1.60000000E+01  1.00800000E+00  1.00800000E+00  1.60000000E+01
  1.00800000E+00  1.00800000E+00  1.60000000E+01  1.00800000E+00  1.00800000E+00
  1.60000000E+01  1.00800000E+00  1.00800000E+00  1.60000000E+01  1.00800000E+00
  1.00800000E+00  1.60000000E+01  1.00800000E+00  1.00800000E+00  1.60000000E+01
  1.00800000E+00  1.00800000E+00  1.60000000E+01  1.00800000E+00  1.00800000E+00
  1.60000000E+01  1.00800000E+00  1.00800000E+00  1.60000000E+01  1.00800000E+00
  1.00800000E+00  1.60000000E+01  1.00800000E+00  1.00800000E+00  1.60000000E+01
  1.00800000E+00  1.00800000E+00  1.60000000E+01  1.00800000E+00  1.00800000E+00
  1.60000000E+01  1.00800000E+00  1.00800000E+00  1.60000000E+01  1.00800000E+00
  1.00800000E+00  1.60000000E+01  1.00800000E+00  1.00800000E+00  1.60000000E+01
  1.00800000E+00  1.00800000E+00  1.60000000E+01  1.00800000E+00  1.00800000E+00
  1.60000000E+01  1.00800000E+00  1.00800000E+00  1.60000000E+01  1.00800000E+00
  1.00800000E+00  1.60000000E+01  1.00800000E+00  1.00800000E+00  1.60000000E+01
  1.00800000E+00  1.00800000E+00  1.60000000E+01  1.00800000E+00  1.00800000E+00
  1.60000000E+01  1.00800000E+00  1.00800000E+00  1.60000000E+01  1.00800000E+00
  1.00800000E+00  1.60000000E+01  1.00800000E+00  1.00800000E+00  1.60000000E+01
  1.00800000E+00  1.00800000E+00  1.60000000E+01  1.00800000E+00  1.00800000E+00
  1.60000000E+01  1.00800000E+00  1.00800000E+00  1.60000000E+01  1.00800000E+00
  1.00800000E+00  1.60000000E+01  1.00800000E+00  1.00800000E+00  1.60000000E+01
  1.00800000E+00  1.00800000E+00  1.60000000E+01  1.00800000E+00  1.00800000E+00
  1.60000000E+01  1.00800000E+00  1.00800000E+00  1.60000000E+01  1.00800000E+00
  1.00800000E+00  1.60000000E+01  1.00800000E+00  1.00800000E+00  1.60000000E+01
  1.00800000E+00  1.00800000E+00  1.60000000E+01  1.00800000E+00  1.00800000E+00
  1.60000000E+01  1.00800000E+00  1.00800000E+00  1.60000000E+01  1.00800000E+00
  1.00800000E+00  1.60000000E+01  1.00800000E+00  1.00800000E+00  1.60000000E+01
  1.00800000E+00  1.00800000E+00  1.60000000E+01  1.00800000E+00  1.00800000E+00
  1.60000000E+01  1.00800000E+00  1.00800000E+00  1.60000000E+01  1.00800000E+00
  1.00800000E+00  1.60000000E+01  1.00800000E+00  1.00800000E+00  1.60000000E+01
  1.00800000E+00  1.00800000E+00  1.60000000E+01  1.00800000E+00  1.00800000E+00
  1.60000000E+01  1.00800000E+00  1.00800000E+00  1.60000000E+01  1.00800000E+00
  1.00800000E+00  1.60000000E+01  1.00800000E+00  1.00800000E+00  1.60000000E+01
  1.00800000E+00  1.00800000E+00  1.60000000E+01  1.00800000E+00  1.00800000E+00
  1.60000000E+01  1.00800000E+00  1.00800000E+00  1.60000000E+01  1.00800000E+00
  1.00800000E+00  1.60000000E+01  1.00800000E+00  1.00800000E+00  1.60000000E+01
  1.00800000E+00  1.00800000E+00  1.60000000E+01  1.00800000E+00  1.00800000E+00
  1.60000000E+01  1.00800000E+00  1.00800000E+00  1.60000000E+01  1.00800000E+00
  1.00800000E+00  1.60000000E+01  1.00800000E+00  1.00800000E+00  1.60000000E+01
  1.00800000E+00  1.00800000E+00  1.60000000E+01  1.00800000E+00  1.00800000E+00
  1.60000000E+01  1.00800000E+00  1.00800000E+00  1.60000000E+01  1.00800000E+00
  1.00800000E+00  1.60000000E+01  1.00800000E+00  1.00800000E+00  1.60000000E+01
  1.00800000E+00  1.00800000E+00  1.60000000E+01  1.00800000E+00  1.00800000E+00
  1.60000000E+01  1.00800000E+00  1.00800000E+00  1.60000000E+01  1.00800000E+00
  1.00800000E+00  1.60000000E+01  1.00800000E+00  1.00800000E+00  1.60000000E+01
  1.00800000E+00  1.00800000E+00  1.60000000E+01  1.00800000E+00  1.00800000E+00
  1.60000000E+01  1.00800000E+00  1.00800000E+00  1.60000000E+01  1.00800000E+00
  1.00800000E+00  1.60000000E+01  1.00800000E+00  1.00800000E+00  1.60000000E+01
  1.00800000E+00  1.00800000E+00  1.60000000E+01  1.00800000E+00  1.00800000E+00
  1.60000000E+01  1.00800000E+00  1.00800000E+00  1.60000000E+01  1.00800000E+00
  1.00800000E+00  1.60000000E+01  1.00800000E+00  1.00800000E+00  1.60000000E+01
  1.00800000E+00  1.00800000E+00  1.60000000E+01  1.00800000E+00  1.00800000E+00
  1.60000000E+01  1.00800000E+00  1.00800000E+00  1.60000000E+01  1.00800000E+00
  1.00800000E+00  1.60000000E+01  1.00800000E+00  1.00800000E+00  1.60000000E+01
  1.00800000E+00  1.00800000E+00  1.60000000E+01  1.00800000E+00  1.00800000E+00
  1.60000000E+01  1.00800000E+00  1.00800000E+00  1.60000000E+01  1.00800000E+00
  1.00800000E+00  1.60000000E+01  1.00800000E+00  1.00800000E+00  1.60000000E+01
  1.00800000E+00  1.00800000E+00  1.60000000E+01  1.00800000E+00  1.00800000E+00
  1.60000000E+01  1.00800000E+00  1.00800000E+00  1.60000000E+01  1.00800000E+00
  1.00800000E+00  1.60000000E+01  1.00800000E+00  1.00800000E+00  1.60000000E+01
  1.00800000E+00  1.00800000E+00  1.60000000E+01  1.00800000E+00  1.00800000E+00
  1.60000000E+01  1.00800000E+00  1.00800000E+00  1.60000000E+01  1.00800000E+00
  1.00800000E+00  1.60000000E+01  1.00800000E+00  1.00800000E+00  1.60000000E+01
  1.00800000E+00  1.00800000E+00  1.60000000E+01  1.00800000E+00  1.00800000E+00
  1.60000000E+01  1.00800000E+00  1.00800000E+00  1.60000000E+01  1.00800000E+00
  1.00800000E+00  1.60000000E+01  1.00800000E+00  1.00800000E+00  1.60000000E+01
  1.00800000E+00  1.00800000E+00  1.60000000E+01  1.00800000E+00  1.00800000E+00
  1.60000000E+01  1.00800000E+00  1.00800000E+00  1.60000000E+01  1.00800000E+00
  1.00800000E+00  1.60000000E+01  1.00800000E+00  1.00800000E+00  1.60000000E+01
  1.00800000E+00  1.00800000E+00  1.60000000E+01  1.00800000E+00  1.00800000E+00
  1.60000000E+01  1.00800000E+00  1.00800000E+00  1.60000000E+01  1.00800000E+00
  1.00800000E+00  1.60000000E+01  1.00800000E+00  1.00800000E+00  1.60000000E+01
  1.00800000E+00  1.00800000E+00  1.60000000E+01  1.00800000E+00  1.00800000E+00
  1.60000000E+01  1.00800000E+00  1.00800000E+00  1.60000000E+01  1.00800000E+00
  1.00800000E+00  1.60000000E+01  1.00800000E+00  1.00800000E+00  1.60000000E+01
  1.00800000E+00  1.00800000E+00  1.60000000E+01  1.00800000E+00  1.00800000E+00
  1.60000000E+01  1.00800000E+00  1.00800000E+00  1.60000000E+01  1.00800000E+00
  1.00800000E+00  1.60000000E+01  1.00800000E+00  1.00800000E+00  1.60000000E+01
  1.00800000E+00  1.00800000E+00  1.60000000E+01  1.00800000E+00  1.00800000E+00
  1.60000000E+01  1.00800000E+00  1.00800000E+00  1.60000000E+01  1.00800000E+00
  1.00800000E+00  1.60000000E+01  1.00800000E+00  1.00800000E+00  1.60000000E+01
  1.00800000E+00  1.00800000E+00  1.60000000E+01  1.00800000E+00  1.00800000E+00
  1.60000000E+01  1.00800000E+00  1.00800000E+00  1.60000000E+01  1.00800000E+00
  1.00800000E+00  1.60000000E+01  1.00800000E+00  1.00800000E+00  1.60000000E+01
  1.00800000E+00  1.00800000E+00  1.60000000E+01  1.00800000E+00  1.00800000E+00
  1.60000000E+01  1.00800000E+00  1.00800000E+00  1.60000000E+01  1.00800000E+00
  1.00800000E+00  1.60000000E+01  1.00800000E+00  1.00800000E+00  1.60000000E+01
  1.00800000E+00  1.00800000E+00  1.60000000E+01  1.00800000E+00  1.00800000E+00
  1.60000000E+01  1.00800000E+00  1.00800000E+00  1.60000000E+01  1.00800000E+00
  1.00800000E+00  1.60000000E+01  1.00800000E+00  1.00800000E+00  1.60000000E+01
  1.00800000E+00  1.00800000E+00  1.60000000E+01  1.00800000E+00  1.00800000E+00
  1.60000000E+01  1.00800000E+00  1.00800000E+00  1.60000000E+01  1.00800000E+00
  1.00800000E+00  1.60000000E+01  1.00800000E+00  1.00800000E+00  1.60000000E+01
  1.00800000E+00  1.00800000E+00  1.60000000E+01  1.00800000E+00  1.00800000E+00
  1.60000000E+01  1.00800000E+00  1.00800000E+00  1.60000000E+01  1.00800000E+00
  1.00800000E+00  1.60000000E+01  1.00800000E+00  1.00800000E+00  1.60000000E+01
  1.00800000E+00  1.00800000E+00  1.60000000E+01  1.00800000E+00  1.00800000E+00
  1.60000000E+01  1.00800000E+00  1.00800000E+00  1.60000000E+01  1.00800000E+00
  1.00800000E+00  1.60000000E+01  1.00800000E+00  1.00800000E+00  1.60000000E+01
  1.00800000E+00  1.00800000E+00  1.60000000E+01  1.00800000E+00  1.00800000E+00
  1.60000000E+01  1.00800000E+00  1.00800000E+00  1.60000000E+01  1.00800000E+00
  1.00800000E+00  1.60000000E+01  1.00800000E+00  1.00800000E+00  1.60000000E+01
  1.00800000E+00  1.00800000E+00  1.60000000E+01  1.00800000E+00  1.00800000E+00
  1.60000000E+01  1.00800000E+00  1.00800000E+00  1.60000000E+01  1.00800000E+00
  1.00800000E+00  1.60000000E+01  1.00800000E+00  1.00800000E+00  1.60000000E+01
  1.00800000E+00  1.00800000E+00  1.60000000E+01  1.00800000E+00  1.00800000E+00
  1.60000000E+01  1.00800000E+00  1.00800000E+00  1.60000000E+01  1.00800000E+00
  1.00800000E+00  1.60000000E+01  1.00800000E+00  1.00800000E+00  1.60000000E+01
  1.00800000E+00  1.00800000E+00  1.60000000E+01  1.00800000E+00  1.00800000E+00
  1.60000000E+01  1.00800000E+00  1.00800000E+00  1.60000000E+01  1.00800000E+00
  1.00800000E+00  1.60000000E+01  1.00800000E+00  1.00800000E+00  1.60000000E+01
  1.00800000E+00  1.00800000E+00  1.60000000E+01  1.00800000E+00  1.00800000E+00
  1.60000000E+01  1.00800000E+00  1.00800000E+00  1.60000000E+01  1.00800000E+00
  1.00800000E+00  1.60000000E+01  1.00800000E+00  1.00800000E+00  1.60000000E+01
  1.00800000E+00  1.00800000E+00  1.60000000E+01  1.00800000E+00  1.00800000E+00
  1.60000000E+01  1.00800000E+00  1.00800000E+00  1.60000000E+01  1.00800000E+00
  1.00800000E+00  1.60000000E+01  1.00800000E+00  1.00800000E+00  1.60000000E+01
  1.00800000E+00  1.00800000E+00  1.60000000E+01  1.00800000E+00  1.00800000E+00
  1.60000000E+01  1.00800000E+00  1.00800000E+00  1.60000000E+01  1.00800000E+00
  1.00800000E+00  1.60000000E+01  1.00800000E+00  1.00800000E+00  1.60000000E+01
  1.00800000E+00  1.00800000E+00  1.60000000E+01  1.00800000E+00  1.00800000E+00
  1.60000000E+01  1.00800000E+00  1.00800000E+00  1.60000000E+01  1.00800000E+00
  1.00800000E+00  1.60000000E+01  1.00800000E+00  1.00800000E+00  1.60000000E+01
  1.00800000E+00  1.00800000E+00  1.60000000E+01  1.00800000E+00  1.00800000E+00
  1.60000000E+01  1.00800000E+00  1.00800000E+00  1.60000000E+01  1.00800000E+00
  1.00800000E+00  1.60000000E+01  1.00800000E+00  1.00800000E+00  1.60000000E+01
  1.00800000E+00  1.00800000E+00  1.60000000E+01  1.00800000E+00  1.00800000E+00
  1.60000000E+01  1.00800000E+00  1.00800000E+00  1.60000000E+01  1.00800000E+00
  1.00800000E+00  1.60000000E+01  1.00800000E+00  1.00800000E+00  1.60000000E+01
  1.00800000E+00  1.00800000E+00  1.60000000E+01  1.00800000E+00  1.00800000E+00
  1.60000000E+01  1.00800000E+00  1.00800000E+00  1.60000000E+01  1.00800000E+00
  1.00800000E+00  1.60000000E+01  1.00800000E+00  1.00800000E+00  1.60000000E+01
  1.00800000E+00  1.00800000E+00  1.60000000E+01  1.00800000E+00  1.00800000E+00
  1.60000000E+01  1.00800000E+00  1.00800000E+00  1.60000000E+01  1.00800000E+00
  1.00800000E+00  1.60000000E+01  1.00800000E+00  1.00800000E+00  1.60000000E+01
  1.00800000E+00  1.00800000E+00  1.60000000E+01  1.00800000E+00  1.00800000E+00
  1.60000000E+01  1.00800000E+00  1.00800000E+00  1.60000000E+01  1.00800000E+00
  1.00800000E+00  1.60000000E+01  1.00800000E+00  1.00800000E+00  1.60000000E+01
  1.00800000E+00  1.00800000E+00  1.60000000E+01  1.00800000E+00  1.00800000E+00
  1.60000000E+01  1.00800000E+00  1.00800000E+00  1.60000000E+01  1.00800000E+00
  1.00800000E+00  1.60000000E+01  1.00800000E+00  1.00800000E+00  1.60000000E+01
  1.00800000E+00  1.00800000E+00  1.60000000E+01  1.00800000E+00  1.00800000E+00
  1.60000000E+01  1.00800000E+00  1.00800000E+00  1.60000000E+01  1.00800000E+00
  1.00800000E+00  1.60000000E+01  1.00800000E+00  1.00800000E+00  1.60000000E+01
  1.00800000E+00  1.00800000E+00  1.60000000E+01  1.00800000E+00  1.00800000E+00
  1.60000000E+01  1.00800000E+00  1.00800000E+00  1.60000000E+01  1.00800000E+00
  1.00800000E+00  1.60000000E+01  1.00800000E+00  1.00800000E+00  1.60000000E+01
  1.00800000E+00  1.00800000E+00  1.60000000E+01  1.00800000E+00  1.00800000E+00
  1.60000000E+01  1.00800000E+00  1.00800000E+00  1.60000000E+01  1.00800000E+00
  1.00800000E+00  1.60000000E+01  1.00800000E+00  1.00800000E+00  1.60000000E+01
  1.00800000E+00  1.00800000E+00  1.60000000E+01  1.00800000E+00  1.00800000E+00
  1.60000000E+01  1.00800000E+00  1.00800000E+00  1.60000000E+01  1.00800000E+00
  1.00800000E+00  1.60000000E+01  1.00800000E+00  1.00800000E+00  1.60000000E+01
  1.00800000E+00  1.00800000E+00  1.60000000E+01  1.00800000E+00  1.00800000E+00
  1.60000000E+01  1.00800000E+00  1.00800000E+00  1.60000000E+01  1.00800000E+00
  1.00800000E+00  1.60000000E+01  1.00800000E+00  1.00800000E+00  1.60000000E+01
  1.00800000E+00  1.00800000E+00  1.60000000E+01  1.00800000E+00  1.00800000E+00
  1.60000000E+01  1.00800000E+00  1.00800000E+00  1.60000000E+01  1.00800000E+00
  1.00800000E+00  1.60000000E+01  1.00800000E+00  1.00800000E+00  1.60000000E+01
  1.00800000E+00  1.00800000E+00  1.60000000E+01  1.00800000E+00  1.00800000E+00
  1.60000000E+01  1.00800000E+00  1.00800000E+00  1.60000000E+01  1.00800000E+00
  1.00800000E+00  1.60000000E+01  1.00800000E+00  1.00800000E+00  1.60000000E+01
  1.00800000E+00  1.00800000E+00  1.60000000E+01  1.00800000E+00  1.00800000E+00
  1.60000000E+01  1.00800000E+00  1.00800000E+00  1.60000000E+01  1.00800000E+00
  1.00800000E+00  1.60000000E+01  1.00800000E+00  1.00800000E+00  1.60000000E+01
  1.00800000E+00  1.00800000E+00  1.60000000E+01  1.00800000E+00  1.00800000E+00
  1.60000000E+01  1.00800000E+00  1.00800000E+00  1.60000000E+01  1.00800000E+00
  1.00800000E+00  1.60000000E+01  1.00800000E+00  1.00800000E+00  1.60000000E+01
  1.00800000E+00  1.00800000E+00  1.60000000E+01  1.00800000E+00  1.00800000E+00
  1.60000000E+01  1.00800000E+00  1.00800000E+00  1.60000000E+01  1.00800000E+00
  1.00800000E+00  1.60000000E+01  1.00800000E+00  1.00800000E+00  1.60000000E+01
  1.00800000E+00  1.00800000E+00  1.60000000E+01  1.00800000E+00  1.00800000E+00
  1.60000000E+01  1.00800000E+00  1.00800000E+00  1.60000000E+01  1.00800000E+00
  1.00800000E+00  1.60000000E+01  1.00800000E+00  1.00800000E+00  1.60000000E+01
  1.00800000E+00  1.00800000E+00  1.60000000E+01  1.00800000E+00  1.00800000E+00
  1.60000000E+01  1.00800000E+00  1.00800000E+00  1.60000000E+01  1.00800000E+00
  1.00800000E+00  1.60000000E+01  1.00800000E+00  1.00800000E+00  1.60000000E+01
  1.00800000E+00  1.00800000E+00  1.60000000E+01  1.00800000E+00  1.00800000E+00
  1.60000000E+01  1.00800000E+00  1.00800000E+00  1.60000000E+01  1.00800000E+00
  1.00800000E+00  1.60000000E+01  1.00800000E+00  1.00800000E+00  1.60000000E+01
  1.00800000E+00  1.00800000E+00  1.60000000E+01  1.00800000E+00  1.00800000E+00
  1.60000000E+01  1.00800000E+00  1.00800000E+00  1.60000000E+01  1.00800000E+00
  1.00800000E+00  1.60000000E+01  1.00800000E+00  1.00800000E+00  1.60000000E+01
  1.00800000E+00  1.00800000E+00  1.60000000E+01  1.00800000E+00  1.00800000E+00
  1.60000000E+01  1.00800000E+00  1.00800000E+00  1.60000000E+01  1.00800000E+00
  1.00800000E+00  1.60000000E+01  1.00800000E+00  1.00800000E+00  1.60000000E+01
  1.00800000E+00  1.00800000E+00  1.60000000E+01  1.00800000E+00  1.00800000E+00
  1.60000000E+01  1.00800000E+00  1.00800000E+00  1.60000000E+01  1.00800000E+00
  1.00800000E+00  1.60000000E+01  1.00800000E+00  1.00800000E+00  1.60000000E+01
  1.00800000E+00  1.00800000E+00  1.60000000E+01  1.00800000E+00  1.00800000E+00
  1.60000000E+01  1.00800000E+00  1.00800000E+00  1.60000000E+01  1.00800000E+00
  1.00800000E+00  1.60000000E+01  1.00800000E+00  1.00800000E+00  1.60000000E+01
  1.00800000E+00  1.00800000E+00  1.60000000E+01  1.00800000E+00  1.00800000E+00
  1.60000000E+01  1.00800000E+00  1.00800000E+00  1.60000000E+01  1.00800000E+00
  1.00800000E+00  1.60000000E+01  1.00800000E+00  1.00800000E+00  1.60000000E+01
  1.00800000E+00  1.00800000E+00  1.60000000E+01  1.00800000E+00  1.00800000E+00
  1.60000000E+01  1.00800000E+00  1.00800000E+00  1.60000000E+01  1.00800000E+00
  1.00800000E+00  1.60000000E+01  1.00800000E+00  1.00800000E+00  1.60000000E+01
  1.00800000E+00  1.00800000E+00  1.60000000E+01  1.00800000E+00  1.00800000E+00
  1.60000000E+01  1.00800000E+00  1.00800000E+00  1.60000000E+01  1.00800000E+00
  1.00800000E+00  1.60000000E+01  1.00800000E+00  1.00800000E+00  1.60000000E+01
  1.00800000E+00  1.00800000E+00  1.60000000E+01  1.00800000E+00  1.00800000E+00
  1.60000000E+01  1.00800000E+00  1.00800000E+00  1.60000000E+01  1.00800000E+00
  1.00800000E+00  1.60000000E+01  1.00800000E+00  1.00800000E+00  1.60000000E+01
  1.00800000E+00  1.00800000E+00  1.60000000E+01  1.00800000E+00  1.00800000E+00
  1.60000000E+01  1.00800000E+00  1.00800000E+00  1.60000000E+01  1.00800000E+00
  1.00800000E+00  1.60000000E+01  1.00800000E+00  1.00800000E+00  1.60000000E+01
  1.00800000E+00  1.00800000E+00  1.60000000E+01  1.00800000E+00  1.00800000E+00
  1.60000000E+01  1.00800000E+00  1.00800000E+00  1.60000000E+01  1.00800000E+00
  1.00800000E+00  1.60000000E+01  1.00800000E+00  1.00800000E+00  1.60000000E+01
  1.00800000E+00  1.00800000E+00  1.60000000E+01  1.00800000E+00  1.00800000E+00
  1.60000000E+01  1.00800000E+00  1.00800000E+00  1.60000000E+01  1.00800000E+00
  1.00800000E+00  1.60000000E+01  1.00800000E+00  1.00800000E+00  1.60000000E+01
  1.00800000E+00  1.00800000E+00  1.60000000E+01  1.00800000E+00  1.00800000E+00
  1.60000000E+01  1.00800000E+00  1.00800000E+00  1.60000000E+01  1.00800000E+00
  1.00800000E+00  1.60000000E+01  1.00800000E+00  1.00800000E+00  1.60000000E+01
  1.00800000E+00  1.00800000E+00  1.60000000E+01  1.00800000E+00  1.00800000E+00
  1.60000000E+01  1.00800000E+00  1.00800000E+00  1.60000000E+01  1.00800000E+00
  1.00800000E+00  1.60000000E+01  1.00800000E+00  1.00800000E+00  1.60000000E+01
  1.00800000E+00  1.00800000E+00  1.60000000E+01  1.00800000E+00  1.00800000E+00
  1.60000000E+01  1.00800000E+00  1.00800000E+00  1.60000000E+01  1.00800000E+00
  1.00800000E+00  1.60000000E+01  1.00800000E+00  1.00800000E+00  1.60000000E+01
  1.00800000E+00  1.00800000E+00  1.60000000E+01  1.00800000E+00  1.00800000E+00
  1.60000000E+01  1.00800000E+00  1.00800000E+00  1.60000000E+01  1.00800000E+00
  1.00800000E+00  1.60000000E+01  1.00800000E+00  1.00800000E+00  1.60000000E+01
  1.00800000E+00  1.00800000E+00  1.60000000E+01  1.00800000E+00  1.00800000E+00
  1.60000000E+01  1.00800000E+00  1.00800000E+00  1.60000000E+01  1.00800000E+00
  1.00800000E+00  1.60000000E+01  1.00800000E+00  1.00800000E+00  1.60000000E+01
  1.00800000E+00  1.00800000E+00  1.60000000E+01  1.00800000E+00  1.00800000E+00
  1.60000000E+01  1.00800000E+00  1.00800000E+00  1.60000000E+01  1.00800000E+00
  1.00800000E+00  1.60000000E+01  1.00800000E+00  1.00800000E+00  1.60000000E+01
  1.00800000E+00  1.00800000E+00  1.60000000E+01  1.00800000E+00  1.00800000E+00
  1.60000000E+01  1.00800000E+00  1.00800000E+00  1.60000000E+01  1.00800000E+00
  1.00800000E+00  1.60000000E+01  1.00800000E+00  1.00800000E+00  1.60000000E+01
  1.00800000E+00  1.00800000E+00  1.60000000E+01  1.00800000E+00  1.00800000E+00
  1.60000000E+01  1.00800000E+00  1.00800000E+00  1.60000000E+01  1.00800000E+00
  1.00800000E+00  1.60000000E+01  1.00800000E+00  1.00800000E+00  1.60000000E+01
  1.00800000E+00  1.00800000E+00  1.60000000E+01  1.00800000E+00  1.00800000E+00
  1.60000000E+01  1.00800000E+00  1.00800000E+00  1.60000000E+01  1.00800000E+00
  1.00800000E+00  1.60000000E+01  1.00800000E+00  1.00800000E+00  1.60000000E+01
  1.00800000E+00  1.00800000E+00  1.60000000E+01  1.00800000E+00  1.00800000E+00
  1.60000000E+01  1.00800000E+00  1.00800000E+00  1.60000000E+01  1.00800000E+00
  1.00800000E+00  1.60000000E+01  1.00800000E+00  1.00800000E+00  1.60000000E+01
  1.00800000E+00  1.00800000E+00  1.60000000E+01  1.00800000E+00  1.00800000E+00
  1.60000000E+01  1.00800000E+00  1.00800000E+00  1.60000000E+01  1.00800000E+00
  1.00800000E+00  1.60000000E+01  1.00800000E+00  1.00800000E+00  1.60000000E+01
  1.00800000E+00  1.00800000E+00  1.60000000E+01  1.00800000E+00  1.00800000E+00
  1.60000000E+01  1.00800000E+00  1.00800000E+00  1.60000000E+01  1.00800000E+00
  1.00800000E+00  1.60000000E+01  1.00800000E+00  1.00800000E+00  1.60000000E+01
  1.00800000E+00  1.00800000E+00  1.60000000E+01  1.00800000E+00  1.00800000E+00
  1.60000000E+01  1.00800000E+00  1.00800000E+00  1.60000000E+01  1.00800000E+00
  1.00800000E+00  1.60000000E+01  1.00800000E+00  1.00800000E+00  1.60000000E+01
  1.00800000E+00  1.00800000E+00  1.60000000E+01  1.00800000E+00  1.00800000E+00
  1.60000000E+01  1.00800000E+00  1.00800000E+00  1.60000000E+01  1.00800000E+00
  1.00800000E+00  1.60000000E+01  1.00800000E+00  1.00800000E+00  1.60000000E+01
  1.00800000E+00  1.00800000E+00  1.60000000E+01  1.00800000E+00  1.00800000E+00
  1.60000000E+01  1.00800000E+00  1.00800000E+00  1.60000000E+01  1.00800000E+00
  1.00800000E+00  1.60000000E+01  1.00800000E+00  1.00800000E+00  1.60000000E+01
  1.00800000E+00  1.00800000E+00  1.60000000E+01  1.00800000E+00  1.00800000E+00
  1.60000000E+01  1.00800000E+00  1.00800000E+00  1.60000000E+01  1.00800000E+00
  1.00800000E+00  1.60000000E+01  1.00800000E+00  1.00800000E+00  1.60000000E+01
  1.00800000E+00  1.00800000E+00  1.60000000E+01  1.00800000E+00  1.00800000E+00
  1.60000000E+01  1.00800000E+00  1.00800000E+00  1.60000000E+01  1.00800000E+00
  1.00800000E+00  1.60000000E+01  1.00800000E+00  1.00800000E+00  1.60000000E+01
  1.00800000E+00  1.00800000E+00  1.60000000E+01  1.00800000E+00  1.00800000E+00
  1.60000000E+01  1.00800000E+00  1.00800000E+00  1.60000000E+01  1.00800000E+00
  1.00800000E+00  1.60000000E+01  1.00800000E+00  1.00800000E+00  1.60000000E+01
  1.00800000E+00  1.00800000E+00  1.60000000E+01  1.00800000E+00  1.00800000E+00
  1.60000000E+01  1.00800000E+00  1.00800000E+00  1.60000000E+01  1.00800000E+00
  1.00800000E+00  1.60000000E+01  1.00800000E+00  1.00800000E+00  1.60000000E+01
  1.00800000E+00  1.00800000E+00  1.60000000E+01  1.00800000E+00  1.00800000E+00
  1.60000000E+01  1.00800000E+00  1.00800000E+00  1.60000000E+01  1.00800000E+00
  1.00800000E+00  1.60000000E+01  1.00800000E+00  1.00800000E+00  1.60000000E+01
  1.00800000E+00  1.00800000E+00  1.60000000E+01  1.00800000E+00  1.00800000E+00
  1.60000000E+01  1.00800000E+00  1.00800000E+00  1.60000000E+01  1.00800000E+00
  1.00800000E+00  1.60000000E+01  1.00800000E+00  1.00800000E+00  1.60000000E+01
  1.00800000E+00  1.00800000E+00  1.60000000E+01  1.00800000E+00  1.00800000E+00
  1.60000000E+01  1.00800000E+00  1.00800000E+00  1.60000000E+01  1.00800000E+00
  1.00800000E+00  1.60000000E+01  1.00800000E+00  1.00800000E+00  1.60000000E+01
  1.00800000E+00  1.00800000E+00  1.60000000E+01  1.00800000E+00  1.00800000E+00
  1.60000000E+01  1.00800000E+00  1.00800000E+00  1.60000000E+01  1.00800000E+00
  1.00800000E+00  1.60000000E+01  1.00800000E+00  1.00800000E+00  1.60000000E+01
  1.00800000E+00  1.00800000E+00  1.60000000E+01  1.00800000E+00  1.00800000E+00
  1.60000000E+01  1.00800000E+00  1.00800000E+00  1.60000000E+01  1.00800000E+00
  1.00800000E+00  1.60000000E+01  1.00800000E+00  1.00800000E+00  1.60000000E+01
  1.00800000E+00  1.00800000E+00  1.60000000E+01  1.00800000E+00  1.00800000E+00
  1.60000000E+01  1.00800000E+00  1.00800000E+00  1.60000000E+01  1.00800000E+00
  1.00800000E+00  1.60000000E+01  1.00800000E+00  1.00800000E+00  1.60000000E+01
  1.00800000E+00  1.00800000E+00  1.60000000E+01  1.00800000E+00  1.00800000E+00
  1.60000000E+01  1.00800000E+00  1.00800000E+00  1.60000000E+01  1.00800000E+00
  1.00800000E+00  1.60000000E+01  1.00800000E+00  1.00800000E+00  1.60000000E+01
  1.00800000E+00  1.00800000E+00  1.60000000E+01  1.00800000E+00  1.00800000E+00
  1.60000000E+01  1.00800000E+00  1.00800000E+00  1.60000000E+01  1.00800000E+00
  1.00800000E+00  1.60000000E+01  1.00800000E+00  1.00800000E+00  1.60000000E+01
  1.00800000E+00  1.00800000E+00  1.60000000E+01  1.00800000E+00  1.00800000E+00
  1.60000000E+01  1.00800000E+00  1.00800000E+00  1.60000000E+01  1.00800000E+00
  1.00800000E+00  1.60000000E+01  1.00800000E+00  1.00800000E+00  1.60000000E+01
  1.00800000E+00  1.00800000E+00  1.60000000E+01  1.00800000E+00  1.00800000E+00
  1.60000000E+01  1.00800000E+00  1.00800000E+00  1.60000000E+01  1.00800000E+00
  1.00800000E+00  1.60000000E+01  1.00800000E+00  1.00800000E+00  1.60000000E+01
  1.00800000E+00  1.00800000E+00  1.60000000E+01  1.00800000E+00  1.00800000E+00
  1.60000000E+01  1.00800000E+00  1.00800000E+00  1.60000000E+01  1.00800000E+00
  1.00800000E+00  1.60000000E+01  1.00800000E+00  1.00800000E+00  1.60000000E+01
  1.00800000E+00  1.00800000E+00  1.60000000E+01  1.00800000E+00  1.00800000E+00
  1.60000000E+01  1.00800000E+00  1.00800000E+00  1.60000000E+01  1.00800000E+00
  1.00800000E+00  1.60000000E+01  1.00800000E+00  1.00800000E+00  1.60000000E+01
  1.00800000E+00  1.00800000E+00  1.60000000E+01  1.00800000E+00  1.00800000E+00
  1.60000000E+01  1.00800000E+00  1.00800000E+00  1.60000000E+01  1.00800000E+00
  1.00800000E+00  1.60000000E+01  1.00800000E+00  1.00800000E+00  1.60000000E+01
  1.00800000E+00  1.00800000E+00  1.60000000E+01  1.00800000E+00  1.00800000E+00
  1.60000000E+01  1.00800000E+00  1.00800000E+00  1.60000000E+01  1.00800000E+00
  1.00800000E+00  1.60000000E+01  1.00800000E+00  1.00800000E+00  1.60000000E+01
  1.00800000E+00  1.00800000E+00  1.60000000E+01  1.00800000E+00  1.00800000E+00
  1.60000000E+01  1.00800000E+00  1.00800000E+00  1.60000000E+01  1.00800000E+00
  1.00800000E+00  1.60000000E+01  1.00800000E+00  1.00800000E+00  1.60000000E+01
  1.00800000E+00  1.00800000E+00  1.60000000E+01  1.00800000E+00  1.00800000E+00
  1.60000000E+01  1.00800000E+00  1.00800000E+00  1.60000000E+01  1.00800000E+00
  1.00800000E+00  1.60000000E+01  1.00800000E+00  1.00800000E+00  1.60000000E+01
  1.00800000E+00  1.00800000E+00  1.60000000E+01  1.00800000E+00  1.00800000E+00
  1.60000000E+01  1.00800000E+00  1.00800000E+00  1.60000000E+01  1.00800000E+00
  1.00800000E+00  1.60000000E+01  1.00800000E+00  1.00800000E+00  1.60000000E+01
  1.00800000E+00  1.00800000E+00  1.60000000E+01  1.00800000E+00  1.00800000E+00
  1.60000000E+01  1.00800000E+00  1.00800000E+00  1.60000000E+01  1.00800000E+00
  1.00800000E+00  1.60000000E+01  1.00800000E+00  1.00800000E+00  1.60000000E+01
  1.00800000E+00  1.00800000E+00  1.60000000E+01  1.00800000E+00  1.00800000E+00
  1.60000000E+01  1.00800000E+00  1.00800000E+00  1.60000000E+01  1.00800000E+00
  1.00800000E+00  1.60000000E+01  1.00800000E+00  1.00800000E+00  1.60000000E+01
  1.00800000E+00  1.00800000E+00  1.60000000E+01  1.00800000E+00  1.00800000E+00
  1.60000000E+01  1.00800000E+00  1.00800000E+00  1.60000000E+01  1.00800000E+00
  1.00800000E+00  1.60000000E+01  1.00800000E+00  1.00800000E+00  1.60000000E+01
  1.00800000E+00  1.00800000E+00  1.60000000E+01  1.00800000E+00  1.00800000E+00
  1.60000000E+01  1.00800000E+00  1.00800000E+00  1.60000000E+01  1.00800000E+00
  1.00800000E+00  1.60000000E+01  1.00800000E+00  1.00800000E+00  1.60000000E+01
  1.00800000E+00  1.00800000E+00  1.60000000E+01  1.00800000E+00  1.00800000E+00
  1.60000000E+01  1.00800000E+00  1.00800000E+00  1.60000000E+01  1.00800000E+00
  1.00800000E+00  1.60000000E+01  1.00800000E+00  1.00800000E+00  1.60000000E+01
  1.00800000E+00  1.00800000E+00  1.60000000E+01  1.00800000E+00  1.00800000E+00
  1.60000000E+01  1.00800000E+00  1.00800000E+00  1.60000000E+01  1.00800000E+00
  1.00800000E+00  1.60000000E+01  1.00800000E+00  1.00800000E+00  1.60000000E+01
  1.00800000E+00  1.00800000E+00  1.60000000E+01  1.00800000E+00  1.00800000E+00
  1.60000000E+01  1.00800000E+00  1.00800000E+00  1.60000000E+01  1.00800000E+00
  1.00800000E+00  1.60000000E+01  1.00800000E+00  1.00800000E+00  1.60000000E+01
  1.00800000E+00  1.00800000E+00  1.60000000E+01  1.00800000E+00  1.00800000E+00
  1.60000000E+01  1.00800000E+00  1.00800000E+00  1.60000000E+01  1.00800000E+00
  1.00800000E+00  1.60000000E+01  1.00800000E+00  1.00800000E+00  1.60000000E+01
  1.00800000E+00  1.00800000E+00  1.60000000E+01  1.00800000E+00  1.00800000E+00
  1.60000000E+01  1.00800000E+00  1.00800000E+00  1.60000000E+01  1.00800000E+00
  1.00800000E+00  1.60000000E+01  1.00800000E+00  1.00800000E+00  1.60000000E+01
  1.00800000E+00  1.00800000E+00  1.60000000E+01  1.00800000E+00  1.00800000E+00
  1.60000000E+01  1.00800000E+00  1.00800000E+00  1.60000000E+01  1.00800000E+00
  1.00800000E+00  1.60000000E+01  1.00800000E+00  1.00800000E+00  1.60000000E+01
  1.00800000E+00  1.00800000E+00  1.60000000E+01  1.00800000E+00  1.00800000E+00
  1.60000000E+01  1.00800000E+00  1.00800000E+00  1.60000000E+01  1.00800000E+00
  1.00800000E+00  1.60000000E+01  1.00800000E+00  1.00800000E+00  1.60000000E+01
  1.00800000E+00  1.00800000E+00  1.60000000E+01  1.00800000E+00  1.00800000E+00
  1.60000000E+01  1.00800000E+00  1.00800000E+00  1.60000000E+01  1.00800000E+00
  1.00800000E+00  1.60000000E+01  1.00800000E+00  1.00800000E+00  1.60000000E+01
  1.00800000E+00  1.00800000E+00  1.60000000E+01  1.00800000E+00  1.00800000E+00
  1.60000000E+01  1.00800000E+00  1.00800000E+00  1.60000000E+01  1.00800000E+00
  1.00800000E+00  1.60000000E+01  1.00800000E+00  1.00800000E+00  1.60000000E+01
  1.00800000E+00  1.00800000E+00  1.60000000E+01  1.00800000E+00  1.00800000E+00
  1.60000000E+01  1.00800000E+00  1.00800000E+00  1.60000000E+01  1.00800000E+00
  1.00800000E+00  1.60000000E+01  1.00800000E+00  1.00800000E+00  1.60000000E+01
  1.00800000E+00  1.00800000E+00  1.60000000E+01  1.00800000E+00  1.00800000E+00
  1.60000000E+01  1.00800000E+00  1.00800000E+00  1.60000000E+01  1.00800000E+00
  1.00800000E+00  1.60000000E+01  1.00800000E+00  1.00800000E+00  1.60000000E+01
  1.00800000E+00  1.00800000E+00  1.60000000E+01  1.00800000E+00  1.00800000E+00
  1.60000000E+01  1.00800000E+00  1.00800000E+00  1.60000000E+01  1.00800000E+00
  1.00800000E+00  1.60000000E+01  1.00800000E+00  1.00800000E+00  1.60000000E+01
  1.00800000E+00  1.00800000E+00  1.60000000E+01  1.00800000E+00  1.00800000E+00
  1.60000000E+01  1.00800000E+00  1.00800000E+00  1.60000000E+01  1.00800000E+00
  1.00800000E+00  1.60000000E+01  1.00800000E+00  1.00800000E+00  1.60000000E+01
  1.00800000E+00  1.00800000E+00  1.60000000E+01  1.00800000E+00  1.00800000E+00
  1.60000000E+01  1.00800000E+00  1.00800000E+00  1.60000000E+01  1.00800000E+00
  1.00800000E+00  1.60000000E+01  1.00800000E+00  1.00800000E+00  1.60000000E+01
  1.00800000E+00  1.00800000E+00  1.60000000E+01  1.00800000E+00  1.00800000E+00
  1.60000000E+01  1.00800000E+00  1.00800000E+00  1.60000000E+01  1.00800000E+00
  1.00800000E+00  1.60000000E+01  1.00800000E+00  1.00800000E+00  1.60000000E+01
  1.00800000E+00  1.00800000E+00  1.60000000E+01  1.00800000E+00  1.00800000E+00
  1.60000000E+01  1.00800000E+00  1.00800000E+00  1.60000000E+01  1.00800000E+00
  1.00800000E+00  1.60000000E+01  1.00800000E+00  1.00800000E+00  1.60000000E+01
  1.00800000E+00  1.00800000E+00  1.60000000E+01  1.00800000E+00  1.00800000E+00
  1.60000000E+01  1.00800000E+00  1.00800000E+00  1.60000000E+01  1.00800000E+00
  1.00800000E+00  1.60000000E+01  1.00800000E+00  1.00800000E+00  1.60000000E+01
  1.00800000E+00  1.00800000E+00  1.60000000E+01  1.00800000E+00  1.00800000E+00
  1.60000000E+01  1.00800000E+00  1.00800000E+00  1.60000000E+01  1.00800000E+00
  1.00800000E+00  1.60000000E+01  1.00800000E+00  1.00800000E+00  1.60000000E+01
  1.00800000E+00  1.00800000E+00  1.60000000E+01  1.00800000E+00  1.00800000E+00
  1.60000000E+01  1.00800000E+00  1.00800000E+00  1.60000000E+01  1.00800000E+00
  1.00800000E+00  1.60000000E+01  1.00800000E+00  1.00800000E+00  1.60000000E+01
  1.00800000E+00  1.00800000E+00  1.60000000E+01  1.00800000E+00  1.00800000E+00
  1.60000000E+01  1.00800000E+00  1.00800000E+00  1.60000000E+01  1.00800000E+00
  1.00800000E+00  1.60000000E+01  1.00800000E+00  1.00800000E+00  1.60000000E+01
  1.00800000E+00  1.00800000E+00  1.60000000E+01  1.00800000E+00  1.00800000E+00
  1.60000000E+01  1.00800000E+00  1.00800000E+00  1.60000000E+01  1.00800000E+00
  1.00800000E+00  1.60000000E+01  1.00800000E+00  1.00800000E+00  1.60000000E+01
  1.00800000E+00  1.00800000E+00  1.60000000E+01  1.00800000E+00  1.00800000E+00
  1.60000000E+01  1.00800000E+00  1.00800000E+00  1.60000000E+01  1.00800000E+00
  1.00800000E+00  1.60000000E+01  1.00800000E+00  1.00800000E+00  1.60000000E+01
  1.00800000E+00  1.00800000E+00  1.60000000E+01  1.00800000E+00  1.00800000E+00
  1.60000000E+01  1.00800000E+00  1.00800000E+00  1.60000000E+01  1.00800000E+00
  1.00800000E+00  1.60000000E+01  1.00800000E+00  1.00800000E+00  1.60000000E+01
  1.00800000E+00  1.00800000E+00  1.60000000E+01  1.00800000E+00  1.00800000E+00
  1.60000000E+01  1.00800000E+00  1.00800000E+00  1.60000000E+01  1.00800000E+00
  1.00800000E+00  1.60000000E+01  1.00800000E+00  1.00800000E+00  1.60000000E+01
  1.00800000E+00  1.00800000E+00  1.60000000E+01  1.00800000E+00  1.00800000E+00
  1.60000000E+01  1.00800000E+00  1.00800000E+00  1.60000000E+01  1.00800000E+00
  1.00800000E+00  1.60000000E+01  1.00800000E+00  1.00800000E+00  1.60000000E+01
  1.00800000E+00  1.00800000E+00  1.60000000E+01  1.00800000E+00  1.00800000E+00
  1.60000000E+01  1.00800000E+00  1.00800000E+00  1.60000000E+01  1.00800000E+00
  1.00800000E+00  1.60000000E+01  1.00800000E+00  1.00800000E+00  1.60000000E+01
  1.00800000E+00  1.00800000E+00  1.60000000E+01  1.00800000E+00  1.00800000E+00
  1.60000000E+01  1.00800000E+00  1.00800000E+00  1.60000000E+01  1.00800000E+00
  1.00800000E+00  1.60000000E+01  1.00800000E+00  1.00800000E+00  1.60000000E+01
  1.00800000E+00  1.00800000E+00  1.60000000E+01  1.00800000E+00  1.00800000E+00
  1.60000000E+01  1.00800000E+00  1.00800000E+00  1.60000000E+01  1.00800000E+00
  1.00800000E+00  1.60000000E+01  1.00800000E+00  1.00800000E+00  1.60000000E+01
  1.00800000E+00  1.00800000E+00  1.60000000E+01  1.00800000E+00  1.00800000E+00
  1.60000000E+01  1.00800000E+00  1.00800000E+00  1.60000000E+01  1.00800000E+00
  1.00800000E+00  1.60000000E+01  1.00800000E+00  1.00800000E+00  1.60000000E+01
  1.00800000E+00  1.00800000E+00  1.60000000E+01  1.00800000E+00  1.00800000E+00
  1.60000000E+01  1.00800000E+00  1.00800000E+00  1.60000000E+01  1.00800000E+00
  1.00800000E+00  1.60000000E+01  1.00800000E+00  1.00800000E+00  1.60000000E+01
  1.00800000E+00  1.00800000E+00  1.60000000E+01  1.00800000E+00  1.00800000E+00
  1.60000000E+01  1.00800000E+00  1.00800000E+00  1.60000000E+01  1.00800000E+00
  1.00800000E+00  1.60000000E+01  1.00800000E+00  1.00800000E+00  1.60000000E+01
  1.00800000E+00  1.00800000E+00  1.60000000E+01  1.00800000E+00  1.00800000E+00
  1.60000000E+01  1.00800000E+00  1.00800000E+00  1.60000000E+01  1.00800000E+00
  1.00800000E+00  1.60000000E+01  1.00800000E+00  1.00800000E+00  1.60000000E+01
  1.00800000E+00  1.00800000E+00  1.60000000E+01  1.00800000E+00  1.00800000E+00
  1.60000000E+01  1.00800000E+00  1.00800000E+00  1.60000000E+01  1.00800000E+00
  1.00800000E+00  1.60000000E+01  1.00800000E+00  1.00800000E+00  1.60000000E+01
  1.00800000E+00  1.00800000E+00  1.60000000E+01  1.00800000E+00  1.00800000E+00
  1.60000000E+01  1.00800000E+00  1.00800000E+00  1.60000000E+01  1.00800000E+00
  1.00800000E+00  1.60000000E+01  1.00800000E+00  1.00800000E+00  1.60000000E+01
  1.00800000E+00  1.00800000E+00  1.60000000E+01  1.00800000E+00  1.00800000E+00
  1.60000000E+01  1.00800000E+00  1.00800000E+00  1.60000000E+01  1.00800000E+00
  1.00800000E+00  1.60000000E+01  1.00800000E+00  1.00800000E+00  1.60000000E+01
  1.00800000E+00  1.00800000E+00  1.60000000E+01  1.00800000E+00  1.00800000E+00
  1.60000000E+01  1.00800000E+00  1.00800000E+00  1.60000000E+01  1.00800000E+00
  1.00800000E+00  1.60000000E+01  1.00800000E+00  1.00800000E+00  1.60000000E+01
  1.00800000E+00  1.00800000E+00  1.60000000E+01  1.00800000E+00  1.00800000E+00
  1.60000000E+01  1.00800000E+00  1.00800000E+00  1.60000000E+01  1.00800000E+00
  1.00800000E+00  1.60000000E+01  1.00800000E+00  1.00800000E+00  1.60000000E+01
  1.00800000E+00  1.00800000E+00  1.60000000E+01  1.00800000E+00  1.00800000E+00
  1.60000000E+01  1.00800000E+00  1.00800000E+00  1.60000000E+01  1.00800000E+00
  1.00800000E+00  1.60000000E+01  1.00800000E+00  1.00800000E+00  1.60000000E+01
  1.00800000E+00  1.00800000E+00  1.60000000E+01  1.00800000E+00  1.00800000E+00
  1.60000000E+01  1.00800000E+00  1.00800000E+00  1.60000000E+01  1.00800000E+00
  1.00800000E+00  1.60000000E+01  1.00800000E+00  1.00800000E+00  1.60000000E+01
  1.00800000E+00  1.00800000E+00  1.60000000E+01  1.00800000E+00  1.00800000E+00
  1.60000000E+01  1.00800000E+00  1.00800000E+00  1.60000000E+01  1.00800000E+00
  1.00800000E+00  1.60000000E+01  1.00800000E+00  1.00800000E+00  1.60000000E+01
  1.00800000E+00  1.00800000E+00  1.60000000E+01  1.00800000E+00  1.00800000E+00
  1.60000000E+01  1.00800000E+00  1.00800000E+00  1.60000000E+01  1.00800000E+00
  1.00800000E+00  1.60000000E+01  1.00800000E+00  1.00800000E+00  1.60000000E+01
  1.00800000E+00  1.00800000E+00  1.60000000E+01  1.00800000E+00  1.00800000E+00
  1.60000000E+01  1.00800000E+00  1.00800000E+00  1.60000000E+01  1.00800000E+00
  1.00800000E+00  1.60000000E+01  1.00800000E+00  1.00800000E+00  1.60000000E+01
  1.00800000E+00  1.00800000E+00  1.60000000E+01  1.00800000E+00  1.00800000E+00
  1.60000000E+01  1.00800000E+00  1.00800000E+00  1.60000000E+01  1.00800000E+00
  1.00800000E+00  1.60000000E+01  1.00800000E+00  1.00800000E+00  1.60000000E+01
  1.00800000E+00  1.00800000E+00  1.60000000E+01  1.00800000E+00  1.00800000E+00
  1.60000000E+01  1.00800000E+00  1.00800000E+00  1.60000000E+01  1.00800000E+00
  1.00800000E+00  1.60000000E+01  1.00800000E+00  1.00800000E+00  1.60000000E+01
  1.00800000E+00  1.00800000E+00  1.60000000E+01  1.00800000E+00  1.00800000E+00
  1.60000000E+01  1.00800000E+00  1.00800000E+00  1.60000000E+01  1.00800000E+00
  1.00800000E+00  1.60000000E+01  1.00800000E+00  1.00800000E+00  1.60000000E+01
  1.00800000E+00  1.00800000E+00  1.60000000E+01  1.00800000E+00  1.00800000E+00
  1.60000000E+01  1.00800000E+00  1.00800000E+00  1.60000000E+01  1.00800000E+00
  1.00800000E+00  1.60000000E+01  1.00800000E+00  1.00800000E+00  1.60000000E+01
  1.00800000E+00  1.00800000E+00  1.60000000E+01  1.00800000E+00  1.00800000E+00
  1.60000000E+01  1.00800000E+00  1.00800000E+00  1.60000000E+01  1.00800000E+00
  1.00800000E+00  1.60000000E+01  1.00800000E+00  1.00800000E+00  1.60000000E+01
  1.00800000E+00  1.00800000E+00  1.60000000E+01  1.00800000E+00  1.00800000E+00
  1.60000000E+01  1.00800000E+00  1.00800000E+00  1.60000000E+01  1.00800000E+00
  1.00800000E+00  1.60000000E+01  1.00800000E+00  1.00800000E+00  1.60000000E+01
  1.00800000E+00  1.00800000E+00  1.60000000E+01  1.00800000E+00  1.00800000E+00
  1.60000000E+01  1.00800000E+00  1.00800000E+00  1.60000000E+01  1.00800000E+00
  1.00800000E+00  1.60000000E+01  1.00800000E+00  1.00800000E+00  1.60000000E+01
  1.00800000E+00  1.00800000E+00  1.60000000E+01  1.00800000E+00  1.00800000E+00
  1.60000000E+01  1.00800000E+00  1.00800000E+00  1.60000000E+01  1.00800000E+00
  1.00800000E+00  1.60000000E+01  1.00800000E+00  1.00800000E+00  1.60000000E+01
  1.00800000E+00  1.00800000E+00  1.60000000E+01  1.00800000E+00  1.00800000E+00
  1.60000000E+01  1.00800000E+00  1.00800000E+00  1.60000000E+01  1.00800000E+00
  1.00800000E+00  1.60000000E+01  1.00800000E+00  1.00800000E+00  1.60000000E+01
  1.00800000E+00  1.00800000E+00  1.60000000E+01  1.00800000E+00  1.00800000E+00
  1.60000000E+01  1.00800000E+00  1.00800000E+00  1.60000000E+01  1.00800000E+00
  1.00800000E+00  1.60000000E+01  1.00800000E+00  1.00800000E+00  1.60000000E+01
  1.00800000E+00  1.00800000E+00  1.60000000E+01  1.00800000E+00  1.00800000E+00
  1.60000000E+01  1.00800000E+00  1.00800000E+00  1.60000000E+01  1.00800000E+00
  1.00800000E+00  1.60000000E+01  1.00800000E+00  1.00800000E+00  1.60000000E+01
  1.00800000E+00  1.00800000E+00  1.60000000E+01  1.00800000E+00  1.00800000E+00
  1.60000000E+01  1.00800000E+00  1.00800000E+00  1.60000000E+01  1.00800000E+00
  1.00800000E+00  1.60000000E+01  1.00800000E+00  1.00800000E+00  1.60000000E+01
  1.00800000E+00  1.00800000E+00  1.60000000E+01  1.00800000E+00  1.00800000E+00
  1.60000000E+01  1.00800000E+00  1.00800000E+00  1.60000000E+01  1.00800000E+00
  1.00800000E+00  1.60000000E+01  1.00800000E+00  1.00800000E+00  1.60000000E+01
  1.00800000E+00  1.00800000E+00  1.60000000E+01  1.00800000E+00  1.00800000E+00
  1.60000000E+01  1.00800000E+00  1.00800000E+00  1.60000000E+01  1.00800000E+00
  1.00800000E+00  1.60000000E+01  1.00800000E+00  1.00800000E+00  1.60000000E+01
  1.00800000E+00  1.00800000E+00  1.60000000E+01  1.00800000E+00  1.00800000E+00
  1.60000000E+01  1.00800000E+00  1.00800000E+00  1.60000000E+01  1.00800000E+00
  1.00800000E+00  1.60000000E+01  1.00800000E+00  1.00800000E+00  1.60000000E+01
  1.00800000E+00  1.00800000E+00  1.60000000E+01  1.00800000E+00  1.00800000E+00
  1.60000000E+01  1.00800000E+00  1.00800000E+00  1.60000000E+01  1.00800000E+00
  1.00800000E+00  1.60000000E+01  1.00800000E+00  1.00800000E+00  1.60000000E+01
  1.00800000E+00  1.00800000E+00  1.60000000E+01  1.00800000E+00  1.00800000E+00
  1.60000000E+01  1.00800000E+00  1.00800000E+00  1.60000000E+01  1.00800000E+00
  1.00800000E+00  1.60000000E+01  1.00800000E+00  1.00800000E+00  1.60000000E+01
  1.00800000E+00  1.00800000E+00  1.60000000E+01  1.00800000E+00  1.00800000E+00
  1.60000000E+01  1.00800000E+00  1.00800000E+00  1.60000000E+01  1.00800000E+00
  1.00800000E+00  1.60000000E+01  1.00800000E+00  1.00800000E+00  1.60000000E+01
  1.00800000E+00  1.00800000E+00  1.60000000E+01  1.00800000E+00  1.00800000E+00
  1.60000000E+01  1.00800000E+00  1.00800000E+00  1.60000000E+01  1.00800000E+00
  1.00800000E+00  1.60000000E+01  1.00800000E+00  1.00800000E+00  1.60000000E+01
  1.00800000E+00  1.00800000E+00  1.60000000E+01  1.00800000E+00  1.00800000E+00
  1.60000000E+01  1.00800000E+00  1.00800000E+00  1.60000000E+01  1.00800000E+00
  1.00800000E+00  1.60000000E+01  1.00800000E+00  1.00800000E+00  1.60000000E+01
  1.00800000E+00  1.00800000E+00  1.60000000E+01  1.00800000E+00  1.00800000E+00
  1.60000000E+01  1.00800000E+00  1.00800000E+00  1.60000000E+01  1.00800000E+00
  1.00800000E+00  1.60000000E+01  1.00800000E+00  1.00800000E+00  1.60000000E+01
  1.00800000E+00  1.00800000E+00  1.60000000E+01  1.00800000E+00  1.00800000E+00
  1.60000000E+01  1.00800000E+00  1.00800000E+00  1.60000000E+01  1.00800000E+00
  1.00800000E+00  1.60000000E+01  1.00800000E+00  1.00800000E+00  1.60000000E+01
  1.00800000E+00  1.00800000E+00  1.60000000E+01  1.00800000E+00  1.00800000E+00
  1.60000000E+01  1.00800000E+00  1.00800000E+00  1.60000000E+01  1.00800000E+00
  1.00800000E+00  1.60000000E+01  1.00800000E+00  1.00800000E+00  1.60000000E+01
  1.00800000E+00  1.00800000E+00  1.60000000E+01  1.00800000E+00  1.00800000E+00
  1.60000000E+01  1.00800000E+00  1.00800000E+00  1.60000000E+01  1.00800000E+00
  1.00800000E+00  1.60000000E+01  1.00800000E+00  1.00800000E+00  1.60000000E+01
  1.00800000E+00  1.00800000E+00  1.60000000E+01  1.00800000E+00  1.00800000E+00
  1.60000000E+01  1.00800000E+00  1.00800000E+00  1.60000000E+01  1.00800000E+00
  1.00800000E+00  1.60000000E+01  1.00800000E+00  1.00800000E+00  1.60000000E+01
  1.00800000E+00  1.00800000E+00  1.60000000E+01  1.00800000E+00  1.00800000E+00
  1.60000000E+01  1.00800000E+00  1.00800000E+00  1.60000000E+01  1.00800000E+00
  1.00800000E+00  1.60000000E+01  1.00800000E+00  1.00800000E+00  1.60000000E+01
  1.00800000E+00  1.00800000E+00  1.60000000E+01  1.00800000E+00  1.00800000E+00
  1.60000000E+01  1.00800000E+00  1.00800000E+00  1.60000000E+01  1.00800000E+00
  1.00800000E+00  1.60000000E+01  1.00800000E+00  1.00800000E+00  1.60000000E+01
  1.00800000E+00  1.00800000E+00  1.60000000E+01  1.00800000E+00  1.00800000E+00
  1.60000000E+01  1.00800000E+00  1.00800000E+00  1.60000000E+01  1.00800000E+00
  1.00800000E+00  1.60000000E+01  1.00800000E+00  1.00800000E+00  1.60000000E+01
  1.00800000E+00  1.00800000E+00  1.60000000E+01  1.00800000E+00  1.00800000E+00
  1.60000000E+01  1.00800000E+00  1.00800000E+00  1.60000000E+01  1.00800000E+00
  1.00800000E+00  1.60000000E+01  1.00800000E+00  1.00800000E+00  1.60000000E+01
  1.00800000E+00  1.00800000E+00  1.60000000E+01  1.00800000E+00  1.00800000E+00
  1.60000000E+01  1.00800000E+00  1.00800000E+00  1.60000000E+01  1.00800000E+00
  1.00800000E+00  1.60000000E+01  1.00800000E+00  1.00800000E+00  1.60000000E+01
  1.00800000E+00  1.00800000E+00  1.60000000E+01  1.00800000E+00  1.00800000E+00
  1.60000000E+01  1.00800000E+00  1.00800000E+00  1.60000000E+01  1.00800000E+00
  1.00800000E+00  1.60000000E+01  1.00800000E+00  1.00800000E+00  1.60000000E+01
  1.00800000E+00  1.00800000E+00  1.60000000E+01  1.00800000E+00  1.00800000E+00
  1.60000000E+01  1.00800000E+00  1.00800000E+00  1.60000000E+01  1.00800000E+00
  1.00800000E+00  1.60000000E+01  1.00800000E+00  1.00800000E+00  1.60000000E+01
  1.00800000E+00  1.00800000E+00  1.60000000E+01  1.00800000E+00  1.00800000E+00
  1.60000000E+01  1.00800000E+00  1.00800000E+00  1.60000000E+01  1.00800000E+00
  1.00800000E+00  1.60000000E+01  1.00800000E+00  1.00800000E+00  1.60000000E+01
  1.00800000E+00  1.00800000E+00  1.60000000E+01  1.00800000E+00  1.00800000E+00
  1.60000000E+01  1.00800000E+00  1.00800000E+00  1.60000000E+01  1.00800000E+00
  1.00800000E+00  1.60000000E+01  1.00800000E+00  1.00800000E+00  1.60000000E+01
  1.00800000E+00  1.00800000E+00  1.60000000E+01  1.00800000E+00  1.00800000E+00
  1.60000000E+01  1.00800000E+00  1.00800000E+00  1.60000000E+01  1.00800000E+00
  1.00800000E+00  1.60000000E+01  1.00800000E+00  1.00800000E+00  1.60000000E+01
  1.00800000E+00  1.00800000E+00  1.60000000E+01  1.00800000E+00  1.00800000E+00
  1.60000000E+01  1.00800000E+00  1.00800000E+00  1.60000000E+01  1.00800000E+00
  1.00800000E+00  1.60000000E+01  1.00800000E+00  1.00800000E+00  1.60000000E+01
  1.00800000E+00  1.00800000E+00  1.60000000E+01  1.00800000E+00  1.00800000E+00
  1.60000000E+01  1.00800000E+00  1.00800000E+00  1.60000000E+01  1.00800000E+00
  1.00800000E+00  1.60000000E+01  1.00800000E+00  1.00800000E+00  1.60000000E+01
  1.00800000E+00  1.00800000E+00  1.60000000E+01  1.00800000E+00  1.00800000E+00
  1.60000000E+01  1.00800000E+00  1.00800000E+00  1.60000000E+01  1.00800000E+00
  1.00800000E+00  1.60000000E+01  1.00800000E+00  1.00800000E+00  1.60000000E+01
  1.00800000E+00  1.00800000E+00  1.60000000E+01  1.00800000E+00  1.00800000E+00
  1.60000000E+01  1.00800000E+00  1.00800000E+00  1.60000000E+01  1.00800000E+00
  1.00800000E+00  1.60000000E+01  1.00800000E+00  1.00800000E+00  1.60000000E+01
  1.00800000E+00  1.00800000E+00  1.60000000E+01  1.00800000E+00  1.00800000E+00
  1.60000000E+01  1.00800000E+00  1.00800000E+00  1.60000000E+01  1.00800000E+00
  1.00800000E+00  1.60000000E+01  1.00800000E+00  1.00800000E+00  1.60000000E+01
  1.00800000E+00  1.00800000E+00  1.60000000E+01  1.00800000E+00  1.00800000E+00
  1.60000000E+01  1.00800000E+00  1.00800000E+00  1.60000000E+01  1.00800000E+00
  1.00800000E+00  1.60000000E+01  1.00800000E+00  1.00800000E+00  1.60000000E+01
  1.00800000E+00  1.00800000E+00  1.60000000E+01  1.00800000E+00  1.00800000E+00
  1.60000000E+01  1.00800000E+00  1.00800000E+00  1.60000000E+01  1.00800000E+00
  1.00800000E+00  1.60000000E+01  1.00800000E+00  1.00800000E+00  1.60000000E+01
  1.00800000E+00  1.00800000E+00  1.60000000E+01  1.00800000E+00  1.00800000E+00
  1.60000000E+01  1.00800000E+00  1.00800000E+00  1.60000000E+01  1.00800000E+00
  1.00800000E+00  1.60000000E+01  1.00800000E+00  1.00800000E+00  1.60000000E+01
  1.00800000E+00  1.00800000E+00  1.60000000E+01  1.00800000E+00  1.00800000E+00
  1.60000000E+01  1.00800000E+00  1.00800000E+00  1.60000000E+01  1.00800000E+00
  1.00800000E+00  1.60000000E+01  1.00800000E+00  1.00800000E+00  1.60000000E+01
  1.00800000E+00  1.00800000E+00  1.60000000E+01  1.00800000E+00  1.00800000E+00
  1.60000000E+01  1.00800000E+00  1.00800000E+00  1.60000000E+01  1.00800000E+00
  1.00800000E+00  1.60000000E+01  1.00800000E+00  1.00800000E+00  1.60000000E+01
  1.00800000E+00  1.00800000E+00  1.60000000E+01  1.00800000E+00  1.00800000E+00
  1.60000000E+01  1.00800000E+00  1.00800000E+00  1.60000000E+01  1.00800000E+00
  1.00800000E+00  1.60000000E+01  1.00800000E+00  1.00800000E+00  1.60000000E+01
  1.00800000E+00  1.00800000E+00  1.60000000E+01  1.00800000E+00  1.00800000E+00
  1.60000000E+01  1.00800000E+00  1.00800000E+00  1.60000000E+01  1.00800000E+00
  1.00800000E+00  1.60000000E+01  1.00800000E+00  1.00800000E+00  1.60000000E+01
  1.00800000E+00  1.00800000E+00  1.60000000E+01  1.00800000E+00  1.00800000E+00
  1.60000000E+01  1.00800000E+00  1.00800000E+00  1.60000000E+01  1.00800000E+00
  1.00800000E+00  1.60000000E+01  1.00800000E+00  1.00800000E+00  1.60000000E+01
  1.00800000E+00  1.00800000E+00  1.60000000E+01  1.00800000E+00  1.00800000E+00
  1.60000000E+01  1.00800000E+00  1.00800000E+00  1.60000000E+01  1.00800000E+00
  1.00800000E+00  1.60000000E+01  1.00800000E+00  1.00800000E+00  1.60000000E+01
  1.00800000E+00  1.00800000E+00  1.60000000E+01  1.00800000E+00  1.00800000E+00
  1.60000000E+01  1.00800000E+00  1.00800000E+00  1.60000000E+01  1.00800000E+00
  1.00800000E+00  1.60000000E+01  1.00800000E+00  1.00800000E+00  1.60000000E+01
  1.00800000E+00  1.00800000E+00  1.60000000E+01  1.00800000E+00  1.00800000E+00
  1.60000000E+01  1.00800000E+00  1.00800000E+00  1.60000000E+01  1.00800000E+00
  1.00800000E+00  1.60000000E+01  1.00800000E+00  1.00800000E+00  1.60000000E+01
  1.00800000E+00  1.00800000E+00  1.60000000E+01  1.00800000E+00  1.00800000E+00
  1.60000000E+01  1.00800000E+00  1.00800000E+00  1.60000000E+01  1.00800000E+00
  1.00800000E+00  1.60000000E+01  1.00800000E+00  1.00800000E+00  1.60000000E+01
  1.00800000E+00  1.00800000E+00  1.60000000E+01  1.00800000E+00  1.00800000E+00
  1.60000000E+01  1.00800000E+00  1.00800000E+00  1.60000000E+01  1.00800000E+00
  1.00800000E+00  1.60000000E+01  1.00800000E+00  1.00800000E+00  1.60000000E+01
  1.00800000E+00  1.00800000E+00  1.60000000E+01  1.00800000E+00  1.00800000E+00
  1.60000000E+01  1.00800000E+00  1.00800000E+00  1.60000000E+01  1.00800000E+00
  1.00800000E+00  1.60000000E+01  1.00800000E+00  1.00800000E+00  1.60000000E+01
  1.00800000E+00  1.00800000E+00  1.60000000E+01  1.00800000E+00  1.00800000E+00
  1.60000000E+01  1.00800000E+00  1.00800000E+00  1.60000000E+01  1.00800000E+00
  1.00800000E+00  1.60000000E+01  1.00800000E+00  1.00800000E+00  1.60000000E+01
  1.00800000E+00  1.00800000E+00  1.60000000E+01  1.00800000E+00  1.00800000E+00
  1.60000000E+01  1.00800000E+00  1.00800000E+00  1.60000000E+01  1.00800000E+00
  1.00800000E+00  1.60000000E+01  1.00800000E+00  1.00800000E+00  1.60000000E+01
  1.00800000E+00  1.00800000E+00  1.60000000E+01  1.00800000E+00  1.00800000E+00
  1.60000000E+01  1.00800000E+00  1.00800000E+00  1.60000000E+01  1.00800000E+00
  1.00800000E+00  1.60000000E+01  1.00800000E+00  1.00800000E+00  1.60000000E+01
  1.00800000E+00  1.00800000E+00  1.60000000E+01  1.00800000E+00  1.00800000E+00
  1.60000000E+01  1.00800000E+00  1.00800000E+00  1.60000000E+01  1.00800000E+00
  1.00800000E+00  1.60000000E+01  1.00800000E+00  1.00800000E+00  1.60000000E+01
  1.00800000E+00  1.00800000E+00  1.60000000E+01  1.00800000E+00  1.00800000E+00
  1.60000000E+01  1.00800000E+00  1.00800000E+00  1.60000000E+01  1.00800000E+00
  1.00800000E+00  1.60000000E+01  1.00800000E+00  1.00800000E+00  1.60000000E+01
  1.00800000E+00  1.00800000E+00  1.60000000E+01  1.00800000E+00  1.00800000E+00
  1.60000000E+01  1.00800000E+00  1.00800000E+00  1.60000000E+01  1.00800000E+00
  1.00800000E+00  1.60000000E+01  1.00800000E+00  1.00800000E+00  1.60000000E+01
  1.00800000E+00  1.00800000E+00  1.60000000E+01  1.00800000E+00  1.00800000E+00
  1.60000000E+01  1.00800000E+00  1.00800000E+00  1.60000000E+01  1.00800000E+00
  1.00800000E+00  1.60000000E+01  1.00800000E+00  1.00800000E+00  1.60000000E+01
  1.00800000E+00  1.00800000E+00  1.60000000E+01  1.00800000E+00  1.00800000E+00
  1.60000000E+01  1.00800000E+00  1.00800000E+00  1.60000000E+01  1.00800000E+00
  1.00800000E+00  1.60000000E+01  1.00800000E+00  1.00800000E+00  1.60000000E+01
  1.00800000E+00  1.00800000E+00  1.60000000E+01  1.00800000E+00  1.00800000E+00
  1.60000000E+01  1.00800000E+00  1.00800000E+00  1.60000000E+01  1.00800000E+00
  1.00800000E+00  1.60000000E+01  1.00800000E+00  1.00800000E+00  1.60000000E+01
  1.00800000E+00  1.00800000E+00  1.60000000E+01  1.00800000E+00  1.00800000E+00
  1.60000000E+01  1.00800000E+00  1.00800000E+00  1.60000000E+01  1.00800000E+00
  1.00800000E+00  1.60000000E+01  1.00800000E+00  1.00800000E+00  1.60000000E+01
  1.00800000E+00  1.00800000E+00  1.60000000E+01  1.00800000E+00  1.00800000E+00
  1.60000000E+01  1.00800000E+00  1.00800000E+00  1.60000000E+01  1.00800000E+00
  1.00800000E+00  1.60000000E+01  1.00800000E+00  1.00800000E+00  1.60000000E+01
  1.00800000E+00  1.00800000E+00  1.60000000E+01  1.00800000E+00  1.00800000E+00
  1.60000000E+01  1.00800000E+00  1.00800000E+00  1.60000000E+01  1.00800000E+00
  1.00800000E+00  1.60000000E+01  1.00800000E+00  1.00800000E+00  1.60000000E+01
  1.00800000E+00  1.00800000E+00  1.60000000E+01  1.00800000E+00  1.00800000E+00
  1.60000000E+01  1.00800000E+00  1.00800000E+00  1.60000000E+01  1.00800000E+00
  1.00800000E+00  1.60000000E+01  1.00800000E+00  1.00800000E+00  1.60000000E+01
  1.00800000E+00  1.00800000E+00  1.60000000E+01  1.00800000E+00  1.00800000E+00
  1.60000000E+01  1.00800000E+00  1.00800000E+00  1.60000000E+01  1.00800000E+00
  1.00800000E+00  1.60000000E+01  1.00800000E+00  1.00800000E+00  1.60000000E+01
  1.00800000E+00  1.00800000E+00  1.60000000E+01  1.00800000E+00  1.00800000E+00
  1.60000000E+01  1.00800000E+00  1.00800000E+00  1.60000000E+01  1.00800000E+00
  1.00800000E+00  1.60000000E+01  1.00800000E+00  1.00800000E+00  1.60000000E+01
  1.00800000E+00  1.00800000E+00  1.60000000E+01  1.00800000E+00  1.00800000E+00
  1.60000000E+01  1.00800000E+00  1.00800000E+00  1.60000000E+01  1.00800000E+00
  1.00800000E+00  1.60000000E+01  1.00800000E+00  1.00800000E+00  1.60000000E+01
  1.00800000E+00  1.00800000E+00  1.60000000E+01  1.00800000E+00  1.00800000E+00
  1.60000000E+01  1.00800000E+00  1.00800000E+00  1.60000000E+01  1.00800000E+00
  1.00800000E+00  1.60000000E+01  1.00800000E+00  1.00800000E+00  1.60000000E+01
  1.00800000E+00  1.00800000E+00  1.60000000E+01  1.00800000E+00  1.00800000E+00
  1.60000000E+01  1.00800000E+00  1.00800000E+00  1.60000000E+01  1.00800000E+00
  1.00800000E+00  1.60000000E+01  1.00800000E+00  1.00800000E+00  1.60000000E+01
  1.00800000E+00  1.00800000E+00  1.60000000E+01  1.00800000E+00  1.00800000E+00
  1.60000000E+01  1.00800000E+00  1.00800000E+00  1.60000000E+01  1.00800000E+00
  1.00800000E+00  1.60000000E+01  1.00800000E+00  1.00800000E+00  1.60000000E+01
  1.00800000E+00  1.00800000E+00  1.60000000E+01  1.00800000E+00  1.00800000E+00
  1.60000000E+01  1.00800000E+00  1.00800000E+00  1.60000000E+01  1.00800000E+00
  1.00800000E+00  1.60000000E+01  1.00800000E+00  1.00800000E+00  1.60000000E+01
  1.00800000E+00  1.00800000E+00  1.60000000E+01  1.00800000E+00  1.00800000E+00
  1.60000000E+01  1.00800000E+00  1.00800000E+00  1.60000000E+01  1.00800000E+00
  1.00800000E+00  1.60000000E+01  1.00800000E+00  1.00800000E+00  1.60000000E+01
  1.00800000E+00  1.00800000E+00  1.60000000E+01  1.00800000E+00  1.00800000E+00
  1.60000000E+01  1.00800000E+00  1.00800000E+00  1.60000000E+01  1.00800000E+00
  1.00800000E+00  1.60000000E+01  1.00800000E+00  1.00800000E+00  1.60000000E+01
  1.00800000E+00  1.00800000E+00  1.60000000E+01  1.00800000E+00  1.00800000E+00
  1.60000000E+01  1.00800000E+00  1.00800000E+00  1.60000000E+01  1.00800000E+00
  1.00800000E+00  1.60000000E+01  1.00800000E+00  1.00800000E+00  1.60000000E+01
  1.00800000E+00  1.00800000E+00  1.60000000E+01  1.00800000E+00  1.00800000E+00
  1.60000000E+01  1.00800000E+00  1.00800000E+00  1.60000000E+01  1.00800000E+00
  1.00800000E+00  1.60000000E+01  1.00800000E+00  1.00800000E+00  1.60000000E+01
  1.00800000E+00  1.00800000E+00  1.60000000E+01  1.00800000E+00  1.00800000E+00
  1.60000000E+01  1.00800000E+00  1.00800000E+00  1.60000000E+01  1.00800000E+00
  1.00800000E+00  1.60000000E+01  1.00800000E+00  1.00800000E+00  1.60000000E+01
  1.00800000E+00  1.00800000E+00  1.60000000E+01  1.00800000E+00  1.00800000E+00
  1.60000000E+01  1.00800000E+00  1.00800000E+00  1.60000000E+01  1.00800000E+00
  1.00800000E+00  1.60000000E+01  1.00800000E+00  1.00800000E+00  1.60000000E+01
  1.00800000E+00  1.00800000E+00  1.60000000E+01  1.00800000E+00  1.00800000E+00
  1.60000000E+01  1.00800000E+00  1.00800000E+00  1.60000000E+01  1.00800000E+00
  1.00800000E+00  1.60000000E+01  1.00800000E+00  1.00800000E+00  1.60000000E+01
  1.00800000E+00  1.00800000E+00  1.60000000E+01  1.00800000E+00  1.00800000E+00
  1.60000000E+01  1.00800000E+00  1.00800000E+00  1.60000000E+01  1.00800000E+00
  1.00800000E+00  1.60000000E+01  1.00800000E+00  1.00800000E+00  1.60000000E+01
  1.00800000E+00  1.00800000E+00  1.60000000E+01  1.00800000E+00  1.00800000E+00
  1.60000000E+01  1.00800000E+00  1.00800000E+00  1.60000000E+01  1.00800000E+00
  1.00800000E+00  1.60000000E+01  1.00800000E+00  1.00800000E+00  1.60000000E+01
  1.00800000E+00  1.00800000E+00  1.60000000E+01  1.00800000E+00  1.00800000E+00
  1.60000000E+01  1.00800000E+00  1.00800000E+00  1.60000000E+01  1.00800000E+00
  1.00800000E+00  1.60000000E+01  1.00800000E+00  1.00800000E+00  1.60000000E+01
  1.00800000E+00  1.00800000E+00  1.60000000E+01  1.00800000E+00  1.00800000E+00
  1.60000000E+01  1.00800000E+00  1.00800000E+00  1.60000000E+01  1.00800000E+00
  1.00800000E+00  1.60000000E+01  1.00800000E+00  1.00800000E+00  1.60000000E+01
  1.00800000E+00  1.00800000E+00  1.60000000E+01  1.00800000E+00  1.00800000E+00
  1.60000000E+01  1.00800000E+00  1.00800000E+00  1.60000000E+01  1.00800000E+00
  1.00800000E+00  1.60000000E+01  1.00800000E+00  1.00800000E+00  1.60000000E+01
  1.00800000E+00  1.00800000E+00  1.60000000E+01  1.00800000E+00  1.00800000E+00
  1.60000000E+01  1.00800000E+00  1.00800000E+00  1.60000000E+01  1.00800000E+00
  1.00800000E+00  1.60000000E+01  1.00800000E+00  1.00800000E+00  1.60000000E+01
  1.00800000E+00  1.00800000E+00  1.60000000E+01  1.00800000E+00  1.00800000E+00
  1.60000000E+01  1.00800000E+00  1.00800000E+00  1.60000000E+01  1.00800000E+00
  1.00800000E+00  1.60000000E+01  1.00800000E+00  1.00800000E+00  1.60000000E+01
  1.00800000E+00  1.00800000E+00  1.60000000E+01  1.00800000E+00  1.00800000E+00
  1.60000000E+01  1.00800000E+00  1.00800000E+00  1.60000000E+01  1.00800000E+00
  1.00800000E+00  1.60000000E+01  1.00800000E+00  1.00800000E+00  1.60000000E+01
  1.00800000E+00  1.00800000E+00  1.60000000E+01  1.00800000E+00  1.00800000E+00
  1.60000000E+01  1.00800000E+00  1.00800000E+00  1.60000000E+01  1.00800000E+00
  1.00800000E+00  1.60000000E+01  1.00800000E+00  1.00800000E+00  1.60000000E+01
  1.00800000E+00  1.00800000E+00  1.60000000E+01  1.00800000E+00  1.00800000E+00
  1.60000000E+01  1.00800000E+00  1.00800000E+00  1.60000000E+01  1.00800000E+00
  1.00800000E+00  1.60000000E+01  1.00800000E+00  1.00800000E+00  1.60000000E+01
  1.00800000E+00  1.00800000E+00  1.60000000E+01  1.00800000E+00  1.00800000E+00
  1.60000000E+01  1.00800000E+00  1.00800000E+00  1.60000000E+01  1.00800000E+00
  1.00800000E+00  1.60000000E+01  1.00800000E+00  1.00800000E+00  1.60000000E+01
  1.00800000E+00  1.00800000E+00  1.60000000E+01  1.00800000E+00  1.00800000E+00
  1.60000000E+01  1.00800000E+00  1.00800000E+00  1.60000000E+01  1.00800000E+00
  1.00800000E+00  1.60000000E+01  1.00800000E+00  1.00800000E+00  1.60000000E+01
  1.00800000E+00  1.00800000E+00  1.60000000E+01  1.00800000E+00  1.00800000E+00
  1.60000000E+01  1.00800000E+00  1.00800000E+00  1.60000000E+01  1.00800000E+00
  1.00800000E+00  1.60000000E+01  1.00800000E+00  1.00800000E+00  1.60000000E+01
  1.00800000E+00  1.00800000E+00  1.60000000E+01  1.00800000E+00  1.00800000E+00
  1.60000000E+01  1.00800000E+00  1.00800000E+00  1.60000000E+01  1.00800000E+00
  1.00800000E+00  1.60000000E+01  1.00800000E+00  1.00800000E+00  1.60000000E+01
  1.00800000E+00  1.00800000E+00  1.60000000E+01  1.00800000E+00  1.00800000E+00
  1.60000000E+01  1.00800000E+00  1.00800000E+00  1.60000000E+01  1.00800000E+00
  1.00800000E+00  1.60000000E+01  1.00800000E+00  1.00800000E+00  1.60000000E+01
  1.00800000E+00  1.00800000E+00  1.60000000E+01  1.00800000E+00  1.00800000E+00
  1.60000000E+01  1.00800000E+00  1.00800000E+00  1.60000000E+01  1.00800000E+00
  1.00800000E+00  1.60000000E+01  1.00800000E+00  1.00800000E+00  1.60000000E+01
  1.00800000E+00  1.00800000E+00  1.60000000E+01  1.00800000E+00  1.00800000E+00
  1.60000000E+01  1.00800000E+00  1.00800000E+00  1.60000000E+01  1.00800000E+00
  1.00800000E+00  1.60000000E+01  1.00800000E+00  1.00800000E+00  1.60000000E+01
  1.00800000E+00  1.00800000E+00  1.60000000E+01  1.00800000E+00  1.00800000E+00
  1.60000000E+01  1.00800000E+00  1.00800000E+00  1.60000000E+01  1.00800000E+00
  1.00800000E+00  1.60000000E+01  1.00800000E+00  1.00800000E+00  1.60000000E+01
  1.00800000E+00  1.00800000E+00  1.60000000E+01  1.00800000E+00  1.00800000E+00
  1.60000000E+01  1.00800000E+00  1.00800000E+00  1.60000000E+01  1.00800000E+00
  1.00800000E+00  1.60000000E+01  1.00800000E+00  1.00800000E+00  1.60000000E+01
  1.00800000E+00  1.00800000E+00  1.60000000E+01  1.00800000E+00  1.00800000E+00
  1.60000000E+01  1.00800000E+00  1.00800000E+00  1.60000000E+01  1.00800000E+00
  1.00800000E+00  1.60000000E+01  1.00800000E+00  1.00800000E+00  1.60000000E+01
  1.00800000E+00  1.00800000E+00  1.60000000E+01  1.00800000E+00  1.00800000E+00
  1.60000000E+01  1.00800000E+00  1.00800000E+00  1.60000000E+01  1.00800000E+00
  1.00800000E+00  1.60000000E+01  1.00800000E+00  1.00800000E+00  1.60000000E+01
  1.00800000E+00  1.00800000E+00  1.60000000E+01  1.00800000E+00  1.00800000E+00
  1.60000000E+01  1.00800000E+00  1.00800000E+00  1.60000000E+01  1.00800000E+00
  1.00800000E+00  1.60000000E+01  1.00800000E+00  1.00800000E+00  1.60000000E+01
  1.00800000E+00  1.00800000E+00  1.60000000E+01  1.00800000E+00  1.00800000E+00
  1.60000000E+01  1.00800000E+00  1.00800000E+00  1.60000000E+01  1.00800000E+00
  1.00800000E+00  1.60000000E+01  1.00800000E+00  1.00800000E+00  1.60000000E+01
  1.00800000E+00  1.00800000E+00  1.60000000E+01  1.00800000E+00  1.00800000E+00
  1.60000000E+01  1.00800000E+00  1.00800000E+00  1.60000000E+01  1.00800000E+00
  1.00800000E+00  1.60000000E+01  1.00800000E+00  1.00800000E+00  1.60000000E+01
  1.00800000E+00  1.00800000E+00  1.60000000E+01  1.00800000E+00  1.00800000E+00
  1.60000000E+01  1.00800000E+00  1.00800000E+00  1.60000000E+01  1.00800000E+00
  1.00800000E+00  1.60000000E+01  1.00800000E+00  1.00800000E+00  1.60000000E+01
  1.00800000E+00  1.00800000E+00  1.60000000E+01  1.00800000E+00  1.00800000E+00
  1.60000000E+01  1.00800000E+00  1.00800000E+00  1.60000000E+01  1.00800000E+00
  1.00800000E+00  1.60000000E+01  1.00800000E+00  1.00800000E+00  1.60000000E+01
  1.00800000E+00  1.00800000E+00  1.60000000E+01  1.00800000E+00  1.00800000E+00
  1.60000000E+01  1.00800000E+00  1.00800000E+00  1.60000000E+01  1.00800000E+00
  1.00800000E+00  1.60000000E+01  1.00800000E+00  1.00800000E+00  1.60000000E+01
  1.00800000E+00  1.00800000E+00  1.60000000E+01  1.00800000E+00  1.00800000E+00
  1.60000000E+01  1.00800000E+00  1.00800000E+00  1.60000000E+01  1.00800000E+00
  1.00800000E+00  1.60000000E+01  1.00800000E+00  1.00800000E+00  1.60000000E+01
  1.00800000E+00  1.00800000E+00  1.60000000E+01  1.00800000E+00  1.00800000E+00
  1.60000000E+01  1.00800000E+00  1.00800000E+00  1.60000000E+01  1.00800000E+00
  1.00800000E+00  1.60000000E+01  1.00800000E+00  1.00800000E+00  1.60000000E+01
  1.00800000E+00  1.00800000E+00  1.60000000E+01  1.00800000E+00  1.00800000E+00
  1.60000000E+01  1.00800000E+00  1.00800000E+00  1.60000000E+01  1.00800000E+00
  1.00800000E+00  1.60000000E+01  1.00800000E+00  1.00800000E+00  1.60000000E+01
  1.00800000E+00  1.00800000E+00  1.60000000E+01  1.00800000E+00  1.00800000E+00
  1.60000000E+01  1.00800000E+00  1.00800000E+00  1.60000000E+01  1.00800000E+00
  1.00800000E+00  1.60000000E+01  1.00800000E+00  1.00800000E+00  1.60000000E+01
  1.00800000E+00  1.00800000E+00  1.60000000E+01  1.00800000E+00  1.00800000E+00
  1.60000000E+01  1.00800000E+00  1.00800000E+00  1.60000000E+01  1.00800000E+00
  1.00800000E+00  1.60000000E+01  1.00800000E+00  1.00800000E+00  1.60000000E+01
  1.00800000E+00  1.00800000E+00  1.60000000E+01  1.00800000E+00  1.00800000E+00
  1.60000000E+01  1.00800000E+00  1.00800000E+00  1.60000000E+01  1.00800000E+00
  1.00800000E+00  1.60000000E+01  1.00800000E+00  1.00800000E+00  1.60000000E+01
  1.00800000E+00  1.00800000E+00  1.60000000E+01  1.00800000E+00  1.00800000E+00
  1.60000000E+01  1.00800000E+00  1.00800000E+00  1.60000000E+01  1.00800000E+00
  1.00800000E+00  1.60000000E+01  1.00800000E+00  1.00800000E+00  1.60000000E+01
  1.00800000E+00  1.00800000E+00  1.60000000E+01  1.00800000E+00  1.00800000E+00
  1.60000000E+01  1.00800000E+00  1.00800000E+00  1.60000000E+01  1.00800000E+00
  1.00800000E+00  1.60000000E+01  1.00800000E+00  1.00800000E+00  1.60000000E+01
  1.00800000E+00  1.00800000E+00  1.60000000E+01  1.00800000E+00  1.00800000E+00
  1.60000000E+01  1.00800000E+00  1.00800000E+00  1.60000000E+01  1.00800000E+00
  1.00800000E+00  1.60000000E+01  1.00800000E+00  1.00800000E+00  1.60000000E+01
  1.00800000E+00  1.00800000E+00  1.60000000E+01  1.00800000E+00  1.00800000E+00
  1.60000000E+01  1.00800000E+00  1.00800000E+00  1.60000000E+01  1.00800000E+00
  1.00800000E+00  1.60000000E+01  1.00800000E+00  1.00800000E+00  1.60000000E+01
  1.00800000E+00  1.00800000E+00  1.60000000E+01  1.00800000E+00  1.00800000E+00
  1.60000000E+01  1.00800000E+00  1.00800000E+00  1.60000000E+01  1.00800000E+00
  1.00800000E+00  1.60000000E+01  1.00800000E+00  1.00800000E+00  1.60000000E+01
  1.00800000E+00  1.00800000E+00  1.60000000E+01  1.00800000E+00  1.00800000E+00
  1.60000000E+01  1.00800000E+00  1.00800000E+00  1.60000000E+01  1.00800000E+00
  1.00800000E+00  1.60000000E+01  1.00800000E+00  1.00800000E+00  1.60000000E+01
  1.00800000E+00  1.00800000E+00  1.60000000E+01  1.00800000E+00  1.00800000E+00
  1.60000000E+01  1.00800000E+00  1.00800000E+00  1.60000000E+01  1.00800000E+00
  1.00800000E+00  1.60000000E+01  1.00800000E+00  1.00800000E+00  1.60000000E+01
  1.00800000E+00  1.00800000E+00  1.60000000E+01  1.00800000E+00  1.00800000E+00
  1.60000000E+01  1.00800000E+00  1.00800000E+00  1.60000000E+01  1.00800000E+00
  1.00800000E+00  1.60000000E+01  1.00800000E+00  1.00800000E+00  1.60000000E+01
  1.00800000E+00  1.00800000E+00  1.60000000E+01  1.00800000E+00  1.00800000E+00
  1.60000000E+01  1.00800000E+00  1.00800000E+00  1.60000000E+01  1.00800000E+00
  1.00800000E+00  1.60000000E+01  1.00800000E+00  1.00800000E+00  1.60000000E+01
  1.00800000E+00  1.00800000E+00  1.60000000E+01  1.00800000E+00  1.00800000E+00
  1.60000000E+01  1.00800000E+00  1.00800000E+00  1.60000000E+01  1.00800000E+00
  1.00800000E+00  1.60000000E+01  1.00800000E+00  1.00800000E+00  1.60000000E+01
  1.00800000E+00  1.00800000E+00  1.60000000E+01  1.00800000E+00  1.00800000E+00
  1.60000000E+01  1.00800000E+00  1.00800000E+00  1.60000000E+01  1.00800000E+00
  1.00800000E+00  1.60000000E+01  1.00800000E+00  1.00800000E+00  1.60000000E+01
  1.00800000E+00  1.00800000E+00  1.60000000E+01  1.00800000E+00  1.00800000E+00
  1.60000000E+01  1.00800000E+00  1.00800000E+00  1.60000000E+01  1.00800000E+00
  1.00800000E+00  1.60000000E+01  1.00800000E+00  1.00800000E+00  1.60000000E+01
  1.00800000E+00  1.00800000E+00  1.60000000E+01  1.00800000E+00  1.00800000E+00
  1.60000000E+01  1.00800000E+00  1.00800000E+00  1.60000000E+01  1.00800000E+00
  1.00800000E+00  1.60000000E+01  1.00800000E+00  1.00800000E+00  1.60000000E+01
  1.00800000E+00  1.00800000E+00  1.60000000E+01  1.00800000E+00  1.00800000E+00
  1.60000000E+01  1.00800000E+00  1.00800000E+00  1.60000000E+01  1.00800000E+00
  1.00800000E+00  1.60000000E+01  1.00800000E+00  1.00800000E+00  1.60000000E+01
  1.00800000E+00  1.00800000E+00  1.60000000E+01  1.00800000E+00  1.00800000E+00
  1.60000000E+01  1.00800000E+00  1.00800000E+00  1.60000000E+01  1.00800000E+00
  1.00800000E+00  1.60000000E+01  1.00800000E+00  1.00800000E+00  1.60000000E+01
  1.00800000E+00  1.00800000E+00  1.60000000E+01  1.00800000E+00  1.00800000E+00
  1.60000000E+01  1.00800000E+00  1.00800000E+00  1.60000000E+01  1.00800000E+00
  1.00800000E+00  1.60000000E+01  1.00800000E+00  1.00800000E+00  1.60000000E+01
  1.00800000E+00  1.00800000E+00  1.60000000E+01  1.00800000E+00  1.00800000E+00
  1.60000000E+01  1.00800000E+00  1.00800000E+00  1.60000000E+01  1.00800000E+00
  1.00800000E+00  1.60000000E+01  1.00800000E+00  1.00800000E+00  1.60000000E+01
  1.00800000E+00  1.00800000E+00  1.60000000E+01  1.00800000E+00  1.00800000E+00
  1.60000000E+01  1.00800000E+00  1.00800000E+00  1.60000000E+01  1.00800000E+00
  1.00800000E+00  1.60000000E+01  1.00800000E+00  1.00800000E+00  1.60000000E+01
  1.00800000E+00  1.00800000E+00  1.60000000E+01  1.00800000E+00  1.00800000E+00
  1.60000000E+01  1.00800000E+00  1.00800000E+00  1.60000000E+01  1.00800000E+00
  1.00800000E+00  1.60000000E+01  1.00800000E+00  1.00800000E+00  1.60000000E+01
  1.00800000E+00  1.00800000E+00  1.60000000E+01  1.00800000E+00  1.00800000E+00
  1.60000000E+01  1.00800000E+00  1.00800000E+00  1.60000000E+01  1.00800000E+00
  1.00800000E+00  1.60000000E+01  1.00800000E+00  1.00800000E+00  1.60000000E+01
  1.00800000E+00  1.00800000E+00  1.60000000E+01  1.00800000E+00  1.00800000E+00
  1.60000000E+01  1.00800000E+00  1.00800000E+00  1.60000000E+01  1.00800000E+00
  1.00800000E+00  1.60000000E+01  1.00800000E+00  1.00800000E+00  1.60000000E+01
  1.00800000E+00  1.00800000E+00  1.60000000E+01  1.00800000E+00  1.00800000E+00
  1.60000000E+01  1.00800000E+00  1.00800000E+00  1.60000000E+01  1.00800000E+00
  1.00800000E+00  1.60000000E+01  1.00800000E+00  1.00800000E+00  1.60000000E+01
  1.00800000E+00  1.00800000E+00  1.60000000E+01  1.00800000E+00  1.00800000E+00
  1.60000000E+01  1.00800000E+00  1.00800000E+00  1.60000000E+01  1.00800000E+00
  1.00800000E+00  1.60000000E+01  1.00800000E+00  1.00800000E+00  1.60000000E+01
  1.00800000E+00  1.00800000E+00  1.60000000E+01  1.00800000E+00  1.00800000E+00
  1.60000000E+01  1.00800000E+00  1.00800000E+00  1.60000000E+01  1.00800000E+00
  1.00800000E+00  1.60000000E+01  1.00800000E+00  1.00800000E+00  1.60000000E+01
  1.00800000E+00  1.00800000E+00  1.60000000E+01  1.00800000E+00  1.00800000E+00
  1.60000000E+01  1.00800000E+00  1.00800000E+00  1.60000000E+01  1.00800000E+00
  1.00800000E+00  1.60000000E+01  1.00800000E+00  1.00800000E+00  1.60000000E+01
  1.00800000E+00  1.00800000E+00  1.60000000E+01  1.00800000E+00  1.00800000E+00
  1.60000000E+01  1.00800000E+00  1.00800000E+00  1.60000000E+01  1.00800000E+00
  1.00800000E+00  1.60000000E+01  1.00800000E+00  1.00800000E+00  1.60000000E+01
  1.00800000E+00  1.00800000E+00  1.60000000E+01  1.00800000E+00  1.00800000E+00
  1.60000000E+01  1.00800000E+00  1.00800000E+00  1.60000000E+01  1.00800000E+00
  1.00800000E+00  1.60000000E+01  1.00800000E+00  1.00800000E+00  1.60000000E+01
  1.00800000E+00  1.00800000E+00  1.60000000E+01  1.00800000E+00  1.00800000E+00
  1.60000000E+01  1.00800000E+00  1.00800000E+00  1.60000000E+01  1.00800000E+00
  1.00800000E+00  1.60000000E+01  1.00800000E+00  1.00800000E+00  1.60000000E+01
  1.00800000E+00  1.00800000E+00  1.60000000E+01  1.00800000E+00  1.00800000E+00
  1.60000000E+01  1.00800000E+00  1.00800000E+00  1.60000000E+01  1.00800000E+00
  1.00800000E+00  1.60000000E+01  1.00800000E+00  1.00800000E+00  1.60000000E+01
  1.00800000E+00  1.00800000E+00  1.60000000E+01  1.00800000E+00  1.00800000E+00
  1.60000000E+01  1.00800000E+00  1.00800000E+00  1.60000000E+01  1.00800000E+00
  1.00800000E+00  1.60000000E+01  1.00800000E+00  1.00800000E+00  1.60000000E+01
  1.00800000E+00  1.00800000E+00  1.60000000E+01  1.00800000E+00  1.00800000E+00
  1.60000000E+01  1.00800000E+00  1.00800000E+00  1.60000000E+01  1.00800000E+00
  1.00800000E+00  1.60000000E+01  1.00800000E+00  1.00800000E+00  1.60000000E+01
  1.00800000E+00  1.00800000E+00  1.60000000E+01  1.00800000E+00  1.00800000E+00
  1.60000000E+01  1.00800000E+00  1.00800000E+00  1.60000000E+01  1.00800000E+00
  1.00800000E+00  1.60000000E+01  1.00800000E+00  1.00800000E+00  1.60000000E+01
  1.00800000E+00  1.00800000E+00  1.60000000E+01  1.00800000E+00  1.00800000E+00
  1.60000000E+01  1.00800000E+00  1.00800000E+00  1.60000000E+01  1.00800000E+00
  1.00800000E+00  1.60000000E+01  1.00800000E+00  1.00800000E+00  1.60000000E+01
  1.00800000E+00  1.00800000E+00  1.60000000E+01  1.00800000E+00  1.00800000E+00
  1.60000000E+01  1.00800000E+00  1.00800000E+00  1.60000000E+01  1.00800000E+00
  1.00800000E+00  1.60000000E+01  1.00800000E+00  1.00800000E+00  1.60000000E+01
  1.00800000E+00  1.00800000E+00  1.60000000E+01  1.00800000E+00  1.00800000E+00
  1.60000000E+01  1.00800000E+00  1.00800000E+00  1.60000000E+01  1.00800000E+00
  1.00800000E+00  1.60000000E+01  1.00800000E+00  1.00800000E+00  1.60000000E+01
  1.00800000E+00  1.00800000E+00  1.60000000E+01  1.00800000E+00  1.00800000E+00
  1.60000000E+01  1.00800000E+00  1.00800000E+00  1.60000000E+01  1.00800000E+00
  1.00800000E+00  1.60000000E+01  1.00800000E+00  1.00800000E+00  1.60000000E+01
  1.00800000E+00  1.00800000E+00  1.60000000E+01  1.00800000E+00  1.00800000E+00
  1.60000000E+01  1.00800000E+00  1.00800000E+00  1.60000000E+01  1.00800000E+00
  1.00800000E+00  1.60000000E+01  1.00800000E+00  1.00800000E+00  1.60000000E+01
  1.00800000E+00  1.00800000E+00  1.60000000E+01  1.00800000E+00  1.00800000E+00
  1.60000000E+01  1.00800000E+00  1.00800000E+00  1.60000000E+01  1.00800000E+00
  1.00800000E+00  1.60000000E+01  1.00800000E+00  1.00800000E+00  1.60000000E+01
  1.00800000E+00  1.00800000E+00  1.60000000E+01  1.00800000E+00  1.00800000E+00
  1.60000000E+01  1.00800000E+00  1.00800000E+00  1.60000000E+01  1.00800000E+00
  1.00800000E+00  1.60000000E+01  1.00800000E+00  1.00800000E+00  1.60000000E+01
  1.00800000E+00  1.00800000E+00  1.60000000E+01  1.00800000E+00  1.00800000E+00
  1.60000000E+01  1.00800000E+00  1.00800000E+00  1.60000000E+01  1.00800000E+00
  1.00800000E+00  1.60000000E+01  1.00800000E+00  1.00800000E+00  1.60000000E+01
  1.00800000E+00  1.00800000E+00  1.60000000E+01  1.00800000E+00  1.00800000E+00
  1.60000000E+01  1.00800000E+00  1.00800000E+00  1.60000000E+01  1.00800000E+00
  1.00800000E+00  1.60000000E+01  1.00800000E+00  1.00800000E+00  1.60000000E+01
  1.00800000E+00  1.00800000E+00  1.60000000E+01  1.00800000E+00  1.00800000E+00
  1.60000000E+01  1.00800000E+00  1.00800000E+00  1.60000000E+01  1.00800000E+00
  1.00800000E+00  1.60000000E+01  1.00800000E+00  1.00800000E+00  1.60000000E+01
  1.00800000E+00  1.00800000E+00  1.60000000E+01  1.00800000E+00  1.00800000E+00
  1.60000000E+01  1.00800000E+00  1.00800000E+00  1.60000000E+01  1.00800000E+00
  1.00800000E+00  1.60000000E+01  1.00800000E+00  1.00800000E+00  1.60000000E+01
  1.00800000E+00  1.00800000E+00  1.60000000E+01  1.00800000E+00  1.00800000E+00
  1.60000000E+01  1.00800000E+00  1.00800000E+00  1.60000000E+01  1.00800000E+00
  1.00800000E+00  1.60000000E+01  1.00800000E+00  1.00800000E+00  1.60000000E+01
  1.00800000E+00  1.00800000E+00  1.60000000E+01  1.00800000E+00  1.00800000E+00
  1.60000000E+01  1.00800000E+00  1.00800000E+00  1.60000000E+01  1.00800000E+00
  1.00800000E+00  1.60000000E+01  1.00800000E+00  1.00800000E+00  1.60000000E+01
  1.00800000E+00  1.00800000E+00  1.60000000E+01  1.00800000E+00  1.00800000E+00
  1.60000000E+01  1.00800000E+00  1.00800000E+00  1.60000000E+01  1.00800000E+00
  1.00800000E+00  1.60000000E+01  1.00800000E+00  1.00800000E+00  1.60000000E+01
  1.00800000E+00  1.00800000E+00  1.60000000E+01  1.00800000E+00  1.00800000E+00
  1.60000000E+01  1.00800000E+00  1.00800000E+00  1.60000000E+01  1.00800000E+00
  1.00800000E+00  1.60000000E+01  1.00800000E+00  1.00800000E+00  1.60000000E+01
  1.00800000E+00  1.00800000E+00  1.60000000E+01  1.00800000E+00  1.00800000E+00
  1.60000000E+01  1.00800000E+00  1.00800000E+00  1.60000000E+01  1.00800000E+00
  1.00800000E+00  1.60000000E+01  1.00800000E+00  1.00800000E+00  1.60000000E+01
  1.00800000E+00  1.00800000E+00  1.60000000E+01  1.00800000E+00  1.00800000E+00
  1.60000000E+01  1.00800000E+00  1.00800000E+00  1.60000000E+01  1.00800000E+00
  1.00800000E+00  1.60000000E+01  1.00800000E+00  1.00800000E+00  1.60000000E+01
  1.00800000E+00  1.00800000E+00  1.60000000E+01  1.00800000E+00  1.00800000E+00
  1.60000000E+01  1.00800000E+00  1.00800000E+00  1.60000000E+01  1.00800000E+00
  1.00800000E+00  1.60000000E+01  1.00800000E+00  1.00800000E+00  1.60000000E+01
  1.00800000E+00  1.00800000E+00  1.60000000E+01  1.00800000E+00  1.00800000E+00
  1.60000000E+01  1.00800000E+00  1.00800000E+00  1.60000000E+01  1.00800000E+00
  1.00800000E+00  1.60000000E+01  1.00800000E+00  1.00800000E+00  1.60000000E+01
  1.00800000E+00  1.00800000E+00  1.60000000E+01  1.00800000E+00  1.00800000E+00
  1.60000000E+01  1.00800000E+00  1.00800000E+00  1.60000000E+01  1.00800000E+00
  1.00800000E+00  1.60000000E+01  1.00800000E+00  1.00800000E+00  1.60000000E+01
  1.00800000E+00  1.00800000E+00  1.60000000E+01  1.00800000E+00  1.00800000E+00
  1.60000000E+01  1.00800000E+00  1.00800000E+00  1.60000000E+01  1.00800000E+00
  1.00800000E+00  1.60000000E+01  1.00800000E+00  1.00800000E+00  1.60000000E+01
  1.00800000E+00  1.00800000E+00  1.60000000E+01  1.00800000E+00  1.00800000E+00
  1.60000000E+01  1.00800000E+00  1.00800000E+00  1.60000000E+01  1.00800000E+00
  1.00800000E+00  1.60000000E+01  1.00800000E+00  1.00800000E+00  1.60000000E+01
  1.00800000E+00  1.00800000E+00  1.60000000E+01  1.00800000E+00  1.00800000E+00
  1.60000000E+01  1.00800000E+00  1.00800000E+00  1.60000000E+01  1.00800000E+00
  1.00800000E+00  1.60000000E+01  1.00800000E+00  1.00800000E+00  1.60000000E+01
  1.00800000E+00  1.00800000E+00  1.60000000E+01  1.00800000E+00  1.00800000E+00
  1.60000000E+01  1.00800000E+00  1.00800000E+00  1.60000000E+01  1.00800000E+00
  1.00800000E+00  1.60000000E+01  1.00800000E+00  1.00800000E+00  1.60000000E+01
  1.00800000E+00  1.00800000E+00  1.60000000E+01  1.00800000E+00  1.00800000E+00
  1.60000000E+01  1.00800000E+00  1.00800000E+00  1.60000000E+01  1.00800000E+00
  1.00800000E+00  1.60000000E+01  1.00800000E+00  1.00800000E+00  1.60000000E+01
  1.00800000E+00  1.00800000E+00  1.60000000E+01  1.00800000E+00  1.00800000E+00
%FLAG ATOM_TYPE_INDEX
%FORMAT(10I8)
       1       2       2       2       3       4       4       5       6       1
       2       3       7       3       8       3       8       8       8       3
       8       8       3       8       8       8       5       6       1       2
       3       7       3       8       3       8       8       8       3       8
       8       8       5       6       1       2       3       7       3       8
       8       3       8       8       5       9       9      10       5       6
      10      10      10       1       2       3       7       3       8       8
       3       8       8       5       6       1       2       2       5       6
       1       2       3       7       3       7       7      11       5       6
       1       2       3       7       3       7       7      11       5       6
       1       2       3       7       3       7       3       8       8       8
       9      10       5       6       1       2       3       7       3       7
       7       9      10       5       6       1       2       3       7       3
       8       3       8       8       8       3       8       8       3       8
       8       8       5       6       1       2       3       7       3       7
       7      11       5       6       1       2       3       7       3       7
       7       9      10       5       6       1       2       3       7       3
       8       8       3       8       3       8       8       8       3       8
       8       8       5       6       1       2       3       7       3       8
       8       5       5      12       5      12       5       9      10       5
      12       5      12       5       6       1       2       3       7       3
       8       8       3       8       8       5       6       1       2       2
       5       6       1       2       3       7       3       8       8       3
       8       3       8       8       8       3       8       8       8       5
       6       1       2       3       7       3       8       8       3       8
       8       5       9       9      10       5       6      10      10      10
       1       2       3       7       3       8       8       5       6       1
       2       2       5       6       1       2       3       7       3       8
       8       5       5      12       5      12       5       9      10       5
      12       5      12       5       6       1       2       3       7       3
       7       7      11       5       6       1       2       3       7       3
       8       8       5       6       1       2       2       5       6       6
       1       2       2       2       3       4       3       8       8       5
       5      12       5      12       5      12       5      12       5      12
       5       6       1       2       3       7       3       8       3       8
       8       8       3       8       8       8       5       6       1       2
       3       7       3       8       8       5       6       1       2       2
       5       6       1       2       3       7       3       8       8       3
       8       8       5       6       1       2       2       5       6       1
       2       3       7       3       8       8       5       1       2       5
      13       1       2       5      14       5       6       1       2       3
       7       3       8       8       3       8       3       8       8       8
       3       8       8       8       5       6       1       2       3       7
       3       7       7      11       5       6       1       2       3       7
       7       5       6       1       2       3       7       3       7       7
       9      10       5       6       1       2       3       7       3       8
       8       5       1       2       5      13       1       2       5      14
       5       6       1       2       3       7       3       8       8       3
       8       3       8       8       8       3       8       8       8       5
       6       1       2       3       7       3       8       3       8       8
       8       3       8       8       8       5       6       1       2       3
       7       3       8       8       3       8       8       5       9       9
      10       5       6      10      10      10       1       2       3       7
       3       8       8       8       5       6       1       2       3       7
       3       8       8       3       8       3       8       8       8       3
       8       8       8       5       6       1       2       3       7       3
       8       8       5       5      12       5      12       5       9      10
       5      12       5      12       5       6       1       2       3       7
       3       8       8       3       8       3       8       8       8       3
       8       8       8       5       6       1       2       3       7       3
       8       3       8       8       8       3       8       8       8       5
       6       1       2       3       7       3       7       7      11       5
       6       1       2       3       7       7       5       6       1       2
       3       7       3       8       8       3       8       8       5       9
       9      10       5       6      10      10      10       1       2       3
       7       3       8       8       3       8       8       3       7       7
       1       2       5       1       2       2       1       2       2       5
       6       1       2       3       7       7       5       6       1       2
       3       7       3       8       8       5       5      12       5      12
       5      12       5      12       5      12       5       6       1       2
       3       7       3       8       8       5       5      12       5      12
       5      12       5      12       5      12       5       6       1       2
       3       7       3       8       8       5       5      12       5      12
       5       9      10       5      12       5      12       5       6       1
       2       3       7       3       7       3       8       8       8       9
      10       5       6       1       3       7       7       3       8       8
       3       8       8       3       7       5       6       1       2       3
       7       3       8       8       3       8       8       3       8       8
       3       4       4       1       2       2       2       5       6       1
       2       3       7       3       8       8       8       5       6       6
      15      10      10      15      10      10      15      10      10      15
      10      10      15      10      10      15      10      10      15      10
      10      15      10      10      15      10      10      15      10      10
      15      10      10      15      10      10      15      10      10      15
      10      10      15      10      10      15      10      10      15      10
      10      15      10      10      15      10      10      15      10      10
      15      10      10      15      10      10      15      10      10      15
      10      10      15      10      10      15      10      10      15      10
      10      15      10      10      15      10      10      15      10      10
      15      10      10      15      10      10      15      10      10      15
      10      10      15      10      10      15      10      10      15      10
      10      15      10      10      15      10      10      15      10      10
      15      10      10      15      10      10      15      10      10      15
      10      10      15      10      10      15      10      10      15      10
      10      15      10      10      15      10      10      15      10      10
      15      10      10      15      10      10      15      10      10      15
      10      10      15      10      10      15      10      10      15      10
      10      15      10      10      15      10      10      15      10      10
      15      10      10      15      10      10      15      10      10      15
      10      10      15      10      10      15      10      10      15      10
      10      15      10      10      15      10      10      15      10      10
      15      10      10      15      10      10      15      10      10      15
      10      10      15      10      10      15      10      10      15      10
      10      15      10      10      15      10      10      15      10      10
      15      10      10      15      10      10      15      10      10      15
      10      10      15      10      10      15      10      10      15      10
      10      15      10      10      15      10      10      15      10      10
      15      10      10      15      10      10      15      10      10      15
      10      10      15      10      10      15      10      10      15      10
      10      15      10      10      15      10      10      15      10      10
      15      10      10      15      10      10      15      10      10      15
      10      10      15      10      10      15      10      10      15      10
      10      15      10      10      15      10      10      15      10      10
      15      10      10      15      10      10      15      10      10      15
      10      10      15      10      10      15      10      10      15      10
      10      15      10      10      15      10      10      15      10      10
      15      10      10      15      10      10      15      10      10      15
      10      10      15      10      10      15      10      10      15      10
      10      15      10      10      15      10      10      15      10      10
      15      10      10      15      10      10      15      10      10      15
      10      10      15      10      10      15      10      10      15      10
      10      15      10      10      15      10      10      15      10      10
      15      10      10      15      10      10      15      10      10      15
      10      10      15      10      10      15      10      10      15      10
      10      15      10      10      15      10      10      15      10      10
      15      10      10      15      10      10      15      10      10      15
      10      10      15      10      10      15      10      10      15      10
      10      15      10      10      15      10      10      15      10      10
      15      10      10      15      10      10      15      10      10      15
      10      10      15      10      10      15      10      10      15      10
      10      15      10      10      15      10      10      15      10      10
      15      10      10      15      10      10      15      10      10      15
      10      10      15      10      10      15      10      10      15      10
      10      15      10      10      15      10      10      15      10      10
      15      10      10      15      10      10      15      10      10      15
      10      10      15      10      10      15      10      10      15      10
      10      15      10      10      15      10      10      15      10      10
      15      10      10      15      10      10      15      10      10      15
      10      10      15      10      10      15      10      10      15      10
      10      15      10      10      15      10      10      15      10      10
      15      10      10      15      10      10      15      10      10      15
      10      10      15      10      10      15      10      10      15      10
      10      15      10      10      15      10      10      15      10      10
      15      10      10      15      10      10      15      10      10      15
      10      10      15      10      10      15      10      10      15      10
      10      15      10      10      15      10      10      15      10      10
      15      10      10      15      10      10      15      10      10      15
      10      10      15      10      10      15      10      10      15      10
      10      15      10      10      15      10      10      15      10      10
      15      10      10      15      10      10      15      10      10      15
      10      10      15      10      10      15      10      10      15      10
      10      15      10      10      15      10      10      15      10      10
      15      10      10      15      10      10      15      10      10      15
      10      10      15      10      10      15      10      10      15      10
      10      15      10      10      15      10      10      15      10      10
      15      10      10      15      10      10      15      10      10      15
      10      10      15      10      10      15      10      10      15      10
      10      15      10      10      15      10      10      15      10      10
      15      10      10      15      10      10      15      10      10      15
      10      10      15      10      10      15      10      10      15      10
      10      15      10      10      15      10      10      15      10      10
      15      10      10      15      10      10      15      10      10      15
      10      10      15      10      10      15      10      10      15      10
      10      15      10      10      15      10      10      15      10      10
      15      10      10      15      10      10      15      10      10      15
      10      10      15      10      10      15      10      10      15      10
      10      15      10      10      15      10      10      15      10      10
      15      10      10      15      10      10      15      10      10      15
      10      10      15      10      10      15      10      10      15      10
      10      15      10      10      15      10      10      15      10      10
      15      10      10      15      10      10      15      10      10      15
      10      10      15      10      10      15      10      10      15      10
      10      15      10      10      15      10      10      15      10      10
      15      10      10      15      10      10      15      10      10      15
      10      10      15      10      10      15      10      10      15      10
      10      15      10      10      15      10      10      15      10      10
      15      10      10      15      10      10      15      10      10      15
      10      10      15      10      10      15      10      10      15      10
      10      15      10      10      15      10      10      15      10      10
      15      10      10      15      10      10      15      10      10      15
      10      10      15      10      10      15      10      10      15      10
      10      15      10      10      15      10      10      15      10      10
      15      10      10      15      10      10      15      10      10      15
      10      10      15      10      10      15      10      10      15      10
      10      15      10      10      15      10      10      15      10      10
      15      10      10      15      10      10      15      10      10      15
      10      10      15      10      10      15      10      10      15      10
      10      15      10      10      15      10      10      15      10      10
      15      10      10      15      10      10      15      10      10      15
      10      10      15      10      10      15      10      10      15      10
      10      15      10      10      15      10      10      15      10      10
      15      10      10      15      10      10      15      10      10      15
      10      10      15      10      10      15      10      10      15      10
      10      15      10      10      15      10      10      15      10      10
      15      10      10      15      10      10      15      10      10      15
      10      10      15      10      10      15      10      10      15      10
      10      15      10      10      15      10      10      15      10      10
      15      10      10      15      10      10      15      10      10      15
      10      10      15      10      10      15      10      10      15      10
      10      15      10      10      15      10      10      15      10      10
      15      10      10      15      10      10      15      10      10      15
      10      10      15      10      10      15      10      10      15      10
      10      15      10      10      15      10      10      15      10      10
      15      10      10      15      10      10      15      10      10      15
      10      10      15      10      10      15      10      10      15      10
      10      15      10      10      15      10      10      15      10      10
      15      10      10      15      10      10      15      10      10      15
      10      10      15      10      10      15      10      10      15      10
      10      15      10      10      15      10      10      15      10      10
      15      10      10      15      10      10      15      10      10      15
      10      10      15      10      10      15      10      10      15      10
      10      15      10      10      15      10      10      15      10      10
      15      10      10      15      10      10      15      10      10      15
      10      10      15      10      10      15      10      10      15      10
      10      15      10      10      15      10      10      15      10      10
      15      10      10      15      10      10      15      10      10      15
      10      10      15      10      10      15      10      10      15      10
      10      15      10      10      15      10      10      15      10      10
      15      10      10      15      10      10      15      10      10      15
      10      10      15      10      10      15      10      10      15      10
      10      15      10      10      15      10      10      15      10      10
      15      10      10      15      10      10      15      10      10      15
      10      10      15      10      10      15      10      10      15      10
      10      15      10      10      15      10      10      15      10      10
      15      10      10      15      10      10      15      10      10      15
      10      10      15      10      10      15      10      10      15      10
      10      15      10      10      15      10      10      15      10      10
      15      10      10      15      10      10      15      10      10      15
      10      10      15      10      10      15      10      10      15      10
      10      15      10      10      15      10      10      15      10      10
      15      10      10      15      10      10      15      10      10      15
      10      10      15      10      10      15      10      10      15      10
      10      15      10      10      15      10      10      15      10      10
      15      10      10      15      10      10      15      10      10      15
      10      10      15      10      10      15      10      10      15      10
      10      15      10      10      15      10      10      15      10      10
      15      10      10      15      10      10      15      10      10      15
      10      10      15      10      10      15      10      10      15      10
      10      15      10      10      15      10      10      15      10      10
      15      10      10      15      10      10      15      10      10      15
      10      10      15      10      10      15      10      10      15      10
      10      15      10      10      15      10      10      15      10      10
      15      10      10      15      10      10      15      10      10      15
      10      10      15      10      10      15      10      10      15      10
      10      15      10      10      15      10      10      15      10      10
      15      10      10      15      10      10      15      10      10      15
      10      10      15      10      10      15      10      10      15      10
      10      15      10      10      15      10      10      15      10      10
      15      10      10      15      10      10      15      10      10      15
      10      10      15      10      10      15      10      10      15      10
      10      15      10      10      15      10      10      15      10      10
      15      10      10      15      10      10      15      10      10      15
      10      10      15      10      10      15      10      10      15      10
      10      15      10      10      15      10      10      15      10      10
      15      10      10      15      10      10      15      10      10      15
      10      10      15      10      10      15      10      10      15      10
      10      15      10      10      15      10      10      15      10      10
      15      10      10      15      10      10      15      10      10      15
      10      10      15      10      10      15      10      10      15      10
      10      15      10      10      15      10      10      15      10      10
      15      10      10      15      10      10      15      10      10      15
      10      10      15      10      10      15      10      10      15      10
      10      15      10      10      15      10      10      15      10      10
      15      10      10      15      10      10      15      10      10      15
      10      10      15      10      10      15      10      10      15      10
      10      15      10      10      15      10      10      15      10      10
      15      10      10      15      10      10      15      10      10      15
      10      10      15      10      10      15      10      10      15      10
      10      15      10      10      15      10      10      15      10      10
      15      10      10      15      10      10      15      10      10      15
      10      10      15      10      10      15      10      10      15      10
      10      15      10      10      15      10      10      15      10      10
      15      10      10      15      10      10      15      10      10      15
      10      10      15      10      10      15      10      10      15      10
      10      15      10      10      15      10      10      15      10      10
      15      10      10      15      10      10      15      10      10      15
      10      10      15      10      10      15      10      10      15      10
      10      15      10      10      15      10      10      15      10      10
      15      10      10      15      10      10      15      10      10      15
      10      10      15      10      10      15      10      10      15      10
      10      15      10      10      15      10      10      15      10      10
      15      10      10      15      10      10      15      10      10      15
      10      10      15      10      10      15      10      10      15      10
      10      15      10      10      15      10      10      15      10      10
      15      10      10      15      10      10      15      10      10      15
      10      10      15      10      10      15      10      10      15      10
      10      15      10      10      15      10      10      15      10      10
      15      10      10      15      10      10      15      10      10      15
      10      10      15      10      10      15      10      10      15      10
      10      15      10      10      15      10      10      15      10      10
      15      10      10      15      10      10      15      10      10      15
      10      10      15      10      10      15      10      10      15      10
      10      15      10      10      15      10      10      15      10      10
      15      10      10      15      10      10      15      10      10      15
      10      10      15      10      10      15      10      10      15      10
      10      15      10      10      15      10      10      15      10      10
      15      10      10      15      10      10      15      10      10      15
      10      10      15      10      10      15      10      10      15      10
      10      15      10      10      15      10      10      15      10      10
      15      10      10      15      10      10      15      10      10      15
      10      10      15      10      10      15      10      10      15      10
      10      15      10      10      15      10      10      15      10      10
      15      10      10      15      10      10      15      10      10      15
      10      10      15      10      10      15      10      10      15      10
      10      15      10      10      15      10      10      15      10      10
      15      10      10      15      10      10      15      10      10      15
      10      10      15      10      10      15      10      10      15      10
      10      15      10      10      15      10      10      15      10      10
      15      10      10      15      10      10      15      10      10      15
      10      10      15      10      10      15      10      10      15      10
      10      15      10      10      15      10      10      15      10      10
      15      10      10      15      10      10      15      10      10      15
      10      10      15      10      10      15      10      10      15      10
      10      15      10      10      15      10      10      15      10      10
      15      10      10      15      10      10      15      10      10      15
      10      10      15      10      10      15      10      10      15      10
      10      15      10      10      15      10      10      15      10      10
      15      10      10      15      10      10      15      10      10      15
      10      10      15      10      10      15      10      10      15      10
      10      15      10      10      15      10      10      15      10      10
      15      10      10      15      10      10      15      10      10      15
      10      10      15      10      10      15      10      10      15      10
      10      15      10      10      15      10      10      15      10      10
      15      10      10      15      10      10      15      10      10      15
      10      10      15      10      10      15      10      10      15      10
      10      15      10      10      15      10      10      15      10      10
      15      10      10      15      10      10      15      10      10      15
      10      10      15      10      10      15      10      10      15      10
      10      15      10      10      15      10      10      15      10      10
      15      10      10      15      10      10      15      10      10      15
      10      10      15      10      10      15      10      10      15      10
      10      15      10      10      15      10      10      15      10      10
      15      10      10      15      10      10      15      10      10      15
      10      10      15      10      10      15      10      10      15      10
      10      15      10      10      15      10      10      15      10      10
      15      10      10      15      10      10      15      10      10      15
      10      10      15      10      10      15      10      10      15      10
      10      15      10      10      15      10      10      15      10      10
      15      10      10      15      10      10      15      10      10      15
      10      10      15      10      10      15      10      10      15      10
      10      15      10      10      15      10      10      15      10      10
      15      10      10      15      10      10      15      10      10      15
      10      10      15      10      10      15      10      10      15      10
      10      15      10      10      15      10      10      15      10      10
      15      10      10      15      10      10      15      10      10      15
      10      10      15      10      10      15      10      10      15      10
      10      15      10      10      15      10      10      15      10      10
      15      10      10      15      10      10      15      10      10      15
      10      10      15      10      10      15      10      10      15      10
      10      15      10      10      15      10      10      15      10      10
      15      10      10      15      10      10      15      10      10      15
      10      10      15      10      10      15      10      10      15      10
      10      15      10      10      15      10      10      15      10      10
      15      10      10      15      10      10      15      10      10      15
      10      10      15      10      10      15      10      10      15      10
      10      15      10      10      15      10      10      15      10      10
      15      10      10      15      10      10      15      10      10      15
      10      10      15      10      10      15      10      10      15      10
      10      15      10      10      15      10      10      15      10      10
      15      10      10      15      10      10      15      10      10      15
      10      10      15      10      10      15      10      10      15      10
      10      15      10      10      15      10      10      15      10      10
      15      10      10      15      10      10      15      10      10      15
      10      10      15      10      10      15      10      10      15      10
      10      15      10      10      15      10      10      15      10      10
      15      10      10      15      10      10      15      10      10      15
      10      10      15      10      10      15      10      10      15      10
      10      15      10      10      15      10      10      15      10      10
      15      10      10      15      10      10      15      10      10      15
      10      10      15      10      10      15      10      10      15      10
      10      15      10      10      15      10      10      15      10      10
      15      10      10      15      10      10      15      10      10      15
      10      10      15      10      10      15      10      10      15      10
      10      15      10      10      15      10      10      15      10      10
      15      10      10      15      10      10      15      10      10      15
      10      10      15      10      10      15      10      10      15      10
      10      15      10      10      15      10      10      15      10      10
      15      10      10      15      10      10      15      10      10      15
      10      10      15      10      10      15      10      10      15      10
      10      15      10      10      15      10      10      15      10      10
      15      10      10      15      10      10      15      10      10      15
      10      10      15      10      10      15      10      10      15      10
      10      15      10      10      15      10      10      15      10      10
      15      10      10      15      10      10      15      10      10      15
      10      10      15      10      10      15      10      10      15      10
      10      15      10      10      15      10      10      15      10      10
      15      10      10      15      10      10      15      10      10      15
      10      10      15      10      10      15      10      10      15      10
      10      15      10      10      15      10      10      15      10      10
      15      10      10      15      10      10      15      10      10      15
      10      10      15      10      10      15      10      10      15      10
      10      15      10      10      15      10      10      15      10      10
      15      10      10      15      10      10      15      10      10      15
      10      10      15      10      10      15      10      10      15      10
      10      15      10      10      15      10      10      15      10      10
      15      10      10      15      10      10      15      10      10      15
      10      10      15      10      10      15      10      10      15      10
      10      15      10      10      15      10      10      15      10      10
      15      10      10      15      10      10      15      10      10      15
      10      10      15      10      10      15      10      10      15      10
      10      15      10      10      15      10      10      15      10      10
      15      10      10      15      10      10      15      10      10      15
      10      10      15      10      10      15      10      10      15      10
      10      15      10      10      15      10      10      15      10      10
      15      10      10      15      10      10      15      10      10      15
      10      10      15      10      10      15      10      10      15      10
      10      15      10      10      15      10      10      15      10      10
      15      10      10      15      10      10      15      10      10      15
      10      10      15      10      10      15      10      10      15      10
      10      15      10      10      15      10      10      15      10      10
      15      10      10      15      10      10      15      10      10      15
      10      10      15      10      10      15      10      10      15      10
      10      15      10      10      15      10      10      15      10      10
      15      10      10      15      10      10      15      10      10      15
      10      10      15      10      10      15      10      10      15      10
      10      15      10      10      15      10      10      15      10      10
      15      10      10      15      10      10      15      10      10      15
      10      10      15      10      10      15      10      10      15      10
      10      15      10      10      15      10      10      15      10      10
      15      10      10      15      10      10      15      10      10      15
      10      10      15      10      10      15      10      10      15      10
      10      15      10      10      15      10      10      15      10      10
      15      10      10      15      10      10      15      10      10      15
      10      10      15      10      10      15      10      10      15      10
      10      15      10      10      15      10      10      15      10      10
      15      10      10      15      10      10      15      10      10      15
      10      10      15      10      10      15      10      10      15      10
      10      15      10      10      15      10      10      15      10      10
      15      10      10      15      10      10      15      10      10      15
      10      10      15      10      10      15      10      10      15      10
      10      15      10      10      15      10      10      15      10      10
      15      10      10      15      10      10      15      10      10      15
      10      10      15      10      10      15      10      10      15      10
      10      15      10      10      15      10      10      15      10      10
      15      10      10      15      10      10      15      10      10      15
      10      10      15      10      10      15      10      10      15      10
      10      15      10      10      15      10      10      15      10      10
      15      10      10      15      10      10      15      10      10      15
      10      10      15      10      10      15      10      10      15      10
      10      15      10      10      15      10      10      15      10      10
      15      10      10      15      10      10      15      10      10      15
      10      10      15      10      10      15      10      10      15      10
      10      15      10      10      15      10      10      15      10      10
      15      10      10      15      10      10      15      10      10      15
      10      10      15      10      10      15      10      10      15      10
      10      15      10      10      15      10      10      15      10      10
      15      10      10      15      10      10      15      10      10      15
      10      10      15      10      10      15      10      10      15      10
      10      15      10      10      15      10      10      15      10      10
      15      10      10      15      10      10      15      10      10      15
      10      10      15      10      10      15      10      10      15      10
      10      15      10      10      15      10      10      15      10      10
      15      10      10      15      10      10      15      10      10      15
      10      10      15      10      10      15      10      10      15      10
      10      15      10      10      15      10      10      15      10      10
      15      10      10      15      10      10      15      10      10      15
      10      10      15      10      10      15      10      10      15      10
      10      15      10      10      15      10      10      15      10      10
      15      10      10      15      10      10      15      10      10      15
      10      10      15      10      10      15      10      10      15      10
      10      15      10      10      15      10      10      15      10      10
      15      10      10      15      10      10      15      10      10      15
      10      10      15      10      10      15      10      10      15      10
      10      15      10      10      15      10      10      15      10      10
      15      10      10      15      10      10      15      10      10      15
      10      10      15      10      10      15      10      10      15      10
      10      15      10      10      15      10      10      15      10      10
      15      10      10      15      10      10      15      10      10      15
      10      10      15      10      10      15      10      10      15      10
      10      15      10      10      15      10      10      15      10      10
      15      10      10      15      10      10      15      10      10      15
      10      10      15      10      10      15      10      10      15      10
      10      15      10      10      15      10      10      15      10      10
      15      10      10      15      10      10      15      10      10      15
      10      10      15      10      10      15      10      10      15      10
      10      15      10      10      15      10      10      15      10      10
      15      10      10      15      10      10      15      10      10      15
      10      10      15      10      10      15      10      10      15      10
      10      15      10      10      15      10      10      15      10      10
      15      10      10      15      10      10      15      10      10      15
      10      10      15      10      10      15      10      10      15      10
      10      15      10      10      15      10      10      15      10      10
      15      10      10      15      10      10      15      10      10      15
      10      10      15      10      10      15      10      10      15      10
      10      15      10      10      15      10      10      15      10      10
      15      10      10      15      10      10      15      10      10      15
      10      10      15      10      10      15      10      10      15      10
      10      15      10      10      15      10      10      15      10      10
      15      10      10      15      10      10      15      10      10      15
      10      10      15      10      10      15      10      10      15      10
      10      15      10      10      15      10      10      15      10      10
      15      10      10      15      10      10      15      10      10      15
      10      10      15      10      10      15      10      10      15      10
      10      15      10      10      15      10      10      15      10      10
      15      10      10      15      10      10      15      10      10      15
      10      10      15      10      10      15      10      10      15      10
      10      15      10      10      15      10      10      15      10      10
      15      10      10      15      10      10      15      10      10      15
      10      10      15      10      10      15      10      10      15      10
      10      15      10      10      15      10      10      15      10      10
      15      10      10      15      10      10      15      10      10      15
      10      10      15      10      10      15      10      10      15      10
      10      15      10      10      15      10      10      15      10      10
      15      10      10      15      10      10      15      10      10      15
      10      10      15      10      10      15      10      10      15      10
      10      15      10      10      15      10      10      15      10      10
      15      10      10      15      10      10      15      10      10      15
      10      10      15      10      10      15      10      10      15      10
      10      15      10      10      15      10      10      15      10      10
      15      10      10      15      10      10      15      10      10      15
      10      10      15      10      10      15      10      10      15      10
      10      15      10      10      15      10      10      15      10      10
      15      10      10      15      10      10      15      10      10      15
      10      10      15      10      10      15      10      10      15      10
      10      15      10      10      15      10      10      15      10      10
      15      10      10      15      10      10      15      10      10      15
      10      10      15      10      10      15      10      10      15      10
      10      15      10      10      15      10      10      15      10      10
      15      10      10      15      10      10      15      10      10      15
      10      10      15      10      10      15      10      10      15      10
      10      15      10      10      15      10      10      15      10      10
      15      10      10      15      10      10      15      10      10      15
      10      10      15      10      10      15      10      10      15      10
      10      15      10      10      15      10      10      15      10      10
      15      10      10      15      10      10      15      10      10      15
      10      10      15      10      10      15      10      10      15      10
      10      15      10      10      15      10      10      15      10      10
      15      10      10      15      10      10      15      10      10      15
      10      10      15      10      10      15      10      10      15      10
      10      15      10      10      15      10      10      15      10      10
      15      10      10      15      10      10      15      10      10      15
      10      10      15      10      10      15      10      10      15      10
      10      15      10      10      15      10      10      15      10      10
      15      10      10      15      10      10      15      10      10      15
      10      10      15      10      10      15      10      10      15      10
      10      15      10      10      15      10      10      15      10      10
      15      10      10      15      10      10      15      10      10      15
      10      10      15      10      10      15      10      10      15      10
      10      15      10      10      15      10      10      15      10      10
      15      10      10      15      10      10      15      10      10      15
      10      10      15      10      10      15      10      10      15      10
      10      15      10      10      15      10      10      15      10      10
      15      10      10      15      10      10      15      10      10      15
      10      10      15      10      10      15      10      10      15      10
      10      15      10      10      15      10      10      15      10      10
      15      10      10      15      10      10      15      10      10      15
      10      10      15      10      10      15      10      10      15      10
      10      15      10      10      15      10      10      15      10      10
      15      10      10      15      10      10      15      10      10      15
      10      10      15      10      10      15      10      10      15      10
      10      15      10      10      15      10      10      15      10      10
      15      10      10      15      10      10      15      10      10      15
      10      10      15      10      10      15      10      10      15      10
      10      15      10      10      15      10      10      15      10      10
      15      10      10      15      10      10      15      10      10      15
      10      10      15      10      10      15      10      10      15      10
      10      15      10      10      15      10      10      15      10      10
      15      10      10      15      10      10      15      10      10      15
      10      10      15      10      10      15      10      10      15      10
      10      15      10      10      15      10      10      15      10      10
      15      10      10      15      10      10      15      10      10      15
      10      10      15      10      10      15      10      10      15      10
      10      15      10      10      15      10      10      15      10      10
      15      10      10      15      10      10      15      10      10      15
      10      10      15      10      10      15      10      10      15      10
      10      15      10      10      15      10      10      15      10      10
      15      10      10      15      10      10      15      10      10      15
      10      10      15      10      10      15      10      10      15      10
      10      15      10      10      15      10      10      15      10      10
      15      10      10      15      10      10      15      10      10      15
      10      10      15      10      10      15      10      10      15      10
      10      15      10      10      15      10      10      15      10      10
      15      10      10      15      10      10      15      10      10      15
      10      10      15      10      10      15      10      10      15      10
      10      15      10      10      15      10      10      15      10      10
      15      10      10      15      10      10      15      10      10      15
      10      10      15      10      10      15      10      10      15      10
      10      15      10      10      15      10      10      15      10      10
      15      10      10      15      10      10      15      10      10      15
      10      10      15      10      10      15      10      10      15      10
      10      15      10      10      15      10      10      15      10      10
      15      10      10      15      10      10      15      10      10      15
      10      10      15      10      10      15      10      10      15      10
      10      15      10      10      15      10      10      15      10      10
      15      10      10      15      10      10      15      10      10      15
      10      10      15      10      10      15      10      10      15      10
      10      15      10      10      15      10      10      15      10      10
      15      10      10      15      10      10      15      10      10      15
      10      10      15      10      10      15      10      10      15      10
      10      15      10      10      15      10      10      15      10      10
      15      10      10      15      10      10      15      10      10      15
      10      10      15      10      10      15      10      10      15      10
      10      15      10      10      15      10      10      15      10      10
      15      10      10      15      10      10      15      10      10      15
      10      10      15      10      10      15      10      10      15      10
      10      15      10      10      15      10      10      15      10      10
      15      10      10      15      10      10      15      10      10      15
      10      10      15      10      10      15      10      10      15      10
      10      15      10      10      15      10      10      15      10      10
      15      10      10      15      10      10      15      10      10      15
      10      10      15      10      10      15      10      10      15      10
      10      15      10      10      15      10      10      15      10      10
      15      10      10      15      10      10      15      10      10      15
      10      10      15      10      10      15      10      10      15      10
      10      15      10      10      15      10      10      15      10      10
      15      10      10      15      10      10      15      10      10      15
      10      10      15      10      10      15      10      10      15      10
      10      15      10      10      15      10      10      15      10      10
      15      10      10      15      10      10      15      10      10      15
      10      10      15      10      10      15      10      10      15      10
      10      15      10      10      15      10      10      15      10      10
      15      10      10      15      10      10      15      10      10      15
      10      10      15      10      10      15      10      10      15      10
      10      15      10      10      15      10      10      15      10      10
      15      10      10      15      10      10      15      10      10      15
      10      10      15      10      10      15      10      10      15      10
      10      15      10      10      15      10      10      15      10      10
      15      10      10      15      10      10      15      10      10      15
      10      10      15      10      10      15      10      10      15      10
      10      15      10      10      15      10      10      15      10      10
      15      10      10      15      10      10      15      10      10      15
      10      10      15      10      10      15      10      10      15      10
      10      15      10      10      15      10      10      15      10      10
      15      10      10      15      10      10      15      10      10      15
      10      10      15      10      10      15      10      10      15      10
      10      15      10      10      15      10      10      15      10      10
      15      10      10      15      10      10      15      10      10      15
      10      10      15      10      10      15      10      10      15      10
      10      15      10      10      15      10      10      15      10      10
      15      10      10      15      10      10      15      10      10      15
      10      10      15      10      10      15      10      10      15      10
      10      15      10      10      15      10      10      15      10      10
      15      10      10      15      10      10      15      10      10      15
      10      10      15      10      10      15      10      10      15      10
      10      15      10      10      15      10      10      15      10      10
      15      10      10      15      10      10      15      10      10      15
      10      10      15      10      10      15      10      10      15      10
      10      15      10      10      15      10      10      15      10      10
      15      10      10      15      10      10      15      10      10      15
      10      10      15      10      10      15      10      10      15      10
      10      15      10      10      15      10      10      15      10      10
      15      10      10      15      10      10      15      10      10      15
      10      10      15      10      10      15      10      10      15      10
      10      15      10      10      15      10      10      15      10      10
      15      10      10      15      10      10      15      10      10      15
      10      10      15      10      10      15      10      10      15      10
      10      15      10      10      15      10      10      15      10      10
      15      10      10      15      10      10      15      10      10      15
      10      10      15      10      10      15      10      10      15      10
      10      15      10      10      15      10      10      15      10      10
      15      10      10      15      10      10      15      10      10      15
      10      10      15      10      10      15      10      10      15      10
      10      15      10      10      15      10      10      15      10      10
      15      10      10      15      10      10      15      10      10      15
      10      10      15      10      10      15      10      10      15      10
      10      15      10      10      15      10      10      15      10      10
      15      10      10      15      10      10      15      10      10      15
      10      10      15      10      10      15      10      10      15      10
      10      15      10      10      15      10      10      15      10      10
      15      10      10      15      10      10      15      10      10      15
      10      10      15      10      10      15      10      10      15      10
      10      15      10      10      15      10      10      15      10      10
      15      10      10      15      10      10      15      10      10      15
      10      10      15      10      10      15      10      10      15      10
      10      15      10      10      15      10      10      15      10      10
      15      10      10      15      10      10      15      10      10      15
      10      10      15      10      10      15      10      10      15      10
      10      15      10      10      15      10      10      15      10      10
      15      10      10      15      10      10      15      10      10      15
      10      10      15      10      10      15      10      10      15      10
      10      15      10      10      15      10      10      15      10      10
      15      10      10      15      10      10      15      10      10      15
      10      10      15      10      10      15      10      10      15      10
      10      15      10      10      15      10      10      15      10      10
      15      10      10      15      10      10      15      10      10      15
      10      10      15      10      10      15      10      10      15      10
      10      15      10      10      15      10      10      15      10      10
      15      10      10      15      10      10      15      10      10      15
      10      10      15      10      10      15      10      10      15      10
      10      15      10      10      15      10      10      15      10      10
      15      10      10      15      10      10      15      10      10      15
      10      10      15      10      10      15      10      10      15      10
      10      15      10      10      15      10      10      15      10      10
      15      10      10      15      10      10      15      10      10      15
      10      10      15      10      10      15      10      10      15      10
      10      15      10      10      15      10      10      15      10      10
      15      10      10      15      10      10      15      10      10      15
      10      10      15      10      10      15      10      10      15      10
      10      15      10      10      15      10      10      15      10      10
      15      10      10      15      10      10      15      10      10      15
      10      10      15      10      10      15      10      10      15      10
      10      15      10      10      15      10      10      15      10      10
      15      10      10      15      10      10      15      10      10      15
      10      10      15      10      10      15      10      10      15      10
      10      15      10      10      15      10      10      15      10      10
      15      10      10      15      10      10      15      10      10      15
      10      10      15      10      10      15      10      10      15      10
      10      15      10      10      15      10      10      15      10      10
      15      10      10      15      10      10      15      10      10      15
      10      10      15      10      10      15      10      10      15      10
      10      15      10      10      15      10      10      15      10      10
      15      10      10      15      10      10      15      10      10      15
      10      10      15      10      10      15      10      10      15      10
      10      15      10      10      15      10      10      15      10      10
      15      10      10      15      10      10      15      10      10      15
      10      10      15      10      10      15      10      10      15      10
      10      15      10      10      15      10      10      15      10      10
      15      10      10      15      10      10      15      10      10      15
      10      10      15      10      10      15      10      10      15      10
      10      15      10      10      15      10      10      15      10      10
      15      10      10      15      10      10      15      10      10      15
      10      10      15      10      10      15      10      10      15      10
      10      15      10      10      15      10      10      15      10      10
      15      10      10      15      10      10      15      10      10      15
      10      10      15      10      10      15      10      10      15      10
      10      15      10      10      15      10      10      15      10      10
      15      10      10      15      10      10      15      10      10      15
      10      10      15      10      10      15      10      10      15      10
      10      15      10      10      15      10      10      15      10      10
      15      10      10      15      10      10      15      10      10      15
      10      10      15      10      10      15      10      10      15      10
      10      15      10      10      15      10      10      15      10      10
      15      10      10      15      10      10      15      10      10      15
      10      10      15      10      10      15      10      10      15      10
      10      15      10      10      15      10      10      15      10      10
      15      10      10      15      10      10      15      10      10      15
      10      10      15      10      10      15      10      10      15      10
      10      15      10      10      15      10      10      15      10      10
      15      10      10      15      10      10      15      10      10      15
      10      10      15      10      10      15      10      10      15      10
      10      15      10      10      15      10      10      15      10      10
      15      10      10      15      10      10      15      10      10      15
      10      10      15      10      10      15      10      10      15      10
      10      15      10      10      15      10      10      15      10      10
      15      10      10      15      10      10      15      10      10      15
      10      10      15      10      10      15      10      10      15      10
      10      15      10      10      15      10      10      15      10      10
      15      10      10      15      10      10      15      10      10      15
      10      10      15      10      10      15      10      10      15      10
      10      15      10      10      15      10      10      15      10      10
      15      10      10      15      10      10      15      10      10      15
      10      10      15      10      10      15      10      10      15      10
      10      15      10      10      15      10      10      15      10      10
      15      10      10      15      10      10      15      10      10      15
      10      10      15      10      10      15      10      10      15      10
      10      15      10      10      15      10      10      15      10      10
      15      10      10      15      10      10      15      10      10      15
      10      10      15      10      10      15      10      10      15      10
      10      15      10      10      15      10      10      15      10      10
      15      10      10      15      10      10      15      10      10      15
      10      10      15      10      10      15      10      10      15      10
      10      15      10      10      15      10      10      15      10      10
      15      10      10      15      10      10      15      10      10      15
      10      10      15      10      10      15      10      10      15      10
      10      15      10      10      15      10      10      15      10      10
      15      10      10      15      10      10      15      10      10      15
      10      10      15      10      10      15      10      10      15      10
      10      15      10      10      15      10      10      15      10      10
      15      10      10      15      10      10      15      10      10      15
      10      10      15      10      10      15      10      10      15      10
      10      15      10      10      15      10      10      15      10      10
      15      10      10      15      10      10      15      10      10      15
      10      10      15      10      10      15      10      10      15      10
      10      15      10      10      15      10      10      15      10      10
      15      10      10      15      10      10      15      10      10      15
      10      10      15      10      10      15      10      10      15      10
      10      15      10      10      15      10      10      15      10      10
      15      10      10      15      10      10      15      10      10      15
      10      10      15      10      10      15      10      10      15      10
      10      15      10      10      15      10      10      15      10      10
      15      10      10      15      10      10      15      10      10      15
      10      10      15      10      10      15      10      10      15      10
      10      15      10      10      15      10      10      15      10      10
      15      10      10      15      10      10      15      10      10      15
      10      10      15      10      10      15      10      10      15      10
      10      15      10      10      15      10      10      15      10      10
      15      10      10      15      10      10      15      10      10      15
      10      10      15      10      10      15      10      10      15      10
      10      15      10      10      15      10      10      15      10      10
      15      10      10      15      10      10      15      10      10      15
      10      10      15      10      10      15      10      10      15      10
      10      15      10      10      15      10      10      15      10      10
      15      10      10      15      10      10      15      10      10      15
      10      10      15      10      10      15      10      10      15      10
      10      15      10      10      15      10      10      15      10      10
      15      10      10      15      10      10      15      10      10      15
      10      10      15      10      10      15      10      10      15      10
      10      15      10      10      15      10      10      15      10      10
      15      10      10      15      10      10      15      10      10      15
      10      10      15      10      10      15      10      10      15      10
      10      15      10      10      15      10      10      15      10      10
      15      10      10      15      10      10      15      10      10      15
      10      10      15      10      10      15      10      10      15      10
      10      15      10      10      15      10      10      15      10      10
      15      10      10      15      10      10      15      10      10      15
      10      10      15      10      10      15      10      10      15      10
      10      15      10      10      15      10      10      15      10      10
      15      10      10      15      10      10      15      10      10      15
      10      10      15      10      10      15      10      10      15      10
      10      15      10      10      15      10      10      15      10      10
      15      10      10      15      10      10      15      10      10      15
      10      10      15      10      10      15      10      10      15      10
      10      15      10      10      15      10      10      15      10      10
      15      10      10      15      10      10      15      10      10      15
      10      10      15      10      10      15      10      10      15      10
      10      15      10      10      15      10      10      15      10      10
      15      10      10      15      10      10      15      10      10      15
      10      10      15      10      10      15      10      10      15      10
      10      15      10      10      15      10      10      15      10      10
      15      10      10      15      10      10      15      10      10      15
      10      10      15      10      10      15      10      10      15      10
      10      15      10      10      15      10      10      15      10      10
      15      10      10      15      10      10      15      10      10      15
      10      10      15      10      10      15      10      10      15      10
      10      15      10      10      15      10      10      15      10      10
      15      10      10      15      10      10      15      10      10      15
      10      10      15      10      10      15      10      10      15      10
      10      15      10      10      15      10      10      15      10      10
      15      10      10      15      10      10      15      10      10      15
      10      10      15      10      10      15      10      10      15      10
      10      15      10      10      15      10      10      15      10      10
      15      10      10      15      10      10      15      10      10      15
      10      10      15      10      10      15      10      10      15      10
      10      15      10      10      15      10      10      15      10      10
      15      10      10      15      10      10      15      10      10      15
      10      10      15      10      10      15      10      10      15      10
      10      15      10      10      15      10      10      15      10      10
      15      10      10      15      10      10      15      10      10      15
      10      10      15      10      10      15      10      10      15      10
      10      15      10      10      15      10      10      15      10      10
      15      10      10      15      10      10      15      10      10      15
      10      10      15      10      10      15      10      10      15      10
      10      15      10      10      15      10      10      15      10      10
      15      10      10      15      10      10      15      10      10      15
      10      10      15      10      10      15      10      10      15      10
      10      15      10      10      15      10      10      15      10      10
      15      10      10      15      10      10      15      10      10      15
      10      10      15      10      10      15      10      10      15      10
      10      15      10      10      15      10      10      15      10      10
      15      10      10      15      10      10      15      10      10      15
      10      10      15      10      10      15      10      10      15      10
      10      15      10      10      15      10      10      15      10      10
      15      10      10      15      10      10      15      10      10      15
      10      10      15      10      10      15      10      10      15      10
      10      15      10      10      15      10      10      15      10      10
      15      10      10      15      10      10      15      10      10      15
      10      10      15      10      10      15      10      10      15      10
      10      15      10      10      15      10      10      15      10      10
      15      10      10      15      10      10      15      10      10      15
      10      10      15      10      10      15      10      10      15      10
      10      15      10      10      15      10      10      15      10      10
      15      10      10      15      10      10      15      10      10      15
      10      10      15      10      10      15      10      10      15      10
      10      15      10      10      15      10      10      15      10      10
      15      10      10      15      10      10      15      10      10      15
      10      10      15      10      10      15      10      10      15      10
      10      15      10      10      15      10      10      15      10      10
      15      10      10      15      10      10      15      10      10      15
      10      10      15      10      10      15      10      10      15      10
      10      15      10      10      15      10      10      15      10      10
      15      10      10      15      10      10      15      10      10      15
      10      10      15      10      10      15      10      10      15      10
      10      15      10      10      15      10      10      15      10      10
      15      10      10      15      10      10      15      10      10      15
      10      10      15      10      10      15      10      10      15      10
      10      15      10      10      15      10      10      15      10      10
      15      10      10      15      10      10      15      10      10      15
      10      10      15      10      10      15      10      10      15      10
      10      15      10      10      15      10      10      15      10      10
      15      10      10      15      10      10      15      10      10      15
      10      10      15      10      10      15      10      10      15      10
      10      15      10      10      15      10      10      15      10      10
      15      10      10      15      10      10      15      10      10      15
      10      10      15      10      10      15      10      10      15      10
      10      15      10      10      15      10      10      15      10      10
      15      10      10      15      10      10      15      10      10      15
      10      10      15      10      10      15      10      10      15      10
      10      15      10      10      15      10      10      15      10      10
      15      10      10      15      10      10      15      10      10      15
      10      10      15      10      10      15      10      10      15      10
      10      15      10      10      15      10      10      15      10      10
      15      10      10      15      10      10      15      10      10      15
      10      10      15      10      10      15      10      10      15      10
      10      15      10      10      15      10      10      15      10      10
      15      10      10      15      10      10      15      10      10      15
      10      10      15      10      10      15      10      10      15      10
      10      15      10      10      15      10      10      15      10      10
      15      10      10      15      10      10      15      10      10      15
      10      10      15      10      10      15      10      10      15      10
      10      15      10      10      15      10      10      15      10      10
      15      10      10      15      10      10      15      10      10      15
      10      10      15      10      10      15      10      10      15      10
      10      15      10      10      15      10      10      15      10      10
      15      10      10      15      10      10      15      10      10      15
      10      10      15      10      10      15      10      10      15      10
      10      15      10      10      15      10      10      15      10      10
      15      10      10      15      10      10      15      10      10      15
      10      10      15      10      10      15      10      10      15      10
      10      15      10      10      15      10      10      15      10      10
      15      10      10      15      10      10      15      10      10      15
      10      10      15      10      10      15      10      10      15      10
      10      15      10      10      15      10      10      15      10      10
      15      10      10      15      10      10      15      10      10      15
      10      10      15      10      10      15      10      10      15      10
      10      15      10      10      15      10      10      15      10      10
      15      10      10      15      10      10      15      10      10      15
      10      10      15      10      10      15      10      10      15      10
      10      15      10      10      15      10      10      15      10      10
      15      10      10      15      10      10      15      10      10      15
      10      10      15      10      10      15      10      10      15      10
      10      15      10      10      15      10      10      15      10      10
      15      10      10      15      10      10      15      10      10      15
      10      10      15      10      10      15      10      10      15      10
      10      15      10      10      15      10      10      15      10      10
      15      10      10      15      10      10      15      10      10      15
      10      10      15      10      10      15      10      10      15      10
      10      15      10      10      15      10      10      15      10      10
      15      10      10      15      10      10      15      10      10      15
      10      10      15      10      10      15      10      10      15      10
      10      15      10      10      15      10      10      15      10      10
      15      10      10      15      10      10      15      10      10      15
      10      10      15      10      10      15      10      10      15      10
      10      15      10      10      15      10      10      15      10      10
      15      10      10      15      10      10      15      10      10      15
      10      10      15      10      10      15      10      10      15      10
      10      15      10      10      15      10      10      15      10      10
      15      10      10      15      10      10      15      10      10      15
      10      10      15      10      10      15      10      10      15      10
      10      15      10      10      15      10      10      15      10      10
      15      10      10      15      10      10      15      10      10      15
      10      10      15      10      10      15      10      10      15      10
      10      15      10      10      15      10      10      15      10      10
      15      10      10      15      10      10      15      10      10      15
      10      10      15      10      10      15      10      10      15      10
      10      15      10      10      15      10      10      15      10      10
      15      10      10      15      10      10      15      10      10      15
      10      10      15      10      10      15      10      10      15      10
      10      15      10      10      15      10      10      15      10      10
      15      10      10      15      10      10      15      10      10      15
      10      10      15      10      10      15      10      10      15      10
      10      15      10      10      15      10      10      15      10      10
      15      10      10      15      10      10      15      10      10      15
      10      10      15      10      10      15      10      10      15      10
      10      15      10      10      15      10      10      15      10      10
      15      10      10      15      10      10      15      10      10      15
      10      10      15      10      10      15      10      10      15      10
      10      15      10      10      15      10      10      15      10      10
      15      10      10      15      10      10      15      10      10      15
      10      10      15      10      10      15      10      10      15      10
      10      15      10      10      15      10      10      15      10      10
      15      10      10      15      10      10      15      10      10      15
      10      10      15      10      10      15      10      10      15      10
      10      15      10      10      15      10      10      15      10      10
      15      10      10      15      10      10      15      10      10      15
      10      10      15      10      10      15      10      10      15      10
      10      15      10      10      15      10      10      15      10      10
      15      10      10      15      10      10      15      10      10      15
      10      10      15      10      10      15      10      10      15      10
      10      15      10      10      15      10      10      15      10      10
      15      10      10      15      10      10      15      10      10      15
      10      10      15      10      10      15      10      10      15      10
      10      15      10      10      15      10      10      15      10      10
      15      10      10      15      10      10      15      10      10      15
      10      10      15      10      10      15      10      10      15      10
      10      15      10      10      15      10      10      15      10      10
      15      10      10      15      10      10      15      10      10      15
      10      10      15      10      10      15      10      10      15      10
      10      15      10      10      15      10      10      15      10      10
      15      10      10      15      10      10      15      10      10      15
      10      10      15      10      10      15      10      10      15      10
      10      15      10      10      15      10      10      15      10      10
      15      10      10      15      10      10      15      10      10      15
      10      10      15      10      10      15      10      10      15      10
      10      15      10      10      15      10      10      15      10      10
      15      10      10      15      10      10      15      10      10      15
      10      10      15      10      10      15      10      10      15      10
      10      15      10      10      15      10      10      15      10      10
      15      10      10      15      10      10      15      10      10      15
      10      10      15      10      10      15      10      10      15      10
      10      15      10      10      15      10      10      15      10      10
      15      10      10      15      10      10      15      10      10      15
      10      10      15      10      10      15      10      10      15      10
      10      15      10      10      15      10      10      15      10      10
      15      10      10      15      10      10      15      10      10      15
      10      10      15      10      10      15      10      10      15      10
      10      15      10      10      15      10      10      15      10      10
      15      10      10      15      10      10      15      10      10      15
      10      10      15      10      10      15      10      10      15      10
      10      15      10      10      15      10      10      15      10      10
      15      10      10      15      10      10      15      10      10      15
      10      10      15      10      10      15      10      10      15      10
      10      15      10      10      15      10      10      15      10      10
      15      10      10      15      10      10      15      10      10      15
      10      10      15      10      10      15      10      10      15      10
      10      15      10      10      15      10      10      15      10      10
      15      10      10      15      10      10      15      10      10      15
      10      10      15      10      10      15      10      10      15      10
      10      15      10      10      15      10      10      15      10      10
      15      10      10      15      10      10      15      10      10      15
      10      10      15      10      10      15      10      10      15      10
      10      15      10      10      15      10      10      15      10      10
      15      10      10      15      10      10      15      10      10      15
      10      10      15      10      10      15      10      10      15      10
      10      15      10      10      15      10      10      15      10      10
      15      10      10      15      10      10      15      10      10      15
      10      10      15      10      10      15      10      10      15      10
      10      15      10      10      15      10      10      15      10      10
      15      10      10      15      10      10      15      10      10      15
      10      10      15      10      10      15      10      10      15      10
      10      15      10      10      15      10      10      15      10      10
      15      10      10      15      10      10      15      10      10      15
      10      10      15      10      10      15      10      10      15      10
      10      15      10      10      15      10      10      15      10      10
      15      10      10      15      10      10      15      10      10      15
      10      10      15      10      10      15      10      10      15      10
      10      15      10      10      15      10      10      15      10      10
      15      10      10      15      10      10      15      10      10      15
      10      10      15      10      10      15      10      10      15      10
      10      15      10      10      15      10      10      15      10      10
      15      10      10      15      10      10      15      10      10      15
      10      10      15      10      10      15      10      10      15      10
      10      15      10      10      15      10      10      15      10      10
      15      10      10      15      10      10      15      10      10      15
      10      10      15      10      10      15      10      10      15      10
      10      15      10      10      15      10      10      15      10      10
      15      10      10      15      10      10      15      10      10      15
      10      10      15      10      10      15      10      10      15      10
      10      15      10      10      15      10      10      15      10      10
      15      10      10      15      10      10      15      10      10      15
      10      10      15      10      10      15      10      10      15      10
      10      15      10      10      15      10      10      15      10      10
      15      10      10      15      10      10      15      10      10      15
      10      10      15      10      10      15      10      10      15      10
      10      15      10      10      15      10      10      15      10      10
      15      10      10      15      10      10      15      10      10      15
      10      10      15      10      10      15      10      10      15      10
      10      15      10      10      15      10      10      15      10      10
      15      10      10      15      10      10      15      10      10      15
      10      10      15      10      10      15      10      10      15      10
      10      15      10      10      15      10      10      15      10      10
      15      10      10      15      10      10      15      10      10      15
      10      10      15      10      10      15      10      10      15      10
      10      15      10      10      15      10      10      15      10      10
      15      10      10      15      10      10      15      10      10      15
      10      10      15      10      10      15      10      10      15      10
      10      15      10      10      15      10      10      15      10      10
      15      10      10      15      10      10      15      10      10      15
      10      10      15      10      10      15      10      10      15      10
      10      15      10      10      15      10      10      15      10      10
      15      10      10      15      10      10      15      10      10      15
      10      10      15      10      10      15      10      10      15      10
      10      15      10      10      15      10      10      15      10      10
      15      10      10      15      10      10      15      10      10      15
      10      10      15      10      10      15      10      10      15      10
      10      15      10      10      15      10      10      15      10      10
      15      10      10      15      10      10      15      10      10      15
      10      10      15      10      10      15      10      10      15      10
      10      15      10      10      15      10      10      15      10      10
      15      10      10      15      10      10      15      10      10      15
      10      10      15      10      10      15      10      10      15      10
      10      15      10      10      15      10      10      15      10      10
      15      10      10      15      10      10      15      10      10      15
      10      10      15      10      10      15      10      10      15      10
      10      15      10      10      15      10      10      15      10      10
      15      10      10      15      10      10      15      10      10      15
      10      10      15      10      10      15      10      10      15      10
      10      15      10      10      15      10      10      15      10      10
      15      10      10      15      10      10      15      10      10      15
      10      10      15      10      10      15      10      10      15      10
      10      15      10      10      15      10      10      15      10      10
      15      10      10      15      10      10      15      10      10      15
      10      10      15      10      10      15      10      10      15      10
      10      15      10      10      15      10      10      15      10      10
      15      10      10      15      10      10      15      10      10      15
      10      10      15      10      10      15      10      10      15      10
      10      15      10      10      15      10      10      15      10      10
      15      10      10      15      10      10      15      10      10      15
      10      10      15      10      10      15      10      10      15      10
      10      15      10      10      15      10      10      15      10      10
      15      10      10      15      10      10      15      10      10      15
      10      10      15      10      10      15      10      10      15      10
      10      15      10      10      15      10      10      15      10      10
      15      10      10      15      10      10      15      10      10      15
      10      10      15      10      10      15      10      10      15      10
      10      15      10      10      15      10      10      15      10      10
      15      10      10      15      10      10      15      10      10      15
      10      10      15      10      10      15      10      10      15      10
      10      15      10      10      15      10      10      15      10      10
      15      10      10      15      10      10      15      10      10      15
      10      10      15      10      10      15      10      10      15      10
      10      15      10      10      15      10      10      15      10      10
      15      10      10      15      10      10      15      10      10      15
      10      10      15      10      10      15      10      10      15      10
      10      15      10      10      15      10      10      15      10      10
      15      10      10      15      10      10      15      10      10      15
      10      10      15      10      10      15      10      10      15      10
      10      15      10      10      15      10      10      15      10      10
      15      10      10      15      10      10      15      10      10      15
      10      10      15      10      10      15      10      10      15      10
      10      15      10      10      15      10      10      15      10      10
      15      10      10      15      10      10      15      10      10      15
      10      10      15      10      10      15      10      10      15      10
      10      15      10      10      15      10      10      15      10      10
      15      10      10      15      10      10      15      10      10      15
      10      10      15      10      10      15      10      10      15      10
      10      15      10      10      15      10      10      15      10      10
      15      10      10      15      10      10      15      10      10      15
      10      10      15      10      10      15      10      10      15      10
      10      15      10      10      15      10      10      15      10      10
      15      10      10      15      10      10      15      10      10      15
      10      10      15      10      10      15      10      10      15      10
      10      15      10      10      15      10      10      15      10      10
      15      10      10      15      10      10      15      10      10      15
      10      10      15      10      10      15      10      10      15      10
      10      15      10      10      15      10      10      15      10      10
      15      10      10      15      10      10      15      10      10      15
      10      10      15      10      10      15      10      10      15      10
      10      15      10      10      15      10      10      15      10      10
      15      10      10      15      10      10      15      10      10      15
      10      10      15      10      10      15      10      10      15      10
      10      15      10      10      15      10      10      15      10      10
      15      10      10      15      10      10      15      10      10      15
      10      10      15      10      10      15      10      10      15      10
      10      15      10      10      15      10      10      15      10      10
      15      10      10      15      10      10      15      10      10      15
      10      10      15      10      10      15      10      10      15      10
      10      15      10      10      15      10      10      15      10      10
      15      10      10      15      10      10      15      10      10      15
      10      10      15      10      10      15      10      10      15      10
      10      15      10      10      15      10      10      15      10      10
      15      10      10      15      10      10      15      10      10      15
      10      10      15      10      10      15      10      10      15      10
      10      15      10      10      15      10      10      15      10      10
      15      10      10      15      10      10      15      10      10      15
      10      10      15      10      10      15      10      10      15      10
      10      15      10      10      15      10      10      15      10      10
      15      10      10      15      10      10      15      10      10      15
      10      10      15      10      10      15      10      10      15      10
      10      15      10      10      15      10      10      15      10      10
      15      10      10      15      10      10      15      10      10      15
      10      10      15      10      10      15      10      10      15      10
      10      15      10      10      15      10      10      15      10      10
      15      10      10      15      10      10      15      10      10      15
      10      10      15      10      10      15      10      10      15      10
      10      15      10      10      15      10      10      15      10      10
      15      10      10      15      10      10      15      10      10      15
      10      10      15      10      10      15      10      10      15      10
      10      15      10      10      15      10      10      15      10      10
      15      10      10      15      10      10      15      10      10      15
      10      10      15      10      10      15      10      10      15      10
      10      15      10      10      15      10      10      15      10      10
      15      10      10      15      10      10      15      10      10      15
      10      10      15      10      10      15      10      10      15      10
      10      15      10      10      15      10      10      15      10      10
      15      10      10      15      10      10      15      10      10      15
      10      10      15      10      10      15      10      10      15      10
      10      15      10      10      15      10      10      15      10      10
      15      10      10      15      10      10      15      10      10      15
      10      10      15      10      10      15      10      10      15      10
      10      15      10      10      15      10      10      15      10      10
      15      10      10      15      10      10      15      10      10      15
      10      10      15      10      10      15      10      10      15      10
      10      15      10      10      15      10      10      15      10      10
      15      10      10      15      10      10      15      10      10      15
      10      10      15      10      10      15      10      10      15      10
      10      15      10      10      15      10      10      15      10      10
      15      10      10      15      10      10      15      10      10      15
      10      10      15      10      10      15      10      10      15      10
      10      15      10      10      15      10      10      15      10      10
      15      10      10      15      10      10      15      10      10      15
      10      10      15      10      10      15      10      10      15      10
      10      15      10      10      15      10      10      15      10      10
      15      10      10      15      10      10      15      10      10      15
      10      10      15      10      10      15      10      10      15      10
      10      15      10      10      15      10      10      15      10      10
      15      10      10      15      10      10      15      10      10      15
      10      10      15      10      10      15      10      10      15      10
      10      15      10      10      15      10      10      15      10      10
      15      10      10      15      10      10      15      10      10      15
      10      10      15      10      10      15      10      10      15      10
      10      15      10      10      15      10      10      15      10      10
      15      10      10      15      10      10      15      10      10      15
      10      10      15      10      10      15      10      10      15      10
      10      15      10      10      15      10      10      15      10      10
      15      10      10      15      10      10      15      10      10      15
      10      10      15      10      10      15      10      10      15      10
      10      15      10      10      15      10      10      15      10      10
      15      10      10      15      10      10      15      10      10      15
      10      10      15      10      10      15      10      10      15      10
      10      15      10      10      15      10      10      15      10      10
      15      10      10      15      10      10      15      10      10      15
      10      10      15      10      10      15      10      10      15      10
      10      15      10      10      15      10      10      15      10      10
      15      10      10      15      10      10      15      10      10      15
      10      10      15      10      10      15      10      10      15      10
      10      15      10      10      15      10      10      15      10      10
      15      10      10      15      10      10      15      10      10      15
      10      10      15      10      10      15      10      10      15      10
      10      15      10      10      15      10      10      15      10      10
      15      10      10      15      10      10      15      10      10      15
      10      10      15      10      10      15      10      10      15      10
      10      15      10      10      15      10      10      15      10      10
      15      10      10      15      10      10      15      10      10      15
      10      10      15      10      10      15      10      10      15      10
      10      15      10      10      15      10      10      15      10      10
      15      10      10      15      10      10      15      10      10      15
      10      10      15      10      10      15      10      10      15      10
      10      15      10      10      15      10      10      15      10      10
      15      10      10      15      10      10      15      10      10      15
      10      10      15      10      10      15      10      10      15      10
      10      15      10      10      15      10      10      15      10      10
      15      10      10      15      10      10      15      10      10      15
      10      10      15      10      10      15      10      10      15      10
      10      15      10      10      15      10      10      15      10      10
      15      10      10      15      10      10      15      10      10      15
      10      10      15      10      10      15      10      10      15      10
      10      15      10      10      15      10      10      15      10      10
      15      10      10      15      10      10      15      10      10      15
      10      10      15      10      10      15      10      10      15      10
      10      15      10      10      15      10      10      15      10      10
      15      10      10      15      10      10      15      10      10      15
      10      10      15      10      10      15      10      10      15      10
      10      15      10      10      15      10      10      15      10      10
      15      10      10      15      10      10      15      10      10      15
      10      10      15      10      10      15      10      10      15      10
      10      15      10      10      15      10      10      15      10      10
      15      10      10      15      10      10      15      10      10      15
      10      10      15      10      10      15      10      10      15      10
      10      15      10      10      15      10      10      15      10      10
      15      10      10      15      10      10      15      10      10      15
      10      10      15      10      10      15      10      10      15      10
      10      15      10      10      15      10      10      15      10      10
      15      10      10      15      10      10      15      10      10      15
      10      10      15      10      10      15      10      10      15      10
      10      15      10      10      15      10      10      15      10      10
      15      10      10      15      10      10      15      10      10      15
      10      10      15      10      10      15      10      10      15      10
      10      15      10      10      15      10      10      15      10      10
      15      10      10      15      10      10      15      10      10      15
      10      10      15      10      10      15      10      10      15      10
      10      15      10      10      15      10      10      15      10      10
      15      10      10      15      10      10      15      10      10      15
      10      10      15      10      10      15      10      10      15      10
      10      15      10      10      15      10      10      15      10      10
      15      10      10      15      10      10      15      10      10      15
      10      10      15      10      10      15      10      10      15      10
      10      15      10      10      15      10      10      15      10      10
      15      10      10      15      10      10      15      10      10      15
      10      10      15      10      10      15      10      10      15      10
      10      15      10      10      15      10      10      15      10      10
      15      10      10      15      10      10      15      10      10      15
      10      10      15      10      10      15      10      10      15      10
      10      15      10      10      15      10      10      15      10      10
      15      10      10      15      10      10      15      10      10      15
      10      10      15      10      10      15      10      10      15      10
      10      15      10      10      15      10      10      15      10      10
      15      10      10      15      10      10      15      10      10      15
      10      10      15      10      10      15      10      10      15      10
      10      15      10      10      15      10      10      15      10      10
      15      10      10      15      10      10      15      10      10      15
      10      10      15      10      10      15      10      10      15      10
      10      15      10      10      15      10      10      15      10      10
      15      10      10      15      10      10      15      10      10      15
      10      10      15      10      10      15      10      10      15      10
      10      15      10      10      15      10      10      15      10      10
      15      10      10      15      10      10      15      10      10      15
      10      10      15      10      10      15      10      10      15      10
      10      15      10      10      15      10      10      15      10      10
      15      10      10      15      10      10      15      10      10      15
      10      10      15      10      10      15      10      10      15      10
      10      15      10      10      15      10      10      15      10      10
      15      10      10      15      10      10      15      10      10      15
      10      10      15      10      10      15      10      10      15      10
      10      15      10      10      15      10      10      15      10      10
      15      10      10      15      10      10      15      10      10      15
      10      10      15      10      10      15      10      10      15      10
      10      15      10      10      15      10      10      15      10      10
      15      10      10      15      10      10      15      10      10      15
      10      10      15      10      10      15      10      10      15      10
      10      15      10      10      15      10      10      15      10      10
      15      10      10      15      10      10      15      10      10      15
      10      10      15      10      10      15      10      10      15      10
      10      15      10      10      15      10      10      15      10      10
      15      10      10      15      10      10      15      10      10      15
      10      10      15      10      10      15      10      10      15      10
      10      15      10      10      15      10      10      15      10      10
      15      10      10      15      10      10      15      10      10      15
      10      10      15      10      10      15      10      10      15      10
      10      15      10      10      15      10      10      15      10      10
      15      10      10      15      10      10      15      10      10      15
      10      10      15      10      10      15      10      10      15      10
      10      15      10      10      15      10      10      15      10      10
      15      10      10      15      10      10      15      10      10      15
      10      10      15      10      10      15      10      10      15      10
      10      15      10      10      15      10      10      15      10      10
      15      10      10      15      10      10      15      10      10      15
      10      10      15      10      10      15      10      10      15      10
      10      15      10      10      15      10      10      15      10      10
      15      10      10      15      10      10      15      10      10      15
      10      10      15      10      10      15      10      10      15      10
      10      15      10      10      15      10      10      15      10      10
      15      10      10      15      10      10      15      10      10      15
      10      10      15      10      10      15      10      10      15      10
      10      15      10      10      15      10      10      15      10      10
      15      10      10      15      10      10      15      10      10      15
      10      10      15      10      10      15      10      10      15      10
      10      15      10      10      15      10      10      15      10      10
      15      10      10      15      10      10      15      10      10      15
      10      10      15      10      10      15      10      10      15      10
      10      15      10      10      15      10      10      15      10      10
      15      10      10      15      10      10      15      10      10      15
      10      10      15      10      10      15      10      10      15      10
      10      15      10      10      15      10      10      15      10      10
      15      10      10      15      10      10      15      10      10      15
      10      10      15      10      10      15      10      10      15      10
      10      15      10      10      15      10      10      15      10      10
      15      10      10      15      10      10      15      10      10      15
      10      10      15      10      10      15      10      10      15      10
      10      15      10      10      15      10      10      15      10      10
      15      10      10      15      10      10      15      10      10      15
      10      10      15      10      10      15      10      10      15      10
      10      15      10      10      15      10      10      15      10      10
      15      10      10      15      10      10      15      10      10      15
      10      10      15      10      10      15      10      10      15      10
      10      15      10      10      15      10      10      15      10      10
      15      10      10      15      10      10      15      10      10      15
      10      10      15      10      10      15      10      10      15      10
      10      15      10      10      15      10      10      15      10      10
      15      10      10      15      10      10      15      10      10      15
      10      10      15      10      10      15      10      10      15      10
      10      15      10      10      15      10      10      15      10      10
      15      10      10      15      10      10      15      10      10      15
      10      10      15      10      10      15      10      10      15      10
      10      15      10      10      15      10      10      15      10      10
      15      10      10      15      10      10      15      10      10      15
      10      10      15      10      10      15      10      10      15      10
      10      15      10      10      15      10      10      15      10      10
      15      10      10      15      10      10      15      10      10      15
      10      10      15      10      10      15      10      10      15      10
      10      15      10      10      15      10      10      15      10      10
      15      10      10      15      10      10      15      10      10      15
      10      10      15      10      10      15      10      10      15      10
      10      15      10      10      15      10      10      15      10      10
      15      10      10      15      10      10      15      10      10      15
      10      10      15      10      10      15      10      10      15      10
      10      15      10      10      15      10      10      15      10      10
      15      10      10      15      10      10      15      10      10      15
      10      10      15      10      10      15      10      10      15      10
      10      15      10      10      15      10      10      15      10      10
      15      10      10      15      10      10      15      10      10      15
      10      10      15      10      10      15      10      10      15      10
      10      15      10      10      15      10      10      15      10      10
      15      10      10      15      10      10      15      10      10      15
      10      10      15      10      10      15      10      10      15      10
      10      15      10      10      15      10      10      15      10      10
      15      10      10      15      10      10      15      10      10      15
      10      10      15      10      10      15      10      10      15      10
      10      15      10      10      15      10      10      15      10      10
      15      10      10      15      10      10      15      10      10      15
      10      10      15      10      10      15      10      10      15      10
      10      15      10      10      15      10      10      15      10      10
      15      10      10      15      10      10      15      10      10      15
      10      10      15      10      10      15      10      10      15      10
      10      15      10      10      15      10      10      15      10      10
      15      10      10      15      10      10      15      10      10      15
      10      10      15      10      10      15      10      10      15      10
      10      15      10      10      15      10      10      15      10      10
      15      10      10      15      10      10      15      10      10      15
      10      10      15      10      10      15      10      10      15      10
      10      15      10      10      15      10      10      15      10      10
      15      10      10      15      10      10      15      10      10      15
      10      10      15      10      10      15      10      10      15      10
      10      15      10      10      15      10      10      15      10      10
      15      10      10      15      10      10      15      10      10      15
      10      10      15      10      10      15      10      10      15      10
      10      15      10      10      15      10      10      15      10      10
      15      10      10      15      10      10      15      10      10      15
      10      10      15      10      10      15      10      10      15      10
      10      15      10      10      15      10      10      15      10      10
      15      10      10      15      10      10      15      10      10      15
      10      10      15      10      10      15      10      10      15      10
      10      15      10      10      15      10      10      15      10      10
      15      10      10      15      10      10      15      10      10      15
      10      10      15      10      10      15      10      10      15      10
      10      15      10      10      15      10      10      15      10      10
      15      10      10      15      10      10      15      10      10      15
      10      10      15      10      10      15      10      10      15      10
      10      15      10      10      15      10      10      15      10      10
      15      10      10      15      10      10      15      10      10      15
      10      10      15      10      10      15      10      10      15      10
      10      15      10      10      15      10      10      15      10      10
      15      10      10      15      10      10      15      10      10      15
      10      10      15      10      10      15      10      10      15      10
      10      15      10      10      15      10      10      15      10      10
      15      10      10      15      10      10      15      10      10      15
      10      10      15      10      10      15      10      10      15      10
      10      15      10      10      15      10      10      15      10      10
      15      10      10      15      10      10      15      10      10      15
      10      10      15      10      10      15      10      10      15      10
      10      15      10      10      15      10      10      15      10      10
      15      10      10      15      10      10      15      10      10      15
      10      10      15      10      10      15      10      10      15      10
      10      15      10      10      15      10      10      15      10      10
      15      10      10      15      10      10      15      10      10      15
      10      10      15      10      10      15      10      10      15      10
      10      15      10      10      15      10      10      15      10      10
      15      10      10      15      10      10      15      10      10      15
      10      10      15      10      10      15      10      10      15      10
      10      15      10      10      15      10      10      15      10      10
      15      10      10      15      10      10      15      10      10      15
      10      10      15      10      10      15      10      10      15      10
      10      15      10      10      15      10      10      15      10      10
      15      10      10      15      10      10      15      10      10      15
      10      10      15      10      10      15      10      10      15      10
      10      15      10      10      15      10      10      15      10      10
      15      10      10      15      10      10      15      10      10      15
      10      10      15      10      10      15      10      10      15      10
      10      15      10      10      15      10      10      15      10      10
      15      10      10      15      10      10      15      10      10      15
      10      10      15      10      10      15      10      10      15      10
      10      15      10      10      15      10      10      15      10      10
      15      10      10      15      10      10      15      10      10      15
      10      10      15      10      10      15      10      10      15      10
      10      15      10      10      15      10      10      15      10      10
      15      10      10      15      10      10      15      10      10      15
      10      10      15      10      10      15      10      10      15      10
      10      15      10      10      15      10      10      15      10      10
      15      10      10      15      10      10      15      10      10      15
      10      10      15      10      10      15      10      10      15      10
      10      15      10      10      15      10      10      15      10      10
      15      10      10      15      10      10      15      10      10      15
      10      10      15      10      10      15      10      10      15      10
      10      15      10      10      15      10      10      15      10      10
      15      10      10      15      10      10      15      10      10      15
      10      10      15      10      10      15      10      10      15      10
      10      15      10      10      15      10      10      15      10      10
      15      10      10      15      10      10      15      10      10      15
      10      10      15      10      10      15      10      10      15      10
      10      15      10      10      15      10      10      15      10      10
      15      10      10      15      10      10      15      10      10      15
      10      10      15      10      10      15      10      10      15      10
      10      15      10      10      15      10      10      15      10      10
      15      10      10      15      10      10      15      10      10      15
      10      10      15      10      10      15      10      10      15      10
      10      15      10      10      15      10      10      15      10      10
      15      10      10      15      10      10      15      10      10      15
      10      10      15      10      10      15      10      10      15      10
      10      15      10      10      15      10      10      15      10      10
      15      10      10      15      10      10      15      10      10      15
      10      10      15      10      10      15      10      10      15      10
      10      15      10      10      15      10      10      15      10      10
      15      10      10      15      10      10      15      10      10      15
      10      10      15      10      10      15      10      10      15      10
      10      15      10      10      15      10      10      15      10      10
      15      10      10      15      10      10      15      10      10      15
      10      10      15      10      10      15      10      10      15      10
      10      15      10      10      15      10      10      15      10      10
      15      10      10      15      10      10      15      10      10      15
      10      10      15      10      10      15      10      10      15      10
      10      15      10      10      15      10      10      15      10      10
      15      10      10      15      10      10      15      10      10      15
      10      10      15      10      10      15      10      10      15      10
      10      15      10      10      15      10      10      15      10      10
      15      10      10      15      10      10      15      10      10      15
      10      10      15      10      10      15      10      10      15      10
      10      15      10      10      15      10      10      15      10      10
      15      10      10      15      10      10      15      10      10      15
      10      10      15      10      10      15      10      10      15      10
      10      15      10      10      15      10      10      15      10      10
      15      10      10      15      10      10      15      10      10      15
      10      10      15      10      10      15      10      10      15      10
      10      15      10      10      15      10      10      15      10      10
      15      10      10      15      10      10      15      10      10      15
      10      10      15      10      10      15      10      10      15      10
      10      15      10      10      15      10      10      15      10      10
      15      10      10      15      10      10      15      10      10      15
      10      10      15      10      10      15      10      10      15      10
      10      15      10      10      15      10      10      15      10      10
      15      10      10      15      10      10      15      10      10      15
      10      10      15      10      10      15      10      10      15      10
      10      15      10      10      15      10      10      15      10      10
      15      10      10      15      10      10      15      10      10      15
      10      10      15      10      10      15      10      10      15      10
      10      15      10      10      15      10      10      15      10      10
      15      10      10      15      10      10      15      10      10      15
      10      10      15      10      10      15      10      10      15      10
      10      15      10      10      15      10      10      15      10      10
      15      10      10      15      10      10      15      10      10      15
      10      10      15      10      10      15      10      10      15      10
      10      15      10      10      15      10      10      15      10      10
      15      10      10      15      10      10      15      10      10      15
      10      10      15      10      10      15      10      10      15      10
      10      15      10      10      15      10      10      15      10      10
      15      10      10      15      10      10      15      10      10      15
      10      10      15      10      10      15      10      10      15      10
      10      15      10      10      15      10      10      15      10      10
      15      10      10      15      10      10      15      10      10      15
      10      10      15      10      10      15      10      10      15      10
      10      15      10      10      15      10      10      15      10      10
      15      10      10      15      10      10      15      10      10      15
      10      10      15      10      10      15      10      10      15      10
      10      15      10      10      15      10      10      15      10      10
      15      10      10      15      10      10      15      10      10      15
      10      10      15      10      10      15      10      10      15      10
      10      15      10      10      15      10      10      15      10      10
      15      10      10      15      10      10      15      10      10      15
      10      10      15      10      10      15      10      10      15      10
      10      15      10      10      15      10      10      15      10      10
      15      10      10      15      10      10      15      10      10      15
      10      10      15      10      10      15      10      10      15      10
      10      15      10      10      15      10      10      15      10      10
      15      10      10      15      10      10      15      10      10      15
      10      10      15      10      10      15      10      10      15      10
      10      15      10      10      15      10      10      15      10      10
      15      10      10      15      10      10      15      10      10      15
      10      10      15      10      10      15      10      10      15      10
      10      15      10      10      15      10      10      15      10      10
      15      10      10      15      10      10      15      10      10      15
      10      10      15      10      10      15      10      10      15      10
      10      15      10      10      15      10      10      15      10      10
      15      10      10      15      10      10      15      10      10      15
      10      10      15      10      10      15      10      10      15      10
      10      15      10      10      15      10      10      15      10      10
      15      10      10      15      10      10      15      10      10      15
      10      10      15      10      10      15      10      10      15      10
      10      15      10      10      15      10      10      15      10      10
      15      10      10      15      10      10      15      10      10      15
      10      10      15      10      10      15      10      10      15      10
      10      15      10      10      15      10      10      15      10      10
      15      10      10      15      10      10      15      10      10      15
      10      10      15      10      10      15      10      10      15      10
      10      15      10      10      15      10      10      15      10      10
      15      10      10      15      10      10      15      10      10      15
      10      10      15      10      10      15      10      10      15      10
      10      15      10      10      15      10      10      15      10      10
      15      10      10      15      10      10      15      10      10      15
      10      10      15      10      10      15      10      10      15      10
      10      15      10      10      15      10      10      15      10      10
      15      10      10      15      10      10      15      10      10      15
      10      10      15      10      10      15      10      10      15      10
      10      15      10      10      15      10      10      15      10      10
      15      10      10      15      10      10      15      10      10      15
      10      10      15      10      10      15      10      10      15      10
      10      15      10      10      15      10      10      15      10      10
      15      10      10      15      10      10      15      10      10      15
      10      10      15      10      10      15      10      10      15      10
      10      15      10      10      15      10      10      15      10      10
      15      10      10      15      10      10      15      10      10      15
      10      10      15      10      10      15      10      10      15      10
      10      15      10      10      15      10      10      15      10      10
      15      10      10      15      10      10      15      10      10      15
      10      10      15      10      10      15      10      10      15      10
      10      15      10      10      15      10      10      15      10      10
      15      10      10      15      10      10      15      10      10      15
      10      10      15      10      10      15      10      10      15      10
      10      15      10      10      15      10      10      15      10      10
      15      10      10      15      10      10      15      10      10      15
      10      10      15      10      10      15      10      10      15      10
      10      15      10      10      15      10      10      15      10      10
      15      10      10      15      10      10      15      10      10      15
      10      10      15      10      10      15      10      10      15      10
      10      15      10      10      15      10      10      15      10      10
      15      10      10      15      10      10      15      10      10      15
      10      10      15      10      10      15      10      10      15      10
      10      15      10      10      15      10      10      15      10      10
      15      10      10      15      10      10      15      10      10      15
      10      10      15      10      10      15      10      10      15      10
      10      15      10      10      15      10      10      15      10      10
      15      10      10      15      10      10      15      10      10      15
      10      10      15      10      10      15      10      10      15      10
      10      15      10      10      15      10      10      15      10      10
      15      10      10      15      10      10      15      10      10      15
      10      10      15      10      10      15      10      10      15      10
      10      15      10      10      15      10      10      15      10      10
      15      10      10      15      10      10      15      10      10      15
      10      10      15      10      10      15      10      10      15      10
      10      15      10      10      15      10      10      15      10      10
      15      10      10      15      10      10      15      10      10      15
      10      10      15      10      10      15      10      10      15      10
      10      15      10      10      15      10      10      15      10      10
      15      10      10      15      10      10      15      10      10      15
      10      10      15      10      10      15      10      10      15      10
      10      15      10      10      15      10      10      15      10      10
      15      10      10      15      10      10      15      10      10      15
      10      10      15      10      10      15      10      10      15      10
      10      15      10      10      15      10      10      15      10      10
      15      10      10      15      10      10      15      10      10      15
      10      10      15      10      10      15      10      10      15      10
      10      15      10      10      15      10      10      15      10      10
      15      10      10      15      10      10      15      10      10      15
      10      10      15      10      10      15      10      10      15      10
      10      15      10      10      15      10      10      15      10      10
      15      10      10      15      10      10      15      10      10      15
      10      10      15      10      10      15      10      10      15      10
      10      15      10      10      15      10      10      15      10      10
      15      10      10      15      10      10      15      10      10      15
      10      10      15      10      10      15      10      10      15      10
      10      15      10      10      15      10      10      15      10      10
      15      10      10      15      10      10      15      10      10      15
      10      10      15      10      10      15      10      10      15      10
      10      15      10      10      15      10      10      15      10      10
      15      10      10      15      10      10      15      10      10      15
      10      10      15      10      10      15      10      10      15      10
      10      15      10      10      15      10      10      15      10      10
      15      10      10      15      10      10      15      10      10      15
      10      10      15      10      10      15      10      10      15      10
      10      15      10      10      15      10      10      15      10      10
      15      10      10      15      10      10      15      10      10      15
      10      10      15      10      10      15      10      10      15      10
      10      15      10      10      15      10      10      15      10      10
      15      10      10      15      10      10      15      10      10      15
      10      10      15      10      10      15      10      10      15      10
      10      15      10      10      15      10      10      15      10      10
      15      10      10      15      10      10      15      10      10      15
      10      10      15      10      10      15      10      10      15      10
      10      15      10      10      15      10      10      15      10      10
      15      10      10      15      10      10      15      10      10      15
      10      10      15      10      10      15      10      10      15      10
      10      15      10      10      15      10      10      15      10      10
      15      10      10      15      10      10      15      10      10      15
      10      10      15      10      10      15      10      10      15      10
      10      15      10      10      15      10      10      15      10      10
      15      10      10      15      10      10      15      10      10      15
      10      10      15      10      10      15      10      10      15      10
      10      15      10      10      15      10      10      15      10      10
      15      10      10      15      10      10      15      10      10      15
      10      10      15      10      10      15      10      10      15      10
      10      15      10      10      15      10      10      15      10      10
      15      10      10      15      10      10      15      10      10      15
      10      10      15      10      10      15      10      10      15      10
      10      15      10      10      15      10      10      15      10      10
      15      10      10      15      10      10      15      10      10      15
      10      10      15      10      10      15      10      10      15      10
      10      15      10      10      15      10      10      15      10      10
      15      10      10      15      10      10      15      10      10      15
      10      10      15      10      10      15      10      10      15      10
      10      15      10      10      15      10      10      15      10      10
      15      10      10      15      10      10      15      10      10      15
      10      10      15      10      10      15      10      10      15      10
      10      15      10      10      15      10      10      15      10      10
      15      10      10      15      10      10      15      10      10      15
      10      10      15      10      10      15      10      10      15      10
      10      15      10      10      15      10      10      15      10      10
      15      10      10      15      10      10      15      10      10      15
      10      10      15      10      10      15      10      10      15      10
      10      15      10      10      15      10      10      15      10      10
      15      10      10      15      10      10      15      10      10      15
      10      10      15      10      10      15      10      10      15      10
      10      15      10      10      15      10      10      15      10      10
      15      10      10      15      10      10      15      10      10      15
      10      10      15      10      10      15      10      10      15      10
      10      15      10      10      15      10      10      15      10      10
      15      10      10      15      10      10      15      10      10      15
      10      10      15      10      10      15      10      10      15      10
      10      15      10      10      15      10      10      15      10      10
      15      10      10      15      10      10      15      10      10      15
      10      10      15      10      10      15      10      10      15      10
      10      15      10      10      15      10      10      15      10      10
      15      10      10      15      10      10      15      10      10      15
      10      10      15      10      10      15      10      10      15      10
      10      15      10      10      15      10      10      15      10      10
      15      10      10      15      10      10      15      10      10      15
      10      10      15      10      10      15      10      10      15      10
      10      15      10      10      15      10      10      15      10      10
      15      10      10      15      10      10      15      10      10      15
      10      10      15      10      10      15      10      10      15      10
      10      15      10      10      15      10      10      15      10      10
      15      10      10      15      10      10      15      10      10      15
      10      10      15      10      10      15      10      10      15      10
      10      15      10      10      15      10      10      15      10      10
      15      10      10      15      10      10      15      10      10      15
      10      10      15      10      10      15      10      10      15      10
      10      15      10      10      15      10      10      15      10      10
      15      10      10      15      10      10      15      10      10      15
      10      10      15      10      10      15      10      10      15      10
      10      15      10      10      15      10      10      15      10      10
      15      10      10      15      10      10      15      10      10      15
      10      10      15      10      10      15      10      10      15      10
      10      15      10      10      15      10      10      15      10      10
      15      10      10      15      10      10      15      10      10      15
      10      10      15      10      10      15      10      10      15      10
      10      15      10      10      15      10      10      15      10      10
      15      10      10      15      10      10      15      10      10      15
      10      10      15      10      10      15      10      10      15      10
      10      15      10      10      15      10      10      15      10      10
      15      10      10      15      10      10      15      10      10      15
      10      10      15      10      10      15      10      10      15      10
      10      15      10      10      15      10      10      15      10      10
      15      10      10      15      10      10      15      10      10      15
      10      10      15      10      10      15      10      10      15      10
      10      15      10      10      15      10      10      15      10      10
      15      10      10      15      10      10      15      10      10      15
      10      10      15      10      10      15      10      10      15      10
      10      15      10      10      15      10      10      15      10      10
      15      10      10      15      10      10      15      10      10      15
      10      10      15      10      10      15      10      10      15      10
      10      15      10      10      15      10      10      15      10      10
      15      10      10      15      10      10      15      10      10      15
      10      10      15      10      10      15      10      10      15      10
      10      15      10      10      15      10      10      15      10      10
      15      10      10      15      10      10      15      10      10      15
      10      10      15      10      10      15      10      10      15      10
      10      15      10      10      15      10      10      15      10      10
      15      10      10      15      10      10      15      10      10      15
      10      10      15      10      10      15      10      10      15      10
      10      15      10      10      15      10      10      15      10      10
      15      10      10      15      10      10      15      10      10      15
      10      10      15      10      10      15      10      10      15      10
      10      15      10      10      15      10      10      15      10      10
      15      10      10      15      10      10      15      10      10      15
      10      10      15      10      10      15      10      10      15      10
      10      15      10      10      15      10      10      15      10      10
      15      10      10      15      10      10      15      10      10      15
      10      10      15      10      10      15      10      10      15      10
      10      15      10      10      15      10      10      15      10      10
      15      10      10      15      10      10      15      10      10      15
      10      10      15      10      10      15      10      10      15      10
      10      15      10      10      15      10      10      15      10      10
      15      10      10      15      10      10      15      10      10      15
      10      10      15      10      10      15      10      10      15      10
      10      15      10      10      15      10      10      15      10      10
      15      10      10      15      10      10      15      10      10      15
      10      10      15      10      10      15      10      10      15      10
      10      15      10      10      15      10      10      15      10      10
      15      10      10      15      10      10      15      10      10      15
      10      10      15      10      10      15      10      10      15      10
      10      15      10      10      15      10      10      15      10      10
      15      10      10      15      10      10      15      10      10      15
      10      10      15      10      10      15      10      10      15      10
      10      15      10      10      15      10      10      15      10      10
      15      10      10      15      10      10      15      10      10      15
      10      10      15      10      10      15      10      10      15      10
      10      15      10      10      15      10      10      15      10      10
      15      10      10      15      10      10      15      10      10      15
      10      10      15      10      10      15      10      10      15      10
      10      15      10      10      15      10      10      15      10      10
      15      10      10      15      10      10      15      10      10      15
      10      10      15      10      10      15      10      10      15      10
      10      15      10      10      15      10      10      15      10      10
      15      10      10      15      10      10      15      10      10      15
      10      10      15      10      10      15      10      10      15      10
      10      15      10      10      15      10      10      15      10      10
      15      10      10      15      10      10      15      10      10      15
      10      10      15      10      10      15      10      10      15      10
      10      15      10      10      15      10      10      15      10      10
      15      10      10      15      10      10      15      10      10      15
      10      10      15      10      10      15      10      10      15      10
      10      15      10      10      15      10      10      15      10      10
      15      10      10      15      10      10      15      10      10      15
      10      10      15      10      10      15      10      10      15      10
      10      15      10      10      15      10      10      15      10      10
      15      10      10      15      10      10      15      10      10      15
      10      10      15      10      10      15      10      10      15      10
      10      15      10      10      15      10      10      15      10      10
      15      10      10      15      10      10      15      10      10      15
      10      10      15      10      10      15      10      10      15      10
      10      15      10      10      15      10      10      15      10      10
      15      10      10      15      10      10      15      10      10      15
      10      10      15      10      10      15      10      10      15      10
      10      15      10      10      15      10      10      15      10      10
      15      10      10      15      10      10      15      10      10      15
      10      10      15      10      10      15      10      10      15      10
      10      15      10      10      15      10      10      15      10      10
      15      10      10      15      10      10      15      10      10      15
      10      10      15      10      10      15      10      10      15      10
      10      15      10      10      15      10      10      15      10      10
      15      10      10      15      10      10      15      10      10      15
      10      10      15      10      10      15      10      10      15      10
      10      15      10      10      15      10      10      15      10      10
      15      10      10      15      10      10      15      10      10      15
      10      10      15      10      10      15      10      10      15      10
      10      15      10      10      15      10      10      15      10      10
      15      10      10      15      10      10      15      10      10      15
      10      10      15      10      10      15      10      10      15      10
      10      15      10      10      15      10      10      15      10      10
      15      10      10      15      10      10      15      10      10      15
      10      10      15      10      10      15      10      10      15      10
      10      15      10      10      15      10      10      15      10      10
      15      10      10      15      10      10      15      10      10      15
      10      10      15      10      10      15      10      10      15      10
      10      15      10      10      15      10      10      15      10      10
      15      10      10      15      10      10      15      10      10      15
      10      10      15      10      10      15      10      10      15      10
      10      15      10      10      15      10      10      15      10      10
      15      10      10      15      10      10      15      10      10      15
      10      10      15      10      10      15      10      10      15      10
      10      15      10      10      15      10      10      15      10      10
      15      10      10      15      10      10      15      10      10      15
      10      10      15      10      10      15      10      10      15      10
      10      15      10      10      15      10      10      15      10      10
      15      10      10      15      10      10      15      10      10      15
      10      10      15      10      10      15      10      10      15      10
      10      15      10      10      15      10      10      15      10      10
      15      10      10      15      10      10      15      10      10      15
      10      10      15      10      10      15      10      10      15      10
      10      15      10      10      15      10      10      15      10      10
      15      10      10      15      10      10      15      10      10      15
      10      10      15      10      10      15      10      10      15      10
      10      15      10      10      15      10      10      15      10      10
      15      10      10      15      10      10      15      10      10      15
      10      10      15      10      10      15      10      10      15      10
      10      15      10      10      15      10      10      15      10      10
      15      10      10      15      10      10      15      10      10      15
      10      10      15      10      10      15      10      10      15      10
      10      15      10      10      15      10      10      15      10      10
      15      10      10      15      10      10      15      10      10      15
      10      10      15      10      10      15      10      10      15      10
      10      15      10      10      15      10      10      15      10      10
      15      10      10      15      10      10      15      10      10      15
      10      10      15      10      10      15      10      10      15      10
      10      15      10      10      15      10      10      15      10      10
      15      10      10      15      10      10      15      10      10      15
      10      10      15      10      10      15      10      10      15      10
      10      15      10      10      15      10      10      15      10      10
      15      10      10      15      10      10      15      10      10      15
      10      10      15      10      10      15      10      10      15      10
      10      15      10      10      15      10      10      15      10      10
      15      10      10      15      10      10      15      10      10      15
      10      10      15      10      10      15      10      10      15      10
      10      15      10      10      15      10      10      15      10      10
      15      10      10      15      10      10      15      10      10      15
      10      10      15      10      10      15      10      10      15      10
      10      15      10      10      15      10      10      15      10      10
      15      10      10      15      10      10      15      10      10      15
      10      10      15      10      10      15      10      10      15      10
      10      15      10      10      15      10      10      15      10      10
      15      10      10      15      10      10      15      10      10      15
      10      10      15      10      10      15      10      10      15      10
      10      15      10      10      15      10      10      15      10      10
      15      10      10      15      10      10      15      10      10      15
      10      10      15      10      10      15      10      10      15      10
      10      15      10      10      15      10      10      15      10      10
      15      10      10      15      10      10      15      10      10      15
      10      10      15      10      10      15      10      10      15      10
      10      15      10      10      15      10      10      15      10      10
      15      10      10      15      10      10      15      10      10      15
      10      10      15      10      10      15      10      10      15      10
      10      15      10      10      15      10      10      15      10      10
      15      10      10      15      10      10      15      10      10      15
      10      10      15      10      10      15      10      10      15      10
      10      15      10      10      15      10      10      15      10      10
      15      10      10      15      10      10      15      10      10      15
      10      10      15      10      10      15      10      10      15      10
      10      15      10      10      15      10      10      15      10      10
      15      10      10      15      10      10      15      10      10      15
      10      10      15      10      10      15      10      10      15      10
      10      15      10      10      15      10      10      15      10      10
      15      10      10      15      10      10      15      10      10      15
      10      10      15      10      10      15      10      10      15      10
      10      15      10      10      15      10      10      15      10      10
      15      10      10      15      10      10      15      10      10      15
      10      10      15      10      10      15      10      10      15      10
      10      15      10      10      15      10      10      15      10      10
      15      10      10      15      10      10      15      10      10      15
      10      10      15      10      10      15      10      10      15      10
      10      15      10      10      15      10      10      15      10      10
      15      10      10      15      10      10      15      10      10      15
      10      10      15      10      10      15      10      10      15      10
      10      15      10      10      15      10      10      15      10      10
      15      10      10      15      10      10      15      10      10      15
      10      10      15      10      10      15      10      10      15      10
      10      15      10      10      15      10      10      15      10      10
      15      10      10      15      10      10      15      10      10      15
      10      10      15      10      10      15      10      10      15      10
      10      15      10      10      15      10      10      15      10      10
      15      10      10      15      10      10      15      10      10      15
      10      10      15      10      10      15      10      10      15      10
      10      15      10      10      15      10      10      15      10      10
      15      10      10      15      10      10      15      10      10      15
      10      10      15      10      10      15      10      10      15      10
      10      15      10      10      15      10      10      15      10      10
      15      10      10      15      10      10      15      10      10      15
      10      10      15      10      10      15      10      10      15      10
      10      15      10      10      15      10      10      15      10      10
      15      10      10      15      10      10      15      10      10      15
      10      10      15      10      10      15      10      10      15      10
      10      15      10      10      15      10      10      15      10      10
      15      10      10      15      10      10      15      10      10      15
      10      10      15      10      10      15      10      10      15      10
      10      15      10      10      15      10      10      15      10      10
      15      10      10      15      10      10      15      10      10      15
      10      10      15      10      10      15      10      10      15      10
      10      15      10      10      15      10      10      15      10      10
      15      10      10      15      10      10      15      10      10      15
      10      10      15      10      10      15      10      10      15      10
      10      15      10      10      15      10      10      15      10      10
      15      10      10      15      10      10      15      10      10      15
      10      10      15      10      10      15      10      10      15      10
      10      15      10      10      15      10      10      15      10      10
      15      10      10      15      10      10      15      10      10      15
      10      10      15      10      10      15      10      10      15      10
      10      15      10      10      15      10      10      15      10      10
      15      10      10      15      10      10      15      10      10      15
      10      10      15      10      10      15      10      10      15      10
      10      15      10      10      15      10      10      15      10      10
      15      10      10      15      10      10      15      10      10      15
      10      10      15      10      10      15      10      10      15      10
      10      15      10      10      15      10      10      15      10      10
      15      10      10      15      10      10      15      10      10      15
      10      10      15      10      10      15      10      10      15      10
      10      15      10      10      15      10      10      15      10      10
      15      10      10      15      10      10      15      10      10      15
      10      10      15      10      10      15      10      10      15      10
      10      15      10      10      15      10      10      15      10      10
      15      10      10      15      10      10      15      10      10      15
      10      10      15      10      10      15      10      10      15      10
      10      15      10      10      15      10      10      15      10      10
      15      10      10      15      10      10      15      10      10      15
      10      10      15      10      10      15      10      10      15      10
      10      15      10      10      15      10      10      15      10      10
      15      10      10      15      10      10      15      10      10      15
      10      10      15      10      10      15      10      10      15      10
      10      15      10      10      15      10      10      15      10      10
      15      10      10      15      10      10      15      10      10      15
      10      10      15      10      10      15      10      10      15      10
      10      15      10      10      15      10      10      15      10      10
      15      10      10      15      10      10      15      10      10      15
      10      10      15      10      10      15      10      10      15      10
      10      15      10      10      15      10      10      15      10      10
      15      10      10      15      10      10      15      10      10      15
      10      10      15      10      10      15      10      10      15      10
      10      15      10      10      15      10      10      15      10      10
      15      10      10      15      10      10      15      10      10      15
      10      10      15      10      10      15      10      10      15      10
      10      15      10      10      15      10      10      15      10      10
      15      10      10      15      10      10      15      10      10      15
      10      10      15      10      10      15      10      10      15      10
      10      15      10      10      15      10      10      15      10      10
      15      10      10      15      10      10      15      10      10      15
      10      10      15      10      10      15      10      10      15      10
      10      15      10      10      15      10      10      15      10      10
      15      10      10      15      10      10      15      10      10      15
      10      10      15      10      10      15      10      10      15      10
      10      15      10      10      15      10      10      15      10      10
      15      10      10      15      10      10      15      10      10      15
      10      10      15      10      10      15      10      10      15      10
      10      15      10      10      15      10      10      15      10      10
      15      10      10      15      10      10      15      10      10      15
      10      10      15      10      10      15      10      10      15      10
      10      15      10      10      15      10      10      15      10      10
      15      10      10      15      10      10      15      10      10      15
      10      10      15      10      10      15      10      10      15      10
      10      15      10      10      15      10      10      15      10      10
      15      10      10      15      10      10      15      10      10      15
      10      10      15      10      10      15      10      10      15      10
      10      15      10      10      15      10      10      15      10      10
      15      10      10      15      10      10      15      10      10      15
      10      10      15      10      10      15      10      10      15      10
      10      15      10      10      15      10      10      15      10      10
      15      10      10      15      10      10      15      10      10      15
      10      10      15      10      10      15      10      10      15      10
      10      15      10      10      15      10      10      15      10      10
      15      10      10      15      10      10      15      10      10      15
      10      10      15      10      10      15      10      10      15      10
      10      15      10      10      15      10      10      15      10      10
      15      10      10      15      10      10      15      10      10      15
      10      10      15      10      10      15      10      10      15      10
      10      15      10      10      15      10      10      15      10      10
      15      10      10      15      10      10      15      10      10      15
      10      10      15      10      10      15      10      10      15      10
      10      15      10      10      15      10      10      15      10      10
      15      10      10      15      10      10      15      10      10      15
      10      10      15      10      10      15      10      10      15      10
      10      15      10      10      15      10      10      15      10      10
      15      10      10      15      10      10      15      10      10      15
      10      10      15      10      10      15      10      10      15      10
      10      15      10      10      15      10      10      15      10      10
      15      10      10      15      10      10      15      10      10      15
      10      10      15      10      10      15      10      10      15      10
      10      15      10      10      15      10      10      15      10      10
      15      10      10      15      10      10      15      10      10      15
      10      10      15      10      10      15      10      10      15      10
      10      15      10      10      15      10      10      15      10      10
      15      10      10      15      10      10      15      10      10      15
      10      10      15      10      10      15      10      10      15      10
      10      15      10      10      15      10      10      15      10      10
      15      10      10      15      10      10      15      10      10      15
      10      10      15      10      10      15      10      10      15      10
      10      15      10      10      15      10      10      15      10      10
      15      10      10      15      10      10      15      10      10      15
      10      10      15      10      10      15      10      10      15      10
      10      15      10      10      15      10      10      15      10      10
      15      10      10      15      10      10      15      10      10      15
      10      10      15      10      10      15      10      10      15      10
      10      15      10      10      15      10      10      15      10      10
      15      10      10      15      10      10      15      10      10      15
      10      10      15      10      10      15      10      10      15      10
      10      15      10      10      15      10      10      15      10      10
      15      10      10      15      10      10      15      10      10      15
      10      10      15      10      10      15      10      10      15      10
      10      15      10      10      15      10      10      15      10      10
      15      10      10      15      10      10      15      10      10      15
      10      10      15      10      10      15      10      10      15      10
      10      15      10      10      15      10      10      15      10      10
      15      10      10      15      10      10      15      10      10      15
      10      10      15      10      10      15      10      10      15      10
      10      15      10      10      15      10      10      15      10      10
      15      10      10      15      10      10      15      10      10      15
      10      10      15      10      10      15      10      10      15      10
      10      15      10      10      15      10      10      15      10      10
      15      10      10      15      10      10      15      10      10      15
      10      10      15      10      10      15      10      10      15      10
      10      15      10      10      15      10      10      15      10      10
      15      10      10      15      10      10      15      10      10      15
      10      10      15      10      10      15      10      10      15      10
      10      15      10      10      15      10      10      15      10      10
      15      10      10      15      10      10      15      10      10      15
      10      10      15      10      10      15      10      10      15      10
      10      15      10      10      15      10      10      15      10      10
      15      10      10      15      10      10      15      10      10      15
      10      10      15      10      10      15      10      10      15      10
      10      15      10      10      15      10      10      15      10      10
      15      10      10      15      10      10      15      10      10      15
      10      10      15      10      10      15      10      10      15      10
      10      15      10      10      15      10      10      15      10      10
      15      10      10      15      10      10      15      10      10      15
      10      10      15      10      10      15      10      10      15      10
      10      15      10      10      15      10      10      15      10      10
      15      10      10      15      10      10      15      10      10      15
      10      10      15      10      10      15      10      10      15      10
      10      15      10      10      15      10      10      15      10      10
      15      10      10      15      10      10      15      10      10      15
      10      10      15      10      10      15      10      10      15      10
      10      15      10      10      15      10      10      15      10      10
      15      10      10      15      10      10      15      10      10      15
      10      10      15      10      10      15      10      10      15      10
      10      15      10      10      15      10      10      15      10      10
      15      10      10      15      10      10      15      10      10      15
      10      10      15      10      10      15      10      10      15      10
      10      15      10      10      15      10      10      15      10      10
      15      10      10      15      10      10      15      10      10      15
      10      10      15      10      10      15      10      10      15      10
      10      15      10      10      15      10      10      15      10      10
      15      10      10      15      10      10      15      10      10      15
      10      10      15      10      10      15      10      10      15      10
      10      15      10      10      15      10      10      15      10      10
      15      10      10      15      10      10      15      10      10      15
      10      10      15      10      10      15      10      10      15      10
      10      15      10      10      15      10      10      15      10      10
      15      10      10      15      10      10      15      10      10      15
      10      10      15      10      10      15      10      10      15      10
      10      15      10      10      15      10      10      15      10      10
      15      10      10      15      10      10      15      10      10      15
      10      10      15      10      10      15      10      10      15      10
      10      15      10      10      15      10      10      15      10      10
      15      10      10      15      10      10      15      10      10      15
      10      10      15      10      10      15      10      10      15      10
      10      15      10      10      15      10      10      15      10      10
      15      10      10      15      10      10      15      10      10      15
      10      10      15      10      10      15      10      10      15      10
      10      15      10      10      15      10      10      15      10      10
      15      10      10      15      10      10      15      10      10      15
      10      10      15      10      10      15      10      10      15      10
      10      15      10      10      15      10      10      15      10      10
      15      10      10      15      10      10      15      10      10      15
      10      10      15      10      10      15      10      10      15      10
      10      15      10      10      15      10      10      15      10      10
      15      10      10      15      10      10      15      10      10      15
      10      10      15      10      10      15      10      10      15      10
      10      15      10      10      15      10      10      15      10      10
      15      10      10      15      10      10      15      10      10      15
      10      10      15      10      10      15      10      10      15      10
      10      15      10      10      15      10      10      15      10      10
      15      10      10      15      10      10      15      10      10      15
      10      10      15      10      10      15      10      10      15      10
      10      15      10      10      15      10      10      15      10      10
      15      10      10      15      10      10      15      10      10      15
      10      10      15      10      10      15      10      10      15      10
      10      15      10      10      15      10      10      15      10      10
      15      10      10      15      10      10      15      10      10      15
      10      10      15      10      10      15      10      10      15      10
      10      15      10      10      15      10      10      15      10      10
      15      10      10      15      10      10      15      10      10      15
      10      10      15      10      10      15      10      10      15      10
      10      15      10      10      15      10      10      15      10      10
      15      10      10      15      10      10      15      10      10      15
      10      10      15      10      10      15      10      10      15      10
      10      15      10      10      15      10      10      15      10      10
      15      10      10      15      10      10      15      10      10      15
      10      10      15      10      10      15      10      10      15      10
      10      15      10      10      15      10      10      15      10      10
      15      10      10      15      10      10      15      10      10      15
      10      10      15      10      10      15      10      10      15      10
      10      15      10      10      15      10      10      15      10      10
      15      10      10      15      10      10      15      10      10      15
      10      10      15      10      10      15      10      10      15      10
      10      15      10      10      15      10      10      15      10      10
      15      10      10      15      10      10      15      10      10      15
      10      10      15      10      10      15      10      10      15      10
      10      15      10      10      15      10      10      15      10      10
      15      10      10      15      10      10      15      10      10      15
      10      10      15      10      10      15      10      10      15      10
      10      15      10      10      15      10      10      15      10      10
      15      10      10      15      10      10      15      10      10      15
      10      10      15      10      10      15      10      10      15      10
      10      15      10      10      15      10      10      15      10      10
      15      10      10      15      10      10      15      10      10      15
      10      10      15      10      10      15      10      10      15      10
      10      15      10      10      15      10      10      15      10      10
      15      10      10      15      10      10      15      10      10      15
      10      10      15      10      10      15      10      10      15      10
      10      15      10      10      15      10      10      15      10      10
      15      10      10      15      10      10      15      10      10      15
      10      10      15      10      10      15      10      10      15      10
      10      15      10      10      15      10      10      15      10      10
      15      10      10      15      10      10      15      10      10      15
      10      10      15      10      10      15      10      10      15      10
      10      15      10      10      15      10      10      15      10      10
      15      10      10      15      10      10      15      10      10      15
      10      10      15      10      10      15      10      10      15      10
      10      15      10      10      15      10      10      15      10      10
      15      10      10      15      10      10      15      10      10      15
      10      10      15      10      10      15      10      10      15      10
      10      15      10      10      15      10      10      15      10      10
      15      10      10      15      10      10      15      10      10      15
      10      10      15      10      10      15      10      10      15      10
      10      15      10      10      15      10      10      15      10      10
      15      10      10      15      10      10      15      10      10      15
      10      10      15      10      10      15      10      10      15      10
      10      15      10      10      15      10      10      15      10      10
      15      10      10      15      10      10      15      10      10      15
      10      10      15      10      10      15      10      10      15      10
      10      15      10      10      15      10      10      15      10      10
      15      10      10      15      10      10      15      10      10      15
      10      10      15      10      10      15      10      10      15      10
      10      15      10      10      15      10      10      15      10      10
      15      10      10      15      10      10      15      10      10      15
      10      10      15      10      10      15      10      10      15      10
      10      15      10      10      15      10      10      15      10      10
      15      10      10      15      10      10      15      10      10      15
      10      10      15      10      10      15      10      10      15      10
      10      15      10      10      15      10      10      15      10      10
      15      10      10      15      10      10      15      10      10      15
      10      10      15      10      10      15      10      10      15      10
      10      15      10      10      15      10      10      15      10      10
      15      10      10      15      10      10      15      10      10      15
      10      10      15      10      10      15      10      10      15      10
      10      15      10      10      15      10      10      15      10      10
      15      10      10      15      10      10      15      10      10      15
      10      10      15      10      10      15      10      10      15      10
      10      15      10      10      15      10      10      15      10      10
      15      10      10      15      10      10      15      10      10      15
      10      10      15      10      10      15      10      10      15      10
      10      15      10      10      15      10      10      15      10      10
      15      10      10      15      10      10      15      10      10      15
      10      10      15      10      10      15      10      10      15      10
      10      15      10      10      15      10      10      15      10      10
      15      10      10      15      10      10      15      10      10      15
      10      10      15      10      10      15      10      10      15      10
      10      15      10      10      15      10      10      15      10      10
      15      10      10      15      10      10      15      10      10      15
      10      10      15      10      10      15      10      10      15      10
      10      15      10      10      15      10      10      15      10      10
      15      10      10      15      10      10      15      10      10      15
      10      10      15      10      10      15      10      10      15      10
      10      15      10      10      15      10      10      15      10      10
      15      10      10      15      10      10      15      10      10      15
      10      10      15      10      10      15      10      10      15      10
      10      15      10      10      15      10      10      15      10      10
      15      10      10      15      10      10      15      10      10      15
      10      10      15      10      10      15      10      10      15      10
      10      15      10      10      15      10      10      15      10      10
      15      10      10      15      10      10      15      10      10      15
      10      10      15      10      10      15      10      10      15      10
      10      15      10      10      15      10      10      15      10      10
      15      10      10      15      10      10      15      10      10      15
      10      10      15      10      10      15      10      10      15      10
      10      15      10      10      15      10      10      15      10      10
      15      10      10      15      10      10      15      10      10      15
      10      10      15      10      10      15      10      10      15      10
      10      15      10      10      15      10      10      15      10      10
      15      10      10      15      10      10      15      10      10      15
      10      10      15      10      10      15      10      10      15      10
      10      15      10      10      15      10      10      15      10      10
      15      10      10      15      10      10      15      10      10      15
      10      10      15      10      10      15      10      10      15      10
      10      15      10      10      15      10      10      15      10      10
      15      10      10      15      10      10      15      10      10      15
      10      10      15      10      10      15      10      10      15      10
      10      15      10      10      15      10      10      15      10      10
      15      10      10      15      10      10      15      10      10      15
      10      10      15      10      10      15      10      10      15      10
      10      15      10      10      15      10      10      15      10      10
      15      10      10      15      10      10      15      10      10      15
      10      10      15      10      10      15      10      10      15      10
      10      15      10      10      15      10      10      15      10      10
      15      10      10      15      10      10      15      10      10      15
      10      10      15      10      10      15      10      10      15      10
      10      15      10      10      15      10      10      15      10      10
      15      10      10      15      10      10      15      10      10      15
      10      10      15      10      10      15      10      10      15      10
      10      15      10      10      15      10      10      15      10      10
      15      10      10      15      10      10      15      10      10      15
      10      10      15      10      10      15      10      10      15      10
      10      15      10      10      15      10      10      15      10      10
      15      10      10      15      10      10      15      10      10      15
      10      10      15      10      10      15      10      10      15      10
      10      15      10      10      15      10      10      15      10      10
      15      10      10      15      10      10      15      10      10      15
      10      10      15      10      10      15      10      10      15      10
      10      15      10      10      15      10      10      15      10      10
      15      10      10      15      10      10      15      10      10      15
      10      10      15      10      10      15      10      10      15      10
      10      15      10      10      15      10      10      15      10      10
      15      10      10      15      10      10      15      10      10      15
      10      10      15      10      10      15      10      10      15      10
      10      15      10      10      15      10      10      15      10      10
      15      10      10      15      10      10      15      10      10      15
      10      10      15      10      10      15      10      10      15      10
      10      15      10      10      15      10      10      15      10      10
      15      10      10      15      10      10      15      10      10      15
      10      10      15      10      10      15      10      10      15      10
      10      15      10      10      15      10      10      15      10      10
      15      10      10      15      10      10      15      10      10      15
      10      10      15      10      10      15      10      10      15      10
      10      15      10      10      15      10      10      15      10      10
      15      10      10      15      10      10      15      10      10      15
      10      10      15      10      10      15      10      10      15      10
      10      15      10      10      15      10      10      15      10      10
      15      10      10      15      10      10      15      10      10      15
      10      10      15      10      10      15      10      10      15      10
      10      15      10      10      15      10      10      15      10      10
      15      10      10      15      10      10      15      10      10      15
      10      10      15      10      10      15      10      10      15      10
      10      15      10      10      15      10      10      15      10      10
      15      10      10      15      10      10      15      10      10      15
      10      10      15      10      10      15      10      10      15      10
      10      15      10      10      15      10      10      15      10      10
      15      10      10      15      10      10      15      10      10      15
      10      10      15      10      10      15      10      10      15      10
      10      15      10      10      15      10      10      15      10      10
      15      10      10      15      10      10      15      10      10      15
      10      10      15      10      10      15      10      10      15      10
      10      15      10      10      15      10      10      15      10      10
      15      10      10      15      10      10      15      10      10      15
      10      10      15      10      10      15      10      10      15      10
      10      15      10      10      15      10      10      15      10      10
      15      10      10      15      10      10      15      10      10      15
      10      10      15      10      10      15      10      10      15      10
      10      15      10      10      15      10      10      15      10      10
      15      10      10      15      10      10      15      10      10      15
      10      10      15      10      10      15      10      10      15      10
      10      15      10      10      15      10      10      15      10      10
      15      10      10      15      10      10      15      10      10      15
      10      10      15      10      10      15      10      10      15      10
      10      15      10      10      15      10      10      15      10      10
      15      10      10      15      10      10      15      10      10      15
      10      10      15      10      10      15      10      10      15      10
      10      15      10      10      15      10      10      15      10      10
      15      10      10      15      10      10      15      10      10      15
      10      10      15      10      10      15      10      10      15      10
      10      15      10      10      15      10      10      15      10      10
      15      10      10      15      10      10      15      10      10      15
      10      10      15      10      10      15      10      10      15      10
      10      15      10      10      15      10      10      15      10      10
      15      10      10      15      10      10      15      10      10      15
      10      10      15      10      10      15      10      10      15      10
      10      15      10      10      15      10      10      15      10      10
      15      10      10      15      10      10      15      10      10      15
      10      10      15      10      10      15      10      10      15      10
      10      15      10      10      15      10      10      15      10      10
      15      10      10      15      10      10      15      10      10      15
      10      10      15      10      10      15      10      10      15      10
      10      15      10      10      15      10      10      15      10      10
      15      10      10      15      10      10      15      10      10      15
      10      10      15      10      10      15      10      10      15      10
      10      15      10      10      15      10      10      15      10      10
      15      10      10      15      10      10      15      10      10      15
      10      10      15      10      10      15      10      10      15      10
      10      15      10      10      15      10      10      15      10      10
      15      10      10      15      10      10      15      10      10      15
      10      10      15      10      10      15      10      10      15      10
      10      15      10      10      15      10      10      15      10      10
      15      10      10      15      10      10      15      10      10      15
      10      10      15      10      10      15      10      10      15      10
      10      15      10      10      15      10      10      15      10      10
      15      10      10      15      10      10      15      10      10      15
      10      10      15      10      10      15      10      10      15      10
      10      15      10      10      15      10      10      15      10      10
      15      10      10      15      10      10      15      10      10      15
      10      10      15      10      10      15      10      10      15      10
      10      15      10      10      15      10      10      15      10      10
      15      10      10      15      10      10      15      10      10      15
      10      10      15      10      10      15      10      10      15      10
      10      15      10      10      15      10      10      15      10      10
      15      10      10      15      10      10      15      10      10      15
      10      10      15      10      10      15      10      10      15      10
      10      15      10      10      15      10      10      15      10      10
      15      10      10      15      10      10      15      10      10      15
      10      10      15      10      10      15      10      10      15      10
      10      15      10      10      15      10      10      15      10      10
      15      10      10      15      10      10      15      10      10      15
      10      10      15      10      10      15      10      10      15      10
      10      15      10      10      15      10      10      15      10      10
      15      10      10      15      10      10      15      10      10      15
      10      10      15      10      10      15      10      10      15      10
      10      15      10      10      15      10      10      15      10      10
      15      10      10      15      10      10      15      10      10      15
      10      10      15      10      10      15      10      10      15      10
      10      15      10      10      15      10      10      15      10      10
      15      10      10      15      10      10      15      10      10      15
      10      10      15      10      10      15      10      10      15      10
      10      15      10      10      15      10      10      15      10      10
      15      10      10      15      10      10      15      10      10      15
      10      10      15      10      10      15      10      10      15      10
      10      15      10      10      15      10      10      15      10      10
      15      10      10      15      10      10      15      10      10      15
      10      10      15      10      10      15      10      10      15      10
      10      15      10      10      15      10      10      15      10      10
      15      10      10      15      10      10      15      10      10      15
      10      10      15      10      10      15      10      10      15      10
      10      15      10      10      15      10      10      15      10      10
      15      10      10      15      10      10      15      10      10      15
      10      10      15      10      10      15      10      10      15      10
      10      15      10      10      15      10      10      15      10      10
      15      10      10      15      10      10      15      10      10      15
      10      10      15      10      10      15      10      10      15      10
      10      15      10      10      15      10      10      15      10      10
      15      10      10      15      10      10      15      10      10      15
      10      10      15      10      10      15      10      10      15      10
      10      15      10      10      15      10      10      15      10      10
      15      10      10      15      10      10      15      10      10      15
      10      10      15      10      10      15      10      10      15      10
      10      15      10      10      15      10      10      15      10      10
      15      10      10      15      10      10      15      10      10      15
      10      10      15      10      10      15      10      10      15      10
      10      15      10      10      15      10      10      15      10      10
      15      10      10      15      10      10      15      10      10      15
      10      10      15      10      10      15      10      10      15      10
      10      15      10      10      15      10      10      15      10      10
      15      10      10      15      10      10      15      10      10      15
      10      10      15      10      10      15      10      10      15      10
      10      15      10      10      15      10      10      15      10      10
      15      10      10      15      10      10      15      10      10      15
      10      10      15      10      10      15      10      10      15      10
      10      15      10      10      15      10      10      15      10      10
      15      10      10      15      10      10      15      10      10      15
      10      10      15      10      10      15      10      10      15      10
      10      15      10      10      15      10      10      15      10      10
      15      10      10      15      10      10      15      10      10      15
      10      10      15      10      10      15      10      10      15      10
      10      15      10      10      15      10      10      15      10      10
      15      10      10      15      10      10      15      10      10      15
      10      10      15      10      10      15      10      10      15      10
      10      15      10      10      15      10      10      15      10      10
      15      10      10      15      10      10      15      10      10      15
      10      10      15      10      10      15      10      10      15      10
      10      15      10      10      15      10      10      15      10      10
      15      10      10      15      10      10      15      10      10      15
      10      10      15      10      10      15      10      10      15      10
      10      15      10      10      15      10      10      15      10      10
      15      10      10      15      10      10      15      10      10      15
      10      10      15      10      10      15      10      10      15      10
      10      15      10      10      15      10      10      15      10      10
      15      10      10      15      10      10      15      10      10      15
      10      10      15      10      10      15      10      10      15      10
      10      15      10      10      15      10      10      15      10      10
      15      10      10      15      10      10      15      10      10      15
      10      10      15      10      10      15      10      10      15      10
      10      15      10      10      15      10      10      15      10      10
      15      10      10      15      10      10      15      10      10      15
      10      10      15      10      10      15      10      10      15      10
      10      15      10      10      15      10      10      15      10      10
      15      10      10      15      10      10      15      10      10      15
      10      10      15      10      10      15      10      10      15      10
      10      15      10      10      15      10      10      15      10      10
      15      10      10      15      10      10      15      10      10      15
      10      10      15      10      10      15      10      10      15      10
      10      15      10      10      15      10      10      15      10      10
      15      10      10      15      10      10      15      10      10      15
      10      10      15      10      10      15      10      10      15      10
      10      15      10      10      15      10      10      15      10      10
      15      10      10      15      10      10      15      10      10      15
      10      10      15      10      10      15      10      10      15      10
      10      15      10      10      15      10      10      15      10      10
      15      10      10      15      10      10      15      10      10      15
      10      10      15      10      10      15      10      10      15      10
      10      15      10      10      15      10      10      15      10      10
      15      10      10      15      10      10      15      10      10      15
      10      10      15      10      10      15      10      10      15      10
      10      15      10      10      15      10      10      15      10      10
      15      10      10      15      10      10      15      10      10      15
      10      10      15      10      10      15      10      10      15      10
      10      15      10      10      15      10      10      15      10      10
      15      10      10      15      10      10      15      10      10      15
      10      10      15      10      10      15      10      10      15      10
      10      15      10      10      15      10      10      15      10      10
      15      10      10      15      10      10      15      10      10      15
      10      10      15      10      10      15      10      10      15      10
      10      15      10      10      15      10      10      15      10      10
      15      10      10      15      10      10      15      10      10      15
      10      10      15      10      10      15      10      10      15      10
      10      15      10      10      15      10      10      15      10      10
      15      10      10      15      10      10      15      10      10      15
      10      10      15      10      10      15      10      10      15      10
      10      15      10      10      15      10      10      15      10      10
      15      10      10      15      10      10      15      10      10      15
      10      10      15      10      10      15      10      10      15      10
      10      15      10      10      15      10      10      15      10      10
      15      10      10      15      10      10      15      10      10      15
      10      10      15      10      10      15      10      10      15      10
      10      15      10      10      15      10      10      15      10      10
      15      10      10      15      10      10      15      10      10      15
      10      10      15      10      10      15      10      10      15      10
      10      15      10      10      15      10      10      15      10      10
      15      10      10      15      10      10      15      10      10      15
      10      10      15      10      10      15      10      10      15      10
      10      15      10      10      15      10      10      15      10      10
      15      10      10      15      10      10      15      10      10      15
      10      10      15      10      10      15      10      10      15      10
      10      15      10      10      15      10      10      15      10      10
      15      10      10      15      10      10      15      10      10      15
      10      10      15      10      10      15      10      10      15      10
      10      15      10      10      15      10      10      15      10      10
      15      10      10      15      10      10      15      10      10      15
      10      10      15      10      10      15      10      10      15      10
      10      15      10      10      15      10      10      15      10      10
      15      10      10      15      10      10      15      10      10      15
      10      10      15      10      10      15      10      10      15      10
      10      15      10      10      15      10      10      15      10      10
      15      10      10      15      10      10      15      10      10      15
      10      10      15      10      10      15      10      10      15      10
      10      15      10      10      15      10      10      15      10      10
      15      10      10      15      10      10      15      10      10      15
      10      10      15      10      10      15      10      10      15      10
      10      15      10      10      15      10      10      15      10      10
      15      10      10      15      10      10      15      10      10      15
      10      10      15      10      10      15      10      10      15      10
      10      15      10      10      15      10      10      15      10      10
      15      10      10      15      10      10      15      10      10      15
      10      10      15      10      10      15      10      10      15      10
      10      15      10      10      15      10      10      15      10      10
      15      10      10      15      10      10      15      10      10      15
      10      10      15      10      10      15      10      10      15      10
      10      15      10      10      15      10      10      15      10      10
      15      10      10      15      10      10      15      10      10      15
      10      10      15      10      10      15      10      10      15      10
      10      15      10      10      15      10      10      15      10      10
      15      10      10      15      10      10      15      10      10      15
      10      10      15      10      10      15      10      10      15      10
      10      15      10      10      15      10      10      15      10      10
      15      10      10      15      10      10      15      10      10      15
      10      10      15      10      10      15      10      10      15      10
      10      15      10      10      15      10      10      15      10      10
      15      10      10      15      10      10      15      10      10      15
      10      10      15      10      10      15      10      10      15      10
      10      15      10      10      15      10      10      15      10      10
      15      10      10      15      10      10      15      10      10      15
      10      10      15      10      10      15      10      10      15      10
      10      15      10      10      15      10      10      15      10      10
      15      10      10      15      10      10      15      10      10      15
      10      10      15      10      10      15      10      10      15      10
      10      15      10      10      15      10      10      15      10      10
      15      10      10      15      10      10      15      10      10      15
      10      10      15      10      10      15      10      10      15      10
      10      15      10      10      15      10      10      15      10      10
      15      10      10      15      10      10      15      10      10      15
      10      10      15      10      10      15      10      10      15      10
      10      15      10      10      15      10      10      15      10      10
      15      10      10      15      10      10      15      10      10      15
      10      10      15      10      10      15      10      10      15      10
      10      15      10      10      15      10      10      15      10      10
      15      10      10      15      10      10      15      10      10      15
      10      10      15      10      10      15      10      10      15      10
      10      15      10      10      15      10      10      15      10      10
      15      10      10      15      10      10      15      10      10      15
      10      10      15      10      10      15      10      10      15      10
      10      15      10      10      15      10      10      15      10      10
      15      10      10      15      10      10      15      10      10      15
      10      10      15      10      10      15      10      10      15      10
      10      15      10      10      15      10      10      15      10      10
      15      10      10      15      10      10      15      10      10      15
      10      10      15      10      10      15      10      10      15      10
      10      15      10      10      15      10      10      15      10      10
      15      10      10      15      10      10      15      10      10      15
      10      10      15      10      10      15      10      10      15      10
      10      15      10      10      15      10      10      15      10      10
      15      10      10      15      10      10      15      10      10      15
      10      10      15      10      10      15      10      10      15      10
      10      15      10      10      15      10      10      15      10      10
      15      10      10      15      10      10      15      10      10      15
      10      10      15      10      10      15      10      10      15      10
      10      15      10      10      15      10      10      15      10      10
      15      10      10      15      10      10      15      10      10      15
      10      10      15      10      10      15      10      10      15      10
      10      15      10      10      15      10      10      15      10      10
      15      10      10      15      10      10      15      10      10      15
      10      10      15      10      10      15      10      10      15      10
      10      15      10      10      15      10      10      15      10      10
      15      10      10      15      10      10      15      10      10      15
      10      10      15      10      10      15      10      10      15      10
      10      15      10      10      15      10      10      15      10      10
      15      10      10      15      10      10      15      10      10      15
      10      10      15      10      10      15      10      10      15      10
      10      15      10      10      15      10      10      15      10      10
      15      10      10      15      10      10      15      10      10      15
      10      10      15      10      10      15      10      10      15      10
      10      15      10      10      15      10      10      15      10      10
      15      10      10      15      10      10      15      10      10      15
      10      10      15      10      10      15      10      10      15      10
      10      15      10      10      15      10      10      15      10      10
      15      10      10      15      10      10      15      10      10      15
      10      10      15      10      10      15      10      10      15      10
      10      15      10      10      15      10      10      15      10      10
      15      10      10      15      10      10      15      10      10      15
      10      10      15      10      10      15      10      10      15      10
      10      15      10      10      15      10      10      15      10      10
      15      10      10      15      10      10      15      10      10      15
      10      10      15      10      10      15      10      10      15      10
      10      15      10      10      15      10      10      15      10      10
      15      10      10      15      10      10      15      10      10      15
      10      10      15      10      10      15      10      10      15      10
      10      15      10      10      15      10      10      15      10      10
      15      10      10      15      10      10      15      10      10      15
      10      10      15      10      10      15      10      10      15      10
      10      15      10      10      15      10      10      15      10      10
      15      10      10      15      10      10      15      10      10      15
      10      10      15      10      10      15      10      10      15      10
      10      15      10      10      15      10      10      15      10      10
      15      10      10      15      10      10      15      10      10      15
      10      10      15      10      10      15      10      10      15      10
      10      15      10      10      15      10      10      15      10      10
      15      10      10      15      10      10      15      10      10      15
      10      10      15      10      10      15      10      10      15      10
      10      15      10      10      15      10      10      15      10      10
      15      10      10      15      10      10      15      10      10      15
      10      10      15      10      10      15      10      10      15      10
      10      15      10      10      15      10      10      15      10      10
      15      10      10      15      10      10      15      10      10      15
      10      10      15      10      10      15      10      10      15      10
      10      15      10      10      15      10      10      15      10      10
      15      10      10      15      10      10      15      10      10      15
      10      10      15      10      10      15      10      10      15      10
      10      15      10      10      15      10      10      15      10      10
      15      10      10      15      10      10      15      10      10      15
      10      10      15      10      10      15      10      10      15      10
      10      15      10      10      15      10      10      15      10      10
      15      10      10      15      10      10      15      10      10      15
      10      10      15      10      10      15      10      10      15      10
      10      15      10      10      15      10      10      15      10      10
      15      10      10      15      10      10      15      10      10      15
      10      10      15      10      10      15      10      10      15      10
      10      15      10      10      15      10      10      15      10      10
      15      10      10      15      10      10      15      10      10      15
      10      10      15      10      10      15      10      10      15      10
      10      15      10      10      15      10      10      15      10      10
      15      10      10      15      10      10      15      10      10      15
      10      10      15      10      10      15      10      10      15      10
      10      15      10      10      15      10      10      15      10      10
      15      10      10      15      10      10      15      10      10      15
      10      10      15      10      10      15      10      10      15      10
      10      15      10      10      15      10      10      15      10      10
      15      10      10      15      10      10      15      10      10      15
      10      10      15      10      10      15      10      10      15      10
      10      15      10      10      15      10      10      15      10      10
      15      10      10      15      10      10      15      10      10      15
      10      10      15      10      10      15      10      10      15      10
      10      15      10      10      15      10      10      15      10      10
      15      10      10      15      10      10      15      10      10      15
      10      10      15      10      10      15      10      10      15      10
      10      15      10      10      15      10      10      15      10      10
      15      10      10      15      10      10      15      10      10      15
      10      10      15      10      10      15      10      10      15      10
      10      15      10      10      15      10      10      15      10      10
      15      10      10      15      10      10      15      10      10      15
      10      10      15      10      10      15      10      10      15      10
      10      15      10      10      15      10      10      15      10      10
      15      10      10      15      10      10      15      10      10      15
      10      10      15      10      10      15      10      10      15      10
      10      15      10      10      15      10      10      15      10      10
      15      10      10      15      10      10      15      10      10      15
      10      10      15      10      10      15      10      10      15      10
      10      15      10      10      15      10      10      15      10      10
      15      10      10      15      10      10      15      10      10      15
      10      10      15      10      10      15      10      10      15      10
      10      15      10      10      15      10      10      15      10      10
      15      10      10      15      10      10      15      10      10      15
      10      10      15      10      10      15      10      10      15      10
      10      15      10      10      15      10      10      15      10      10
      15      10      10      15      10      10      15      10      10      15
      10      10      15      10      10      15      10      10      15      10
      10      15      10      10      15      10      10      15      10      10
      15      10      10      15      10      10      15      10      10      15
      10      10      15      10      10      15      10      10      15      10
      10      15      10      10      15      10      10      15      10      10
      15      10      10      15      10      10      15      10      10      15
      10      10      15      10      10      15      10      10      15      10
      10      15      10      10      15      10      10      15      10      10
      15      10      10      15      10      10      15      10      10      15
      10      10      15      10      10      15      10      10      15      10
      10      15      10      10      15      10      10      15      10      10
      15      10      10      15      10      10      15      10      10      15
      10      10      15      10      10      15      10      10      15      10
      10      15      10      10      15      10      10      15      10      10
      15      10      10      15      10      10      15      10      10      15
      10      10      15      10      10      15      10      10      15      10
      10      15      10      10      15      10      10      15      10      10
      15      10      10      15      10      10      15      10      10      15
      10      10      15      10      10      15      10      10      15      10
      10      15      10      10      15      10      10      15      10      10
      15      10      10      15      10      10      15      10      10      15
      10      10      15      10      10      15      10      10      15      10
      10      15      10      10      15      10      10      15      10      10
      15      10      10      15      10      10      15      10      10      15
      10      10      15      10      10      15      10      10      15      10
      10      15      10      10      15      10      10      15      10      10
      15      10      10      15      10      10      15      10      10      15
      10      10      15      10      10      15      10      10      15      10
      10      15      10      10      15      10      10      15      10      10
      15      10      10      15      10      10      15      10      10      15
      10      10      15      10      10      15      10      10      15      10
      10      15      10      10      15      10      10      15      10      10
      15      10      10      15      10      10      15      10      10      15
      10      10      15      10      10      15      10      10      15      10
      10      15      10      10      15      10      10      15      10      10
      15      10      10      15      10      10      15      10      10      15
      10      10      15      10      10      15      10      10      15      10
      10      15      10      10      15      10      10      15      10      10
      15      10      10      15      10      10      15      10      10      15
      10      10      15      10      10      15      10      10      15      10
      10      15      10      10      15      10      10      15      10      10
      15      10      10      15      10      10      15      10      10      15
      10      10      15      10      10      15      10      10      15      10
      10      15      10      10      15      10      10      15      10      10
      15      10      10      15      10      10      15      10      10      15
      10      10      15      10      10      15      10      10      15      10
      10      15      10      10      15      10      10      15      10      10
      15      10      10      15      10      10      15      10      10      15
      10      10      15      10      10      15      10      10      15      10
      10      15      10      10      15      10      10      15      10      10
      15      10      10      15      10      10      15      10      10      15
      10      10      15      10      10      15      10      10      15      10
      10      15      10      10      15      10      10      15      10      10
      15      10      10      15      10      10      15      10      10      15
      10      10      15      10      10      15      10      10      15      10
      10      15      10      10      15      10      10      15      10      10
      15      10      10      15      10      10      15      10      10      15
      10      10      15      10      10      15      10      10      15      10
      10      15      10      10      15      10      10      15      10      10
      15      10      10      15      10      10      15      10      10      15
      10      10      15      10      10      15      10      10      15      10
      10      15      10      10      15      10      10      15      10      10
      15      10      10      15      10      10      15      10      10      15
      10      10      15      10      10      15      10      10      15      10
      10      15      10      10      15      10      10      15      10      10
      15      10      10      15      10      10      15      10      10      15
      10      10      15      10      10      15      10      10      15      10
      10      15      10      10      15      10      10      15      10      10
      15      10      10      15      10      10      15      10      10      15
      10      10      15      10      10      15      10      10      15      10
      10      15      10      10      15      10      10      15      10      10
      15      10      10      15      10      10      15      10      10      15
      10      10      15      10      10      15      10      10      15      10
      10      15      10      10      15      10      10      15      10      10
      15      10      10      15      10      10      15      10      10      15
      10      10      15      10      10      15      10      10      15      10
      10      15      10      10      15      10      10      15      10      10
      15      10      10      15      10      10      15      10      10      15
      10      10      15      10      10      15      10      10      15      10
      10      15      10      10      15      10      10      15      10      10
      15      10      10      15      10      10      15      10      10      15
      10      10      15      10      10      15      10      10      15      10
      10      15      10      10      15      10      10      15      10      10
      15      10      10      15      10      10      15      10      10      15
      10      10      15      10      10      15      10      10      15      10
      10      15      10      10      15      10      10      15      10      10
      15      10      10      15      10      10      15      10      10      15
      10      10      15      10      10      15      10      10      15      10
      10      15      10      10      15      10      10      15      10      10
      15      10      10      15      10      10      15      10      10      15
      10      10      15      10      10      15      10      10      15      10
      10      15      10      10      15      10      10      15      10      10
      15      10      10      15      10      10      15      10      10      15
      10      10      15      10      10      15      10      10      15      10
      10      15      10      10      15      10      10      15      10      10
      15      10      10      15      10      10      15      10      10      15
      10      10      15      10      10      15      10      10      15      10
      10      15      10      10      15      10      10      15      10      10
      15      10      10      15      10      10      15      10      10      15
      10      10      15      10      10      15      10      10      15      10
      10      15      10      10      15      10      10      15      10      10
      15      10      10      15      10      10      15      10      10      15
      10      10      15      10      10      15      10      10      15      10
      10      15      10      10      15      10      10      15      10      10
      15      10      10      15      10      10      15      10      10      15
      10      10      15      10      10      15      10      10      15      10
      10      15      10      10      15      10      10      15      10      10
      15      10      10      15      10      10      15      10      10      15
      10      10      15      10      10      15      10      10      15      10
      10      15      10      10      15      10      10      15      10      10
      15      10      10      15      10      10      15      10      10      15
      10      10      15      10      10      15      10      10      15      10
      10      15      10      10      15      10      10      15      10      10
      15      10      10      15      10      10      15      10      10      15
      10      10      15      10      10      15      10      10      15      10
      10      15      10      10      15      10      10      15      10      10
      15      10      10      15      10      10      15      10      10      15
      10      10      15      10      10      15      10      10      15      10
      10      15      10      10      15      10      10      15      10      10
      15      10      10      15      10      10      15      10      10      15
      10      10      15      10      10      15      10      10      15      10
      10      15      10      10      15      10      10      15      10      10
      15      10      10      15      10      10      15      10      10      15
      10      10      15      10      10      15      10      10      15      10
      10      15      10      10      15      10      10      15      10      10
      15      10      10      15      10      10      15      10      10      15
      10      10      15      10      10      15      10      10      15      10
      10      15      10      10      15      10      10      15      10      10
      15      10      10      15      10      10      15      10      10      15
      10      10      15      10      10      15      10      10      15      10
      10      15      10      10      15      10      10      15      10      10
      15      10      10      15      10      10      15      10      10      15
      10      10      15      10      10      15      10      10      15      10
      10      15      10      10      15      10      10      15      10      10
      15      10      10      15      10      10      15      10      10      15
      10      10      15      10      10      15      10      10      15      10
      10      15      10      10      15      10      10      15      10      10
      15      10      10      15      10      10      15      10      10      15
      10      10      15      10      10      15      10      10      15      10
      10      15      10      10      15      10      10      15      10      10
      15      10      10      15      10      10      15      10      10      15
      10      10      15      10      10      15      10      10      15      10
      10      15      10      10      15      10      10      15      10      10
      15      10      10      15      10      10      15      10      10      15
      10      10      15      10      10      15      10      10      15      10
      10      15      10      10      15      10      10      15      10      10
      15      10      10      15      10      10      15      10      10      15
      10      10      15      10      10      15      10      10      15      10
      10      15      10      10      15      10      10      15      10      10
      15      10      10      15      10      10      15      10      10      15
      10      10      15      10      10      15      10      10      15      10
      10      15      10      10      15      10      10      15      10      10
      15      10      10      15      10      10      15      10      10      15
      10      10      15      10      10      15      10      10      15      10
      10      15      10      10      15      10      10      15      10      10
      15      10      10      15      10      10      15      10      10      15
      10      10      15      10      10      15      10      10      15      10
      10      15      10      10      15      10      10      15      10      10
      15      10      10      15      10      10      15      10      10      15
      10      10      15      10      10      15      10      10      15      10
      10      15      10      10      15      10      10      15      10      10
      15      10      10      15      10      10      15      10      10      15
      10      10      15      10      10      15      10      10      15      10
      10      15      10      10      15      10      10      15      10      10
      15      10      10      15      10      10      15      10      10      15
      10      10      15      10      10      15      10      10      15      10
      10      15      10      10      15      10      10      15      10      10
      15      10      10      15      10      10      15      10      10      15
      10      10      15      10      10      15      10      10      15      10
      10      15      10      10      15      10      10      15      10      10
      15      10      10      15      10      10      15      10      10      15
      10      10      15      10      10      15      10      10      15      10
      10      15      10      10      15      10      10      15      10      10
      15      10      10      15      10      10      15      10      10      15
      10      10      15      10      10      15      10      10      15      10
      10      15      10      10      15      10      10      15      10      10
      15      10      10      15      10      10      15      10      10      15
      10      10      15      10      10      15      10      10      15      10
      10      15      10      10      15      10      10      15      10      10
      15      10      10      15      10      10      15      10      10      15
      10      10      15      10      10      15      10      10      15      10
      10      15      10      10      15      10      10      15      10      10
      15      10      10      15      10      10      15      10      10      15
      10      10      15      10      10      15      10      10      15      10
      10      15      10      10      15      10      10      15      10      10
      15      10      10      15      10      10      15      10      10      15
      10      10      15      10      10      15      10      10      15      10
      10      15      10      10      15      10      10      15      10      10
      15      10      10      15      10      10      15      10      10      15
      10      10      15      10      10      15      10      10      15      10
      10      15      10      10      15      10      10      15      10      10
      15      10      10      15      10      10      15      10      10      15
      10      10      15      10      10      15      10      10      15      10
      10      15      10      10      15      10      10      15      10      10
      15      10      10      15      10      10      15      10      10      15
      10      10      15      10      10      15      10      10      15      10
      10      15      10      10      15      10      10      15      10      10
      15      10      10      15      10      10      15      10      10      15
      10      10      15      10      10      15      10      10      15      10
      10      15      10      10      15      10      10      15      10      10
      15      10      10      15      10      10      15      10      10      15
      10      10      15      10      10      15      10      10      15      10
      10      15      10      10      15      10      10      15      10      10
      15      10      10      15      10      10      15      10      10      15
      10      10      15      10      10      15      10      10      15      10
      10      15      10      10      15      10      10      15      10      10
      15      10      10      15      10      10      15      10      10      15
      10      10      15      10      10      15      10      10      15      10
      10      15      10      10      15      10      10      15      10      10
      15      10      10      15      10      10      15      10      10      15
      10      10      15      10      10      15      10      10      15      10
      10      15      10      10      15      10      10      15      10      10
      15      10      10      15      10      10      15      10      10      15
      10      10      15      10      10      15      10      10      15      10
      10      15      10      10      15      10      10      15      10      10
      15      10      10      15      10      10      15      10      10      15
      10      10      15      10      10      15      10      10      15      10
      10      15      10      10      15      10      10      15      10      10
      15      10      10      15      10      10      15      10      10      15
      10      10      15      10      10      15      10      10      15      10
      10      15      10      10      15      10      10      15      10      10
      15      10      10      15      10      10      15      10      10      15
      10      10      15      10      10      15      10      10      15      10
      10      15      10      10      15      10      10      15      10      10
      15      10      10      15      10      10      15      10      10      15
      10      10      15      10      10      15      10      10      15      10
      10      15      10      10      15      10      10      15      10      10
      15      10      10      15      10      10      15      10      10      15
      10      10      15      10      10      15      10      10      15      10
      10      15      10      10      15      10      10      15      10      10
      15      10      10      15      10      10      15      10      10      15
      10      10      15      10      10      15      10      10      15      10
      10      15      10      10      15      10      10      15      10      10
      15      10      10      15      10      10      15      10      10      15
      10      10      15      10      10      15      10      10      15      10
      10      15      10      10      15      10      10      15      10      10
      15      10      10      15      10      10      15      10      10      15
      10      10      15      10      10      15      10      10      15      10
      10      15      10      10      15      10      10      15      10      10
      15      10      10      15      10      10      15      10      10      15
      10      10      15      10      10      15      10      10      15      10
      10      15      10      10      15      10      10      15      10      10
      15      10      10      15      10      10      15      10      10      15
      10      10      15      10      10      15      10      10      15      10
      10      15      10      10      15      10      10      15      10      10
      15      10      10      15      10      10      15      10      10      15
      10      10      15      10      10      15      10      10      15      10
      10      15      10      10      15      10      10      15      10      10
      15      10      10      15      10      10      15      10      10      15
      10      10      15      10      10      15      10      10      15      10
      10      15      10      10      15      10      10      15      10      10
      15      10      10      15      10      10      15      10      10      15
      10      10      15      10      10      15      10      10      15      10
      10      15      10      10      15      10      10      15      10      10
      15      10      10      15      10      10      15      10      10      15
      10      10      15      10      10      15      10      10      15      10
      10      15      10      10      15      10      10      15      10      10
      15      10      10      15      10      10      15      10      10      15
      10      10      15      10      10      15      10      10      15      10
      10      15      10      10      15      10      10      15      10      10
      15      10      10      15      10      10      15      10      10      15
      10      10      15      10      10      15      10      10      15      10
      10      15      10      10      15      10      10      15      10      10
      15      10      10      15      10      10      15      10      10      15
      10      10      15      10      10      15      10      10      15      10
      10      15      10      10      15      10      10      15      10      10
      15      10      10      15      10      10      15      10      10      15
      10      10      15      10      10      15      10      10      15      10
      10      15      10      10      15      10      10      15      10      10
      15      10      10      15      10      10      15      10      10      15
      10      10      15      10      10      15      10      10      15      10
      10      15      10      10      15      10      10      15      10      10
      15      10      10      15      10      10      15      10      10      15
      10      10      15      10      10      15      10      10      15      10
      10      15      10      10      15      10      10      15      10      10
      15      10      10      15      10      10      15      10      10      15
      10      10      15      10      10      15      10      10      15      10
      10      15      10      10      15      10      10      15      10      10
      15      10      10      15      10      10      15      10      10      15
      10      10      15      10      10      15      10      10      15      10
      10      15      10      10      15      10      10      15      10      10
      15      10      10      15      10      10      15      10      10      15
      10      10      15      10      10      15      10      10      15      10
      10      15      10      10      15      10      10      15      10      10
      15      10      10      15      10      10      15      10      10      15
      10      10      15      10      10      15      10      10      15      10
      10      15      10      10      15      10      10      15      10      10
      15      10      10      15      10      10      15      10      10      15
      10      10      15      10      10      15      10      10      15      10
      10      15      10      10      15      10      10      15      10      10
      15      10      10      15      10      10      15      10      10      15
      10      10      15      10      10      15      10      10      15      10
      10      15      10      10      15      10      10      15      10      10
      15      10      10      15      10      10      15      10      10      15
      10      10      15      10      10      15      10      10      15      10
      10      15      10      10      15      10      10      15      10      10
      15      10      10      15      10      10      15      10      10      15
      10      10      15      10      10      15      10      10      15      10
      10      15      10      10      15      10      10      15      10      10
      15      10      10      15      10      10      15      10      10      15
      10      10      15      10      10      15      10      10      15      10
      10      15      10      10      15      10      10      15      10      10
      15      10      10      15      10      10      15      10      10      15
      10      10      15      10      10      15      10      10      15      10
      10      15      10      10      15      10      10      15      10      10
      15      10      10      15      10      10      15      10      10      15
      10      10      15      10      10      15      10      10      15      10
      10      15      10      10      15      10      10      15      10      10
      15      10      10      15      10      10      15      10      10      15
      10      10      15      10      10      15      10      10      15      10
      10      15      10      10      15      10      10      15      10      10
      15      10      10      15      10      10      15      10      10      15
      10      10      15      10      10      15      10      10      15      10
      10      15      10      10      15      10      10      15      10      10
      15      10      10      15      10      10      15      10      10      15
      10      10      15      10      10      15      10      10      15      10
      10      15      10      10      15      10      10      15      10      10
      15      10      10      15      10      10      15      10      10      15
      10      10      15      10      10      15      10      10      15      10
      10      15      10      10      15      10      10      15      10      10
      15      10      10      15      10      10      15      10      10      15
      10      10      15      10      10      15      10      10      15      10
      10      15      10      10      15      10      10      15      10      10
      15      10      10      15      10      10      15      10      10      15
      10      10      15      10      10      15      10      10      15      10
      10      15      10      10      15      10      10      15      10      10
      15      10      10      15      10      10      15      10      10      15
      10      10      15      10      10      15      10      10      15      10
      10      15      10      10      15      10      10      15      10      10
      15      10      10      15      10      10      15      10      10      15
      10      10      15      10      10      15      10      10      15      10
      10      15      10      10      15      10      10      15      10      10
      15      10      10      15      10      10      15      10      10      15
      10      10      15      10      10      15      10      10      15      10
      10      15      10      10      15      10      10      15      10      10
      15      10      10      15      10      10      15      10      10      15
      10      10      15      10      10      15      10      10      15      10
      10      15      10      10      15      10      10      15      10      10
      15      10      10      15      10      10      15      10      10      15
      10      10      15      10      10      15      10      10      15      10
      10      15      10      10      15      10      10      15      10      10
      15      10      10      15      10      10      15      10      10      15
      10      10      15      10      10      15      10      10      15      10
      10      15      10      10      15      10      10      15      10      10
      15      10      10      15      10      10      15      10      10      15
      10      10      15      10      10      15      10      10      15      10
      10      15      10      10      15      10      10      15      10      10
      15      10      10      15      10      10      15      10      10      15
      10      10      15      10      10      15      10      10      15      10
      10      15      10      10      15      10      10      15      10      10
      15      10      10      15      10      10      15      10      10      15
      10      10      15      10      10      15      10      10      15      10
      10      15      10      10      15      10      10      15      10      10
      15      10      10      15      10      10      15      10      10      15
      10      10      15      10      10      15      10      10      15      10
      10      15      10      10      15      10      10      15      10      10
      15      10      10      15      10      10      15      10      10      15
      10      10      15      10      10      15      10      10      15      10
      10      15      10      10      15      10      10      15      10      10
      15      10      10      15      10      10      15      10      10      15
      10      10      15      10      10      15      10      10      15      10
      10      15      10      10      15      10      10      15      10      10
      15      10      10      15      10      10      15      10      10      15
      10      10      15      10      10      15      10      10      15      10
      10      15      10      10      15      10      10      15      10      10
      15      10      10      15      10      10      15      10      10      15
      10      10      15      10      10      15      10      10      15      10
      10      15      10      10      15      10      10      15      10      10
      15      10      10      15      10      10      15      10      10      15
      10      10      15      10      10      15      10      10      15      10
      10      15      10      10      15      10      10      15      10      10
      15      10      10      15      10      10      15      10      10      15
      10      10      15      10      10      15      10      10      15      10
      10      15      10      10      15      10      10      15      10      10
      15      10      10      15      10      10      15      10      10      15
      10      10      15      10      10      15      10      10      15      10
      10      15      10      10      15      10      10      15      10      10
      15      10      10      15      10      10      15      10      10      15
      10      10      15      10      10      15      10      10      15      10
      10      15      10      10      15      10      10      15      10      10
      15      10      10      15      10      10      15      10      10      15
      10      10      15      10      10      15      10      10      15      10
      10      15      10      10      15      10      10      15      10      10
      15      10      10      15      10      10      15      10      10      15
      10      10      15      10      10      15      10      10      15      10
      10      15      10      10      15      10      10      15      10      10
      15      10      10      15      10      10      15      10      10      15
      10      10      15      10      10      15      10      10      15      10
      10      15      10      10      15      10      10      15      10      10
      15      10      10      15      10      10      15      10      10      15
      10      10      15      10      10      15      10      10      15      10
      10      15      10      10      15      10      10      15      10      10
      15      10      10      15      10      10      15      10      10      15
      10      10      15      10      10      15      10      10      15      10
      10      15      10      10      15      10      10      15      10      10
      15      10      10      15      10      10      15      10      10      15
      10      10      15      10      10      15      10      10      15      10
      10      15      10      10      15      10      10      15      10      10
      15      10      10      15      10      10      15      10      10      15
      10      10      15      10      10      15      10      10      15      10
      10      15      10      10      15      10      10      15      10      10
      15      10      10      15      10      10      15      10      10      15
      10      10      15      10      10      15      10      10      15      10
      10      15      10      10      15      10      10      15      10      10
      15      10      10      15      10      10      15      10      10      15
      10      10      15      10      10      15      10      10      15      10
      10      15      10      10      15      10      10      15      10      10
      15      10      10      15      10      10      15      10      10      15
      10      10      15      10      10      15      10      10      15      10
      10      15      10      10      15      10      10      15      10      10
      15      10      10      15      10      10      15      10      10      15
      10      10      15      10      10      15      10      10      15      10
      10      15      10      10      15      10      10      15      10      10
      15      10      10      15      10      10      15      10      10      15
      10      10      15      10      10      15      10      10      15      10
      10      15      10      10      15      10      10      15      10      10
      15      10      10      15      10      10      15      10      10      15
      10      10      15      10      10      15      10      10      15      10
      10      15      10      10      15      10      10      15      10      10
      15      10      10      15      10      10      15      10      10      15
      10      10      15      10      10      15      10      10      15      10
      10      15      10      10      15      10      10      15      10      10
      15      10      10      15      10      10      15      10      10      15
      10      10      15      10      10      15      10      10      15      10
      10      15      10      10      15      10      10      15      10      10
      15      10      10      15      10      10      15      10      10      15
      10      10      15      10      10      15      10      10      15      10
      10      15      10      10      15      10      10      15      10      10
      15      10      10      15      10      10      15      10      10      15
      10      10      15      10      10      15      10      10      15      10
      10      15      10      10      15      10      10      15      10      10
      15      10      10      15      10      10      15      10      10      15
      10      10      15      10      10      15      10      10      15      10
      10      15      10      10      15      10      10      15      10      10
      15      10      10      15      10      10      15      10      10      15
      10      10      15      10      10      15      10      10      15      10
      10      15      10      10      15      10      10      15      10      10
      15      10      10      15      10      10      15      10      10      15
      10      10      15      10      10      15      10      10      15      10
      10      15      10      10      15      10      10      15      10      10
      15      10      10      15      10      10      15      10      10      15
      10      10      15      10      10      15      10      10      15      10
      10      15      10      10      15      10      10      15      10      10
      15      10      10      15      10      10      15      10      10      15
      10      10      15      10      10      15      10      10      15      10
      10      15      10      10      15      10      10      15      10      10
      15      10      10      15      10      10      15      10      10      15
      10      10      15      10      10      15      10      10      15      10
      10      15      10      10      15      10      10      15      10      10
      15      10      10      15      10      10      15      10      10      15
      10      10      15      10      10      15      10      10      15      10
      10      15      10      10      15      10      10      15      10      10
      15      10      10      15      10      10      15      10      10      15
      10      10      15      10      10      15      10      10      15      10
      10      15      10      10      15      10      10      15      10      10
      15      10      10      15      10      10      15      10      10      15
      10      10      15      10      10      15      10      10      15      10
      10      15      10      10      15      10      10      15      10      10
      15      10      10      15      10      10      15      10      10      15
      10      10      15      10      10      15      10      10      15      10
      10      15      10      10      15      10      10      15      10      10
      15      10      10      15      10      10      15      10      10      15
      10      10      15      10      10      15      10      10      15      10
      10      15      10      10      15      10      10      15      10      10
      15      10      10      15      10      10      15      10      10      15
      10      10      15      10      10      15      10      10      15      10
      10      15      10      10      15      10      10      15      10      10
      15      10      10      15      10      10      15      10      10      15
      10      10      15      10      10      15      10      10      15      10
      10      15      10      10      15      10      10      15      10      10
      15      10      10      15      10      10      15      10      10      15
      10      10      15      10      10      15      10      10      15      10
      10      15      10      10      15      10      10      15      10      10
      15      10      10      15      10      10      15      10      10      15
      10      10      15      10      10      15      10      10      15      10
      10      15      10      10      15      10      10      15      10      10
      15      10      10      15      10      10      15      10      10      15
      10      10      15      10      10      15      10      10      15      10
      10      15      10      10      15      10      10      15      10      10
      15      10      10      15      10      10      15      10      10      15
      10      10      15      10      10      15      10      10      15      10
      10      15      10      10      15      10      10      15      10      10
      15      10      10      15      10      10      15      10      10      15
      10      10      15      10      10      15      10      10      15      10
      10      15      10      10      15      10      10      15      10      10
      15      10      10      15      10      10      15      10      10      15
      10      10      15      10      10      15      10      10      15      10
      10      15      10      10      15      10      10      15      10      10
%FLAG NUMBER_EXCLUDED_ATOMS
%FORMAT(10I8)
       9       6       5       4       7       4       3       7       3      10
       4      16       7      15       9       8       3       2       1       7
       5       4       3       2       1       1       7       3      10       4
      16       7      12       9       8       3       2       1       4       2
       1       1       7       3      10       4      13       7      11       6
       5      10       4       3       6       5       4       1       7       3
       1       1       1      10       4      13       7      11       6       5
       8       4       3       4       3       2       1       1       7       3
      10       4      11       7       8       4       3       6       7       3
      10       4      11       7       8       4       3       6       7       3
      10       4      14       7      10       7       6       3       2       1
       2       1       7       3      10       4      11       7       7       4
       3       2       1       7       3      10       4      16       7      15
       9       8       3       2       1       7       5       4       3       2
       1       1       7       3      10       4      10       7       6       3
       2       1       7       3      10       4      11       7       7       4
       3       2       1       7       3      10       4      13       7      15
       6       5      10       8       7       3       2       1       3       2
       1       1       7       3      10       4      12       7      12       5
       4      10       8       4       7       3       6       4       1       3
       2       1       1       7       3      10       4      13       7      11
       6       5       8       4       3       4       3       2       1       1
       7       3      10       4      13       7      15       6       5      10
       8       7       3       2       1       3       2       1       1       7
       3      10       4      13       7      11       6       5      10       4
       3       6       5       4       1       7       3       1       1       1
      10       4      12       7      10       5       4       5       3       2
       1       1       7       3      10       4      12       7      12       5
       4      10       8       4       7       3       6       4       1       3
       2       1       1       7       3      10       4      11       7       8
       4       3       6       7       3      10       4      10       7      10
       5       4       5       3       2       1       1       2       1       1
      12       6       5       4      12       7      12       5       4      10
       8       4       6       3       5       3       3       2       1       1
       7       3      10       4      16       7      12       9       8       3
       2       1       4       2       1       1       7       3      10       4
      12       7      10       5       4       5       3       2       1       1
       7       3      10       4      13       7      11       6       5       8
       4       3       4       3       2       1       1       7       3      10
       4      12       7      12       5       4       9       7       4       5
       3       3       2       1       1       7       3      10       4      13
       7      15       6       5      10       8       7       3       2       1
       3       2       1       1       7       3      10       4      10       7
       6       3       2       1       7       3       7       4       7       4
       3       7       3      10       4      11       7       7       4       3
       2       1       7       3      10       4      12       7      12       5
       4       9       7       4       5       3       3       2       1       1
       7       3      10       4      13       7      15       6       5      10
       8       7       3       2       1       3       2       1       1       7
       3      10       4      16       7      12       9       8       3       2
       1       4       2       1       1       7       3      10       4      13
       7      11       6       5      10       4       3       6       5       4
       1       7       3       1       1       1      10       4      10       7
       6       3       2       1       7       3      10       4      13       7
      15       6       5      10       8       7       3       2       1       3
       2       1       1       7       3      10       4      12       7      12
       5       4      10       8       4       7       3       6       4       1
       3       2       1       1       7       3      10       4      13       7
      15       6       5      10       8       7       3       2       1       3
       2       1       1       7       3      10       4      16       7      12
       9       8       3       2       1       4       2       1       1       7
       3      10       4      10       7       6       3       2       1       7
       3       7       4       7       4       3       7       3      10       4
      13       7      11       6       5      10       4       3       6       5
       4       1       7       3       1       1       1      10       4      13
       7      12       6       5       9       5       4       7       4       3
       8       3       6       5       2       1       2       1       1       7
       3       7       4       7       4       3       7       3      10       4
      12       7      12       5       4      10       8       4       6       3
       5       3       3       2       1       1       7       3      10       4
      12       7      12       5       4      10       8       4       6       3
       5       3       3       2       1       1       7       3      10       4
      12       7      12       5       4      10       8       4       7       3
       6       4       1       3       2       1       1       7       3      10
       4      14       7      10       7       6       3       2       1       2
       1      10       3      14      11       6       5       8       5       4
       7       4       3       6       3       7       3      10       4      13
       7      12       6       5      10       5       4       9       5       4
       6       5       4       3       2       1       1       7       3      10
       4       8       7       6       3       2       1       2       1       1
       2       1       1       2       1       1       2       1       1       2
       1       1       2       1       1       2       1       1       2       1
       1       2       1       1       2       1       1       2       1       1
       2       1       1       2       1       1       2       1       1       2
       1       1       2       1       1       2       1       1       2       1
       1       2       1       1       2       1       1       2       1       1
       2       1       1       2       1       1       2       1       1       2
       1       1       2       1       1       2       1       1       2       1
       1       2       1       1       2       1       1       2       1       1
       2       1       1       2       1       1       2       1       1       2
       1       1       2       1       1       2       1       1       2       1
       1       2       1       1       2       1       1       2       1       1
       2       1       1       2       1       1       2       1       1       2
       1       1       2       1       1       2       1       1       2       1
       1       2       1       1       2       1       1       2       1       1
       2       1       1       2       1       1       2       1       1       2
       1       1       2       1       1       2       1       1       2       1
       1       2       1       1       2       1       1       2       1       1
       2       1       1       2       1       1       2       1       1       2
       1       1       2       1       1       2       1       1       2       1
       1       2       1       1       2       1       1       2       1       1
       2       1       1       2       1       1       2       1       1       2
       1       1       2       1       1       2       1       1       2       1
       1       2       1       1       2       1       1       2       1       1
       2       1       1       2       1       1       2       1       1       2
       1       1       2       1       1       2       1       1       2       1
       1       2       1       1       2       1       1       2       1       1
       2       1       1       2       1       1       2       1       1       2
       1       1       2       1       1       2       1       1       2       1
       1       2       1       1       2       1       1       2       1       1
       2       1       1       2       1       1       2       1       1       2
       1       1       2       1       1       2       1       1       2       1
       1       2       1       1       2       1       1       2       1       1
       2       1       1       2       1       1       2       1       1       2
       1       1       2       1       1       2       1       1       2       1
       1       2       1       1       2       1       1       2       1       1
       2       1       1       2       1       1       2       1       1       2
       1       1       2       1       1       2       1       1       2       1
       1       2       1       1       2       1       1       2       1       1
       2       1       1       2       1       1       2       1       1       2
       1       1       2       1       1       2       1       1       2       1
       1       2       1       1       2       1       1       2       1       1
       2       1       1       2       1       1       2       1       1       2
       1       1       2       1       1       2       1       1       2       1
       1       2       1       1       2       1       1       2       1       1
       2       1       1       2       1       1       2       1       1       2
       1       1       2       1       1       2       1       1       2       1
       1       2       1       1       2       1       1       2       1       1
       2       1       1       2       1       1       2       1       1       2
       1       1       2       1       1       2       1       1       2       1
       1       2       1       1       2       1       1       2       1       1
       2       1       1       2       1       1       2       1       1       2
       1       1       2       1       1       2       1       1       2       1
       1       2       1       1       2       1       1       2       1       1
       2       1       1       2       1       1       2       1       1       2
       1       1       2       1       1       2       1       1       2       1
       1       2       1       1       2       1       1       2       1       1
       2       1       1       2       1       1       2       1       1       2
       1       1       2       1       1       2       1       1       2       1
       1       2       1       1       2       1       1       2       1       1
       2       1       1       2       1       1       2       1       1       2
       1       1       2       1       1       2       1       1       2       1
       1       2       1       1       2       1       1       2       1       1
       2       1       1       2       1       1       2       1       1       2
       1       1       2       1       1       2       1       1       2       1
       1       2       1       1       2       1       1       2       1       1
       2       1       1       2       1       1       2       1       1       2
       1       1       2       1       1       2       1       1       2       1
       1       2       1       1       2       1       1       2       1       1
       2       1       1       2       1       1       2       1       1       2
       1       1       2       1       1       2       1       1       2       1
       1       2       1       1       2       1       1       2       1       1
       2       1       1       2       1       1       2       1       1       2
       1       1       2       1       1       2       1       1       2       1
       1       2       1       1       2       1       1       2       1       1
       2       1       1       2       1       1       2       1       1       2
       1       1       2       1       1       2       1       1       2       1
       1       2       1       1       2       1       1       2       1       1
       2       1       1       2       1       1       2       1       1       2
       1       1       2       1       1       2       1       1       2       1
       1       2       1       1       2       1       1       2       1       1
       2       1       1       2       1       1       2       1       1       2
       1       1       2       1       1       2       1       1       2       1
       1       2       1       1       2       1       1       2       1       1
       2       1       1       2       1       1       2       1       1       2
       1       1       2       1       1       2       1       1       2       1
       1       2       1       1       2       1       1       2       1       1
       2       1       1       2       1       1       2       1       1       2
       1       1       2       1       1       2       1       1       2       1
       1       2       1       1       2       1       1       2       1       1
       2       1       1       2       1       1       2       1       1       2
       1       1       2       1       1       2       1       1       2       1
       1       2       1       1       2       1       1       2       1       1
       2       1       1       2       1       1       2       1       1       2
       1       1       2       1       1       2       1       1       2       1
       1       2       1       1       2       1       1       2       1       1
       2       1       1       2       1       1       2       1       1       2
       1       1       2       1       1       2       1       1       2       1
       1       2       1       1       2       1       1       2       1       1
       2       1       1       2       1       1       2       1       1       2
       1       1       2       1       1       2       1       1       2       1
       1       2       1       1       2       1       1       2       1       1
       2       1       1       2       1       1       2       1       1       2
       1       1       2       1       1       2       1       1       2       1
       1       2       1       1       2       1       1       2       1       1
       2       1       1       2       1       1       2       1       1       2
       1       1       2       1       1       2       1       1       2       1
       1       2       1       1       2       1       1       2       1       1
       2       1       1       2       1       1       2       1       1       2
       1       1       2       1       1       2       1       1       2       1
       1       2       1       1       2       1       1       2       1       1
       2       1       1       2       1       1       2       1       1       2
       1       1       2       1       1       2       1       1       2       1
       1       2       1       1       2       1       1       2       1       1
       2       1       1       2       1       1       2       1       1       2
       1       1       2       1       1       2       1       1       2       1
       1       2       1       1       2       1       1       2       1       1
       2       1       1       2       1       1       2       1       1       2
       1       1       2       1       1       2       1       1       2       1
       1       2       1       1       2       1       1       2       1       1
       2       1       1       2       1       1       2       1       1       2
       1       1       2       1       1       2       1       1       2       1
       1       2       1       1       2       1       1       2       1       1
       2       1       1       2       1       1       2       1       1       2
       1       1       2       1       1       2       1       1       2       1
       1       2       1       1       2       1       1       2       1       1
       2       1       1       2       1       1       2       1       1       2
       1       1       2       1       1       2       1       1       2       1
       1       2       1       1       2       1       1       2       1       1
       2       1       1       2       1       1       2       1       1       2
       1       1       2       1       1       2       1       1       2       1
       1       2       1       1       2       1       1       2       1       1
       2       1       1       2       1       1       2       1       1       2
       1       1       2       1       1       2       1       1       2       1
       1       2       1       1       2       1       1       2       1       1
       2       1       1       2       1       1       2       1       1       2
       1       1       2       1       1       2       1       1       2       1
       1       2       1       1       2       1       1       2       1       1
       2       1       1       2       1       1       2       1       1       2
       1       1       2       1       1       2       1       1       2       1
       1       2       1       1       2       1       1       2       1       1
       2       1       1       2       1       1       2       1       1       2
       1       1       2       1       1       2       1       1       2       1
       1       2       1       1       2       1       1       2       1       1
       2       1       1       2       1       1       2       1       1       2
       1       1       2       1       1       2       1       1       2       1
       1       2       1       1       2       1       1       2       1       1
       2       1       1       2       1       1       2       1       1       2
       1       1       2       1       1       2       1       1       2       1
       1       2       1       1       2       1       1       2       1       1
       2       1       1       2       1       1       2       1       1       2
       1       1       2       1       1       2       1       1       2       1
       1       2       1       1       2       1       1       2       1       1
       2       1       1       2       1       1       2       1       1       2
       1       1       2       1       1       2       1       1       2       1
       1       2       1       1       2       1       1       2       1       1
       2       1       1       2       1       1       2       1       1       2
       1       1       2       1       1       2       1       1       2       1
       1       2       1       1       2       1       1       2       1       1
       2       1       1       2       1       1       2       1       1       2
       1       1       2       1       1       2       1       1       2       1
       1       2       1       1       2       1       1       2       1       1
       2       1       1       2       1       1       2       1       1       2
       1       1       2       1       1       2       1       1       2       1
       1       2       1       1       2       1       1       2       1       1
       2       1       1       2       1       1       2       1       1       2
       1       1       2       1       1       2       1       1       2       1
       1       2       1       1       2       1       1       2       1       1
       2       1       1       2       1       1       2       1       1       2
       1       1       2       1       1       2       1       1       2       1
       1       2       1       1       2       1       1       2       1       1
       2       1       1       2       1       1       2       1       1       2
       1       1       2       1       1       2       1       1       2       1
       1       2       1       1       2       1       1       2       1       1
       2       1       1       2       1       1       2       1       1       2
       1       1       2       1       1       2       1       1       2       1
       1       2       1       1       2       1       1       2       1       1
       2       1       1       2       1       1       2       1       1       2
       1       1       2       1       1       2       1       1       2       1
       1       2       1       1       2       1       1       2       1       1
       2       1       1       2       1       1       2       1       1       2
       1       1       2       1       1       2       1       1       2       1
       1       2       1       1       2       1       1       2       1       1
       2       1       1       2       1       1       2       1       1       2
       1       1       2       1       1       2       1       1       2       1
       1       2       1       1       2       1       1       2       1       1
       2       1       1       2       1       1       2       1       1       2
       1       1       2       1       1       2       1       1       2       1
       1       2       1       1       2       1       1       2       1       1
       2       1       1       2       1       1       2       1       1       2
       1       1       2       1       1       2       1       1       2       1
       1       2       1       1       2       1       1       2       1       1
       2       1       1       2       1       1       2       1       1       2
       1       1       2       1       1       2       1       1       2       1
       1       2       1       1       2       1       1       2       1       1
       2       1       1       2       1       1       2       1       1       2
       1       1       2       1       1       2       1       1       2       1
       1       2       1       1       2       1       1       2       1       1
       2       1       1       2       1       1       2       1       1       2
       1       1       2       1       1       2       1       1       2       1
       1       2       1       1       2       1       1       2       1       1
       2       1       1       2       1       1       2       1       1       2
       1       1       2       1       1       2       1       1       2       1
       1       2       1       1       2       1       1       2       1       1
       2       1       1       2       1       1       2       1       1       2
       1       1       2       1       1       2       1       1       2       1
       1       2       1       1       2       1       1       2       1       1
       2       1       1       2       1       1       2       1       1       2
       1       1       2       1       1       2       1       1       2       1
       1       2       1       1       2       1       1       2       1       1
       2       1       1       2       1       1       2       1       1       2
       1       1       2       1       1       2       1       1       2       1
       1       2       1       1       2       1       1       2       1       1
       2       1       1       2       1       1       2       1       1       2
       1       1       2       1       1       2       1       1       2       1
       1       2       1       1       2       1       1       2       1       1
       2       1       1       2       1       1       2       1       1       2
       1       1       2       1       1       2       1       1       2       1
       1       2       1       1       2       1       1       2       1       1
       2       1       1       2       1       1       2       1       1       2
       1       1       2       1       1       2       1       1       2       1
       1       2       1       1       2       1       1       2       1       1
       2       1       1       2       1       1       2       1       1       2
       1       1       2       1       1       2       1       1       2       1
       1       2       1       1       2       1       1       2       1       1
       2       1       1       2       1       1       2       1       1       2
       1       1       2       1       1       2       1       1       2       1
       1       2       1       1       2       1       1       2       1       1
       2       1       1       2       1       1       2       1       1       2
       1       1       2       1       1       2       1       1       2       1
       1       2       1       1       2       1       1       2       1       1
       2       1       1       2       1       1       2       1       1       2
       1       1       2       1       1       2       1       1       2       1
       1       2       1       1       2       1       1       2       1       1
       2       1       1       2       1       1       2       1       1       2
       1       1       2       1       1       2       1       1       2       1
       1       2       1       1       2       1       1       2       1       1
       2       1       1       2       1       1       2       1       1       2
       1       1       2       1       1       2       1       1       2       1
       1       2       1       1       2       1       1       2       1       1
       2       1       1       2       1       1       2       1       1       2
       1       1       2       1       1       2       1       1       2       1
       1       2       1       1       2       1       1       2       1       1
       2       1       1       2       1       1       2       1       1       2
       1       1       2       1       1       2       1       1       2       1
       1       2       1       1       2       1       1       2       1       1
       2       1       1       2       1       1       2       1       1       2
       1       1       2       1       1       2       1       1       2       1
       1       2       1       1       2       1       1       2       1       1
       2       1       1       2       1       1       2       1       1       2
       1       1       2       1       1       2       1       1       2       1
       1       2       1       1       2       1       1       2       1       1
       2       1       1       2       1       1       2       1       1       2
       1       1       2       1       1       2       1       1       2       1
       1       2       1       1       2       1       1       2       1       1
       2       1       1       2       1       1       2       1       1       2
       1       1       2       1       1       2       1       1       2       1
       1       2       1       1       2       1       1       2       1       1
       2       1       1       2       1       1       2       1       1       2
       1       1       2       1       1       2       1       1       2       1
       1       2       1       1       2       1       1       2       1       1
       2       1       1       2       1       1       2       1       1       2
       1       1       2       1       1       2       1       1       2       1
       1       2       1       1       2       1       1       2       1       1
       2       1       1       2       1       1       2       1       1       2
       1       1       2       1       1       2       1       1       2       1
       1       2       1       1       2       1       1       2       1       1
       2       1       1       2       1       1       2       1       1       2
       1       1       2       1       1       2       1       1       2       1
       1       2       1       1       2       1       1       2       1       1
       2       1       1       2       1       1       2       1       1       2
       1       1       2       1       1       2       1       1       2       1
       1       2       1       1       2       1       1       2       1       1
       2       1       1       2       1       1       2       1       1       2
       1       1       2       1       1       2       1       1       2       1
       1       2       1       1       2       1       1       2       1       1
       2       1       1       2       1       1       2       1       1       2
       1       1       2       1       1       2       1       1       2       1
       1       2       1       1       2       1       1       2       1       1
       2       1       1       2       1       1       2       1       1       2
       1       1       2       1       1       2       1       1       2       1
       1       2       1       1       2       1       1       2       1       1
       2       1       1       2       1       1       2       1       1       2
       1       1       2       1       1       2       1       1       2       1
       1       2       1       1       2       1       1       2       1       1
       2       1       1       2       1       1       2       1       1       2
       1       1       2       1       1       2       1       1       2       1
       1       2       1       1       2       1       1       2       1       1
       2       1       1       2       1       1       2       1       1       2
       1       1       2       1       1       2       1       1       2       1
       1       2       1       1       2       1       1       2       1       1
       2       1       1       2       1       1       2       1       1       2
       1       1       2       1       1       2       1       1       2       1
       1       2       1       1       2       1       1       2       1       1
       2       1       1       2       1       1       2       1       1       2
       1       1       2       1       1       2       1       1       2       1
       1       2       1       1       2       1       1       2       1       1
       2       1       1       2       1       1       2       1       1       2
       1       1       2       1       1       2       1       1       2       1
       1       2       1       1       2       1       1       2       1       1
       2       1       1       2       1       1       2       1       1       2
       1       1       2       1       1       2       1       1       2       1
       1       2       1       1       2       1       1       2       1       1
       2       1       1       2       1       1       2       1       1       2
       1       1       2       1       1       2       1       1       2       1
       1       2       1       1       2       1       1       2       1       1
       2       1       1       2       1       1       2       1       1       2
       1       1       2       1       1       2       1       1       2       1
       1       2       1       1       2       1       1       2       1       1
       2       1       1       2       1       1       2       1       1       2
       1       1       2       1       1       2       1       1       2       1
       1       2       1       1       2       1       1       2       1       1
       2       1       1       2       1       1       2       1       1       2
       1       1       2       1       1       2       1       1       2       1
       1       2       1       1       2       1       1       2       1       1
       2       1       1       2       1       1       2       1       1       2
       1       1       2       1       1       2       1       1       2       1
       1       2       1       1       2       1       1       2       1       1
       2       1       1       2       1       1       2       1       1       2
       1       1       2       1       1       2       1       1       2       1
       1       2       1       1       2       1       1       2       1       1
       2       1       1       2       1       1       2       1       1       2
       1       1       2       1       1       2       1       1       2       1
       1       2       1       1       2       1       1       2       1       1
       2       1       1       2       1       1       2       1       1       2
       1       1       2       1       1       2       1       1       2       1
       1       2       1       1       2       1       1       2       1       1
       2       1       1       2       1       1       2       1       1       2
       1       1       2       1       1       2       1       1       2       1
       1       2       1       1       2       1       1       2       1       1
       2       1       1       2       1       1       2       1       1       2
       1       1       2       1       1       2       1       1       2       1
       1       2       1       1       2       1       1       2       1       1
       2       1       1       2       1       1       2       1       1       2
       1       1       2       1       1       2       1       1       2       1
       1       2       1       1       2       1       1       2       1       1
       2       1       1       2       1       1       2       1       1       2
       1       1       2       1       1       2       1       1       2       1
       1       2       1       1       2       1       1       2       1       1
       2       1       1       2       1       1       2       1       1       2
       1       1       2       1       1       2       1       1       2       1
       1       2       1       1       2       1       1       2       1       1
       2       1       1       2       1       1       2       1       1       2
       1       1       2       1       1       2       1       1       2       1
       1       2       1       1       2       1       1       2       1       1
       2       1       1       2       1       1       2       1       1       2
       1       1       2       1       1       2       1       1       2       1
       1       2       1       1       2       1       1       2       1       1
       2       1       1       2       1       1       2       1       1       2
       1       1       2       1       1       2       1       1       2       1
       1       2       1       1       2       1       1       2       1       1
       2       1       1       2       1       1       2       1       1       2
       1       1       2       1       1       2       1       1       2       1
       1       2       1       1       2       1       1       2       1       1
       2       1       1       2       1       1       2       1       1       2
       1       1       2       1       1       2       1       1       2       1
       1       2       1       1       2       1       1       2       1       1
       2       1       1       2       1       1       2       1       1       2
       1       1       2       1       1       2       1       1       2       1
       1       2       1       1       2       1       1       2       1       1
       2       1       1       2       1       1       2       1       1       2
       1       1       2       1       1       2       1       1       2       1
       1       2       1       1       2       1       1       2       1       1
       2       1       1       2       1       1       2       1       1       2
       1       1       2       1       1       2       1       1       2       1
       1       2       1       1       2       1       1       2       1       1
       2       1       1       2       1       1       2       1       1       2
       1       1       2       1       1       2       1       1       2       1
       1       2       1       1       2       1       1       2       1       1
       2       1       1       2       1       1       2       1       1       2
       1       1       2       1       1       2       1       1       2       1
       1       2       1       1       2       1       1       2       1       1
       2       1       1       2       1       1       2       1       1       2
       1       1       2       1       1       2       1       1       2       1
       1       2       1       1       2       1       1       2       1       1
       2       1       1       2       1       1       2       1       1       2
       1       1       2       1       1       2       1       1       2       1
       1       2       1       1       2       1       1       2       1       1
       2       1       1       2       1       1       2       1       1       2
       1       1       2       1       1       2       1       1       2       1
       1       2       1       1       2       1       1       2       1       1
       2       1       1       2       1       1       2       1       1       2
       1       1       2       1       1       2       1       1       2       1
       1       2       1       1       2       1       1       2       1       1
       2       1       1       2       1       1       2       1       1       2
       1       1       2       1       1       2       1       1       2       1
       1       2       1       1       2       1       1       2       1       1
       2       1       1       2       1       1       2       1       1       2
       1       1       2       1       1       2       1       1       2       1
       1       2       1       1       2       1       1       2       1       1
       2       1       1       2       1       1       2       1       1       2
       1       1       2       1       1       2       1       1       2       1
       1       2       1       1       2       1       1       2       1       1
       2       1       1       2       1       1       2       1       1       2
       1       1       2       1       1       2       1       1       2       1
       1       2       1       1       2       1       1       2       1       1
       2       1       1       2       1       1       2       1       1       2
       1       1       2       1       1       2       1       1       2       1
       1       2       1       1       2       1       1       2       1       1
       2       1       1       2       1       1       2       1       1       2
       1       1       2       1       1       2       1       1       2       1
       1       2       1       1       2       1       1       2       1       1
       2       1       1       2       1       1       2       1       1       2
       1       1       2       1       1       2       1       1       2       1
       1       2       1       1       2       1       1       2       1       1
       2       1       1       2       1       1       2       1       1       2
       1       1       2       1       1       2       1       1       2       1
       1       2       1       1       2       1       1       2       1       1
       2       1       1       2       1       1       2       1       1       2
       1       1       2       1       1       2       1       1       2       1
       1       2       1       1       2       1       1       2       1       1
       2       1       1       2       1       1       2       1       1       2
       1       1       2       1       1       2       1       1       2       1
       1       2       1       1       2       1       1       2       1       1
       2       1       1       2       1       1       2       1       1       2
       1       1       2       1       1       2       1       1       2       1
       1       2       1       1       2       1       1       2       1       1
       2       1       1       2       1       1       2       1       1       2
       1       1       2       1       1       2       1       1       2       1
       1       2       1       1       2       1       1       2       1       1
       2       1       1       2       1       1       2       1       1       2
       1       1       2       1       1       2       1       1       2       1
       1       2       1       1       2       1       1       2       1       1
       2       1       1       2       1       1       2       1       1       2
       1       1       2       1       1       2       1       1       2       1
       1       2       1       1       2       1       1       2       1       1
       2       1       1       2       1       1       2       1       1       2
       1       1       2       1       1       2       1       1       2       1
       1       2       1       1       2       1       1       2       1       1
       2       1       1       2       1       1       2       1       1       2
       1       1       2       1       1       2       1       1       2       1
       1       2       1       1       2       1       1       2       1       1
       2       1       1       2       1       1       2       1       1       2
       1       1       2       1       1       2       1       1       2       1
       1       2       1       1       2       1       1       2       1       1
       2       1       1       2       1       1       2       1       1       2
       1       1       2       1       1       2       1       1       2       1
       1       2       1       1       2       1       1       2       1       1
       2       1       1       2       1       1       2       1       1       2
       1       1       2       1       1       2       1       1       2       1
       1       2       1       1       2       1       1       2       1       1
       2       1       1       2       1       1       2       1       1       2
       1       1       2       1       1       2       1       1       2       1
       1       2       1       1       2       1       1       2       1       1
       2       1       1       2       1       1       2       1       1       2
       1       1       2       1       1       2       1       1       2       1
       1       2       1       1       2       1       1       2       1       1
       2       1       1       2       1       1       2       1       1       2
       1       1       2       1       1       2       1       1       2       1
       1       2       1       1       2       1       1       2       1       1
       2       1       1       2       1       1       2       1       1       2
       1       1       2       1       1       2       1       1       2       1
       1       2       1       1       2       1       1       2       1       1
       2       1       1       2       1       1       2       1       1       2
       1       1       2       1       1       2       1       1       2       1
       1       2       1       1       2       1       1       2       1       1
       2       1       1       2       1       1       2       1       1       2
       1       1       2       1       1       2       1       1       2       1
       1       2       1       1       2       1       1       2       1       1
       2       1       1       2       1       1       2       1       1       2
       1       1       2       1       1       2       1       1       2       1
       1       2       1       1       2       1       1       2       1       1
       2       1       1       2       1       1       2       1       1       2
       1       1       2       1       1       2       1       1       2       1
       1       2       1       1       2       1       1       2       1       1
       2       1       1       2       1       1       2       1       1       2
       1       1       2       1       1       2       1       1       2       1
       1       2       1       1       2       1       1       2       1       1
       2       1       1       2       1       1       2       1       1       2
       1       1       2       1       1       2       1       1       2       1
       1       2       1       1       2       1       1       2       1       1
       2       1       1       2       1       1       2       1       1       2
       1       1       2       1       1       2       1       1       2       1
       1       2       1       1       2       1       1       2       1       1
       2       1       1       2       1       1       2       1       1       2
       1       1       2       1       1       2       1       1       2       1
       1       2       1       1       2       1       1       2       1       1
       2       1       1       2       1       1       2       1       1       2
       1       1       2       1       1       2       1       1       2       1
       1       2       1       1       2       1       1       2       1       1
       2       1       1       2       1       1       2       1       1       2
       1       1       2       1       1       2       1       1       2       1
       1       2       1       1       2       1       1       2       1       1
       2       1       1       2       1       1       2       1       1       2
       1       1       2       1       1       2       1       1       2       1
       1       2       1       1       2       1       1       2       1       1
       2       1       1       2       1       1       2       1       1       2
       1       1       2       1       1       2       1       1       2       1
       1       2       1       1       2       1       1       2       1       1
       2       1       1       2       1       1       2       1       1       2
       1       1       2       1       1       2       1       1       2       1
       1       2       1       1       2       1       1       2       1       1
       2       1       1       2       1       1       2       1       1       2
       1       1       2       1       1       2       1       1       2       1
       1       2       1       1       2       1       1       2       1       1
       2       1       1       2       1       1       2       1       1       2
       1       1       2       1       1       2       1       1       2       1
       1       2       1       1       2       1       1       2       1       1
       2       1       1       2       1       1       2       1       1       2
       1       1       2       1       1       2       1       1       2       1
       1       2       1       1       2       1       1       2       1       1
       2       1       1       2       1       1       2       1       1       2
       1       1       2       1       1       2       1       1       2       1
       1       2       1       1       2       1       1       2       1       1
       2       1       1       2       1       1       2       1       1       2
       1       1       2       1       1       2       1       1       2       1
       1       2       1       1       2       1       1       2       1       1
       2       1       1       2       1       1       2       1       1       2
       1       1       2       1       1       2       1       1       2       1
       1       2       1       1       2       1       1       2       1       1
       2       1       1       2       1       1       2       1       1       2
       1       1       2       1       1       2       1       1       2       1
       1       2       1       1       2       1       1       2       1       1
       2       1       1       2       1       1       2       1       1       2
       1       1       2       1       1       2       1       1       2       1
       1       2       1       1       2       1       1       2       1       1
       2       1       1       2       1       1       2       1       1       2
       1       1       2       1       1       2       1       1       2       1
       1       2       1       1       2       1       1       2       1       1
       2       1       1       2       1       1       2       1       1       2
       1       1       2       1       1       2       1       1       2       1
       1       2       1       1       2       1       1       2       1       1
       2       1       1       2       1       1       2       1       1       2
       1       1       2       1       1       2       1       1       2       1
       1       2       1       1       2       1       1       2       1       1
       2       1       1       2       1       1       2       1       1       2
       1       1       2       1       1       2       1       1       2       1
       1       2       1       1       2       1       1       2       1       1
       2       1       1       2       1       1       2       1       1       2
       1       1       2       1       1       2       1       1       2       1
       1       2       1       1       2       1       1       2       1       1
       2       1       1       2       1       1       2       1       1       2
       1       1       2       1       1       2       1       1       2       1
       1       2       1       1       2       1       1       2       1       1
       2       1       1       2       1       1       2       1       1       2
       1       1       2       1       1       2       1       1       2       1
       1       2       1       1       2       1       1       2       1       1
       2       1       1       2       1       1       2       1       1       2
       1       1       2       1       1       2       1       1       2       1
       1       2       1       1       2       1       1       2       1       1
       2       1       1       2       1       1       2       1       1       2
       1       1       2       1       1       2       1       1       2       1
       1       2       1       1       2       1       1       2       1       1
       2       1       1       2       1       1       2       1       1       2
       1       1       2       1       1       2       1       1       2       1
       1       2       1       1       2       1       1       2       1       1
       2       1       1       2       1       1       2       1       1       2
       1       1       2       1       1       2       1       1       2       1
       1       2       1       1       2       1       1       2       1       1
       2       1       1       2       1       1       2       1       1       2
       1       1       2       1       1       2       1       1       2       1
       1       2       1       1       2       1       1       2       1       1
       2       1       1       2       1       1       2       1       1       2
       1       1       2       1       1       2       1       1       2       1
       1       2       1       1       2       1       1       2       1       1
       2       1       1       2       1       1       2       1       1       2
       1       1       2       1       1       2       1       1       2       1
       1       2       1       1       2       1       1       2       1       1
       2       1       1       2       1       1       2       1       1       2
       1       1       2       1       1       2       1       1       2       1
       1       2       1       1       2       1       1       2       1       1
       2       1       1       2       1       1       2       1       1       2
       1       1       2       1       1       2       1       1       2       1
       1       2       1       1       2       1       1       2       1       1
       2       1       1       2       1       1       2       1       1       2
       1       1       2       1       1       2       1       1       2       1
       1       2       1       1       2       1       1       2       1       1
       2       1       1       2       1       1       2       1       1       2
       1       1       2       1       1       2       1       1       2       1
       1       2       1       1       2       1       1       2       1       1
       2       1       1       2       1       1       2       1       1       2
       1       1       2       1       1       2       1       1       2       1
       1       2       1       1       2       1       1       2       1       1
       2       1       1       2       1       1       2       1       1       2
       1       1       2       1       1       2       1       1       2       1
       1       2       1       1       2       1       1       2       1       1
       2       1       1       2       1       1       2       1       1       2
       1       1       2       1       1       2       1       1       2       1
       1       2       1       1       2       1       1       2       1       1
       2       1       1       2       1       1       2       1       1       2
       1       1       2       1       1       2       1       1       2       1
       1       2       1       1       2       1       1       2       1       1
       2       1       1       2       1       1       2       1       1       2
       1       1       2       1       1       2       1       1       2       1
       1       2       1       1       2       1       1       2       1       1
       2       1       1       2       1       1       2       1       1       2
       1       1       2       1       1       2       1       1       2       1
       1       2       1       1       2       1       1       2       1       1
       2       1       1       2       1       1       2       1       1       2
       1       1       2       1       1       2       1       1       2       1
       1       2       1       1       2       1       1       2       1       1
       2       1       1       2       1       1       2       1       1       2
       1       1       2       1       1       2       1       1       2       1
       1       2       1       1       2       1       1       2       1       1
       2       1       1       2       1       1       2       1       1       2
       1       1       2       1       1       2       1       1       2       1
       1       2       1       1       2       1       1       2       1       1
       2       1       1       2       1       1       2       1       1       2
       1       1       2       1       1       2       1       1       2       1
       1       2       1       1       2       1       1       2       1       1
       2       1       1       2       1       1       2       1       1       2
       1       1       2       1       1       2       1       1       2       1
       1       2       1       1       2       1       1       2       1       1
       2       1       1       2       1       1       2       1       1       2
       1       1       2       1       1       2       1       1       2       1
       1       2       1       1       2       1       1       2       1       1
       2       1       1       2       1       1       2       1       1       2
       1       1       2       1       1       2       1       1       2       1
       1       2       1       1       2       1       1       2       1       1
       2       1       1       2       1       1       2       1       1       2
       1       1       2       1       1       2       1       1       2       1
       1       2       1       1       2       1       1       2       1       1
       2       1       1       2       1       1       2       1       1       2
       1       1       2       1       1       2       1       1       2       1
       1       2       1       1       2       1       1       2       1       1
       2       1       1       2       1       1       2       1       1       2
       1       1       2       1       1       2       1       1       2       1
       1       2       1       1       2       1       1       2       1       1
       2       1       1       2       1       1       2       1       1       2
       1       1       2       1       1       2       1       1       2       1
       1       2       1       1       2       1       1       2       1       1
       2       1       1       2       1       1       2       1       1       2
       1       1       2       1       1       2       1       1       2       1
       1       2       1       1       2       1       1       2       1       1
       2       1       1       2       1       1       2       1       1       2
       1       1       2       1       1       2       1       1       2       1
       1       2       1       1       2       1       1       2       1       1
       2       1       1       2       1       1       2       1       1       2
       1       1       2       1       1       2       1       1       2       1
       1       2       1       1       2       1       1       2       1       1
       2       1       1       2       1       1       2       1       1       2
       1       1       2       1       1       2       1       1       2       1
       1       2       1       1       2       1       1       2       1       1
       2       1       1       2       1       1       2       1       1       2
       1       1       2       1       1       2       1       1       2       1
       1       2       1       1       2       1       1       2       1       1
       2       1       1       2       1       1       2       1       1       2
       1       1       2       1       1       2       1       1       2       1
       1       2       1       1       2       1       1       2       1       1
       2       1       1       2       1       1       2       1       1       2
       1       1       2       1       1       2       1       1       2       1
       1       2       1       1       2       1       1       2       1       1
       2       1       1       2       1       1       2       1       1       2
       1       1       2       1       1       2       1       1       2       1
       1       2       1       1       2       1       1       2       1       1
       2       1       1       2       1       1       2       1       1       2
       1       1       2       1       1       2       1       1       2       1
       1       2       1       1       2       1       1       2       1       1
       2       1       1       2       1       1       2       1       1       2
       1       1       2       1       1       2       1       1       2       1
       1       2       1       1       2       1       1       2       1       1
       2       1       1       2       1       1       2       1       1       2
       1       1       2       1       1       2       1       1       2       1
       1       2       1       1       2       1       1       2       1       1
       2       1       1       2       1       1       2       1       1       2
       1       1       2       1       1       2       1       1       2       1
       1       2       1       1       2       1       1       2       1       1
       2       1       1       2       1       1       2       1       1       2
       1       1       2       1       1       2       1       1       2       1
       1       2       1       1       2       1       1       2       1       1
       2       1       1       2       1       1       2       1       1       2
       1       1       2       1       1       2       1       1       2       1
       1       2       1       1       2       1       1       2       1       1
       2       1       1       2       1       1       2       1       1       2
       1       1       2       1       1       2       1       1       2       1
       1       2       1       1       2       1       1       2       1       1
       2       1       1       2       1       1       2       1       1       2
       1       1       2       1       1       2       1       1       2       1
       1       2       1       1       2       1       1       2       1       1
       2       1       1       2       1       1       2       1       1       2
       1       1       2       1       1       2       1       1       2       1
       1       2       1       1       2       1       1       2       1       1
       2       1       1       2       1       1       2       1       1       2
       1       1       2       1       1       2       1       1       2       1
       1       2       1       1       2       1       1       2       1       1
       2       1       1       2       1       1       2       1       1       2
       1       1       2       1       1       2       1       1       2       1
       1       2       1       1       2       1       1       2       1       1
       2       1       1       2       1       1       2       1       1       2
       1       1       2       1       1       2       1       1       2       1
       1       2       1       1       2       1       1       2       1       1
       2       1       1       2       1       1       2       1       1       2
       1       1       2       1       1       2       1       1       2       1
       1       2       1       1       2       1       1       2       1       1
       2       1       1       2       1       1       2       1       1       2
       1       1       2       1       1       2       1       1       2       1
       1       2       1       1       2       1       1       2       1       1
       2       1       1       2       1       1       2       1       1       2
       1       1       2       1       1       2       1       1       2       1
       1       2       1       1       2       1       1       2       1       1
       2       1       1       2       1       1       2       1       1       2
       1       1       2       1       1       2       1       1       2       1
       1       2       1       1       2       1       1       2       1       1
       2       1       1       2       1       1       2       1       1       2
       1       1       2       1       1       2       1       1       2       1
       1       2       1       1       2       1       1       2       1       1
       2       1       1       2       1       1       2       1       1       2
       1       1       2       1       1       2       1       1       2       1
       1       2       1       1       2       1       1       2       1       1
       2       1       1       2       1       1       2       1       1       2
       1       1       2       1       1       2       1       1       2       1
       1       2       1       1       2       1       1       2       1       1
       2       1       1       2       1       1       2       1       1       2
       1       1       2       1       1       2       1       1       2       1
       1       2       1       1       2       1       1       2       1       1
       2       1       1       2       1       1       2       1       1       2
       1       1       2       1       1       2       1       1       2       1
       1       2       1       1       2       1       1       2       1       1
       2       1       1       2       1       1       2       1       1       2
       1       1       2       1       1       2       1       1       2       1
       1       2       1       1       2       1       1       2       1       1
       2       1       1       2       1       1       2       1       1       2
       1       1       2       1       1       2       1       1       2       1
       1       2       1       1       2       1       1       2       1       1
       2       1       1       2       1       1       2       1       1       2
       1       1       2       1       1       2       1       1       2       1
       1       2       1       1       2       1       1       2       1       1
       2       1       1       2       1       1       2       1       1       2
       1       1       2       1       1       2       1       1       2       1
       1       2       1       1       2       1       1       2       1       1
       2       1       1       2       1       1       2       1       1       2
       1       1       2       1       1       2       1       1       2       1
       1       2       1       1       2       1       1       2       1       1
       2       1       1       2       1       1       2       1       1       2
       1       1       2       1       1       2       1       1       2       1
       1       2       1       1       2       1       1       2       1       1
       2       1       1       2       1       1       2       1       1       2
       1       1       2       1       1       2       1       1       2       1
       1       2       1       1       2       1       1       2       1       1
       2       1       1       2       1       1       2       1       1       2
       1       1       2       1       1       2       1       1       2       1
       1       2       1       1       2       1       1       2       1       1
       2       1       1       2       1       1       2       1       1       2
       1       1       2       1       1       2       1       1       2       1
       1       2       1       1       2       1       1       2       1       1
       2       1       1       2       1       1       2       1       1       2
       1       1       2       1       1       2       1       1       2       1
       1       2       1       1       2       1       1       2       1       1
       2       1       1       2       1       1       2       1       1       2
       1       1       2       1       1       2       1       1       2       1
       1       2       1       1       2       1       1       2       1       1
       2       1       1       2       1       1       2       1       1       2
       1       1       2       1       1       2       1       1       2       1
       1       2       1       1       2       1       1       2       1       1
       2       1       1       2       1       1       2       1       1       2
       1       1       2       1       1       2       1       1       2       1
       1       2       1       1       2       1       1       2       1       1
       2       1       1       2       1       1       2       1       1       2
       1       1       2       1       1       2       1       1       2       1
       1       2       1       1       2       1       1       2       1       1
       2       1       1       2       1       1       2       1       1       2
       1       1       2       1       1       2       1       1       2       1
       1       2       1       1       2       1       1       2       1       1
       2       1       1       2       1       1       2       1       1       2
       1       1       2       1       1       2       1       1       2       1
       1       2       1       1       2       1       1       2       1       1
       2       1       1       2       1       1       2       1       1       2
       1       1       2       1       1       2       1       1       2       1
       1       2       1       1       2       1       1       2       1       1
       2       1       1       2       1       1       2       1       1       2
       1       1       2       1       1       2       1       1       2       1
       1       2       1       1       2       1       1       2       1       1
       2       1       1       2       1       1       2       1       1       2
       1       1       2       1       1       2       1       1       2       1
       1       2       1       1       2       1       1       2       1       1
       2       1       1       2       1       1       2       1       1       2
       1       1       2       1       1       2       1       1       2       1
       1       2       1       1       2       1       1       2       1       1
       2       1       1       2       1       1       2       1       1       2
       1       1       2       1       1       2       1       1       2       1
       1       2       1       1       2       1       1       2       1       1
       2       1       1       2       1       1       2       1       1       2
       1       1       2       1       1       2       1       1       2       1
       1       2       1       1       2       1       1       2       1       1
       2       1       1       2       1       1       2       1       1       2
       1       1       2       1       1       2       1       1       2       1
       1       2       1       1       2       1       1       2       1       1
       2       1       1       2       1       1       2       1       1       2
       1       1       2       1       1       2       1       1       2       1
       1       2       1       1       2       1       1       2       1       1
       2       1       1       2       1       1       2       1       1       2
       1       1       2       1       1       2       1       1       2       1
       1       2       1       1       2       1       1       2       1       1
       2       1       1       2       1       1       2       1       1       2
       1       1       2       1       1       2       1       1       2       1
       1       2       1       1       2       1       1       2       1       1
       2       1       1       2       1       1       2       1       1       2
       1       1       2       1       1       2       1       1       2       1
       1       2       1       1       2       1       1       2       1       1
       2       1       1       2       1       1       2       1       1       2
       1       1       2       1       1       2       1       1       2       1
       1       2       1       1       2       1       1       2       1       1
       2       1       1       2       1       1       2       1       1       2
       1       1       2       1       1       2       1       1       2       1
       1       2       1       1       2       1       1       2       1       1
       2       1       1       2       1       1       2       1       1       2
       1       1       2       1       1       2       1       1       2       1
       1       2       1       1       2       1       1       2       1       1
       2       1       1       2       1       1       2       1       1       2
       1       1       2       1       1       2       1       1       2       1
       1       2       1       1       2       1       1       2       1       1
       2       1       1       2       1       1       2       1       1       2
       1       1       2       1       1       2       1       1       2       1
       1       2       1       1       2       1       1       2       1       1
       2       1       1       2       1       1       2       1       1       2
       1       1       2       1       1       2       1       1       2       1
       1       2       1       1       2       1       1       2       1       1
       2       1       1       2       1       1       2       1       1       2
       1       1       2       1       1       2       1       1       2       1
       1       2       1       1       2       1       1       2       1       1
       2       1       1       2       1       1       2       1       1       2
       1       1       2       1       1       2       1       1       2       1
       1       2       1       1       2       1       1       2       1       1
       2       1       1       2       1       1       2       1       1       2
       1       1       2       1       1       2       1       1       2       1
       1       2       1       1       2       1       1       2       1       1
       2       1       1       2       1       1       2       1       1       2
       1       1       2       1       1       2       1       1       2       1
       1       2       1       1       2       1       1       2       1       1
       2       1       1       2       1       1       2       1       1       2
       1       1       2       1       1       2       1       1       2       1
       1       2       1       1       2       1       1       2       1       1
       2       1       1       2       1       1       2       1       1       2
       1       1       2       1       1       2       1       1       2       1
       1       2       1       1       2       1       1       2       1       1
       2       1       1       2       1       1       2       1       1       2
       1       1       2       1       1       2       1       1       2       1
       1       2       1       1       2       1       1       2       1       1
       2       1       1       2       1       1       2       1       1       2
       1       1       2       1       1       2       1       1       2       1
       1       2       1       1       2       1       1       2       1       1
       2       1       1       2       1       1       2       1       1       2
       1       1       2       1       1       2       1       1       2       1
       1       2       1       1       2       1       1       2       1       1
       2       1       1       2       1       1       2       1       1       2
       1       1       2       1       1       2       1       1       2       1
       1       2       1       1       2       1       1       2       1       1
       2       1       1       2       1       1       2       1       1       2
       1       1       2       1       1       2       1       1       2       1
       1       2       1       1       2       1       1       2       1       1
       2       1       1       2       1       1       2       1       1       2
       1       1       2       1       1       2       1       1       2       1
       1       2       1       1       2       1       1       2       1       1
       2       1       1       2       1       1       2       1       1       2
       1       1       2       1       1       2       1       1       2       1
       1       2       1       1       2       1       1       2       1       1
       2       1       1       2       1       1       2       1       1       2
       1       1       2       1       1       2       1       1       2       1
       1       2       1       1       2       1       1       2       1       1
       2       1       1       2       1       1       2       1       1       2
       1       1       2       1       1       2       1       1       2       1
       1       2       1       1       2       1       1       2       1       1
       2       1       1       2       1       1       2       1       1       2
       1       1       2       1       1       2       1       1       2       1
       1       2       1       1       2       1       1       2       1       1
       2       1       1       2       1       1       2       1       1       2
       1       1       2       1       1       2       1       1       2       1
       1       2       1       1       2       1       1       2       1       1
       2       1       1       2       1       1       2       1       1       2
       1       1       2       1       1       2       1       1       2       1
       1       2       1       1       2       1       1       2       1       1
       2       1       1       2       1       1       2       1       1       2
       1       1       2       1       1       2       1       1       2       1
       1       2       1       1       2       1       1       2       1       1
       2       1       1       2       1       1       2       1       1       2
       1       1       2       1       1       2       1       1       2       1
       1       2       1       1       2       1       1       2       1       1
       2       1       1       2       1       1       2       1       1       2
       1       1       2       1       1       2       1       1       2       1
       1       2       1       1       2       1       1       2       1       1
       2       1       1       2       1       1       2       1       1       2
       1       1       2       1       1       2       1       1       2       1
       1       2       1       1       2       1       1       2       1       1
       2       1       1       2       1       1       2       1       1       2
       1       1       2       1       1       2       1       1       2       1
       1       2       1       1       2       1       1       2       1       1
       2       1       1       2       1       1       2       1       1       2
       1       1       2       1       1       2       1       1       2       1
       1       2       1       1       2       1       1       2       1       1
       2       1       1       2       1       1       2       1       1       2
       1       1       2       1       1       2       1       1       2       1
       1       2       1       1       2       1       1       2       1       1
       2       1       1       2       1       1       2       1       1       2
       1       1       2       1       1       2       1       1       2       1
       1       2       1       1       2       1       1       2       1       1
       2       1       1       2       1       1       2       1       1       2
       1       1       2       1       1       2       1       1       2       1
       1       2       1       1       2       1       1       2       1       1
       2       1       1       2       1       1       2       1       1       2
       1       1       2       1       1       2       1       1       2       1
       1       2       1       1       2       1       1       2       1       1
       2       1       1       2       1       1       2       1       1       2
       1       1       2       1       1       2       1       1       2       1
       1       2       1       1       2       1       1       2       1       1
       2       1       1       2       1       1       2       1       1       2
       1       1       2       1       1       2       1       1       2       1
       1       2       1       1       2       1       1       2       1       1
       2       1       1       2       1       1       2       1       1       2
       1       1       2       1       1       2       1       1       2       1
       1       2       1       1       2       1       1       2       1       1
       2       1       1       2       1       1       2       1       1       2
       1       1       2       1       1       2       1       1       2       1
       1       2       1       1       2       1       1       2       1       1
       2       1       1       2       1       1       2       1       1       2
       1       1       2       1       1       2       1       1       2       1
       1       2       1       1       2       1       1       2       1       1
       2       1       1       2       1       1       2       1       1       2
       1       1       2       1       1       2       1       1       2       1
       1       2       1       1       2       1       1       2       1       1
       2       1       1       2       1       1       2       1       1       2
       1       1       2       1       1       2       1       1       2       1
       1       2       1       1       2       1       1       2       1       1
       2       1       1       2       1       1       2       1       1       2
       1       1       2       1       1       2       1       1       2       1
       1       2       1       1       2       1       1       2       1       1
       2       1       1       2       1       1       2       1       1       2
       1       1       2       1       1       2       1       1       2       1
       1       2       1       1       2       1       1       2       1       1
       2       1       1       2       1       1       2       1       1       2
       1       1       2       1       1       2       1       1       2       1
       1       2       1       1       2       1       1       2       1       1
       2       1       1       2       1       1       2       1       1       2
       1       1       2       1       1       2       1       1       2       1
       1       2       1       1       2       1       1       2       1       1
       2       1       1       2       1       1       2       1       1       2
       1       1       2       1       1       2       1       1       2       1
       1       2       1       1       2       1       1       2       1       1
       2       1       1       2       1       1       2       1       1       2
       1       1       2       1       1       2       1       1       2       1
       1       2       1       1       2       1       1       2       1       1
       2       1       1       2       1       1       2       1       1       2
       1       1       2       1       1       2       1       1       2       1
       1       2       1       1       2       1       1       2       1       1
       2       1       1       2       1       1       2       1       1       2
       1       1       2       1       1       2       1       1       2       1
       1       2       1       1       2       1       1       2       1       1
       2       1       1       2       1       1       2       1       1       2
       1       1       2       1       1       2       1       1       2       1
       1       2       1       1       2       1       1       2       1       1
       2       1       1       2       1       1       2       1       1       2
       1       1       2       1       1       2       1       1       2       1
       1       2       1       1       2       1       1       2       1       1
       2       1       1       2       1       1       2       1       1       2
       1       1       2       1       1       2       1       1       2       1
       1       2       1       1       2       1       1       2       1       1
       2       1       1       2       1       1       2       1       1       2
       1       1       2       1       1       2       1       1       2       1
       1       2       1       1       2       1       1       2       1       1
       2       1       1       2       1       1       2       1       1       2
       1       1       2       1       1       2       1       1       2       1
       1       2       1       1       2       1       1       2       1       1
       2       1       1       2       1       1       2       1       1       2
       1       1       2       1       1       2       1       1       2       1
       1       2       1       1       2       1       1       2       1       1
       2       1       1       2       1       1       2       1       1       2
       1       1       2       1       1       2       1       1       2       1
       1       2       1       1       2       1       1       2       1       1
       2       1       1       2       1       1       2       1       1       2
       1       1       2       1       1       2       1       1       2       1
       1       2       1       1       2       1       1       2       1       1
       2       1       1       2       1       1       2       1       1       2
       1       1       2       1       1       2       1       1       2       1
       1       2       1       1       2       1       1       2       1       1
       2       1       1       2       1       1       2       1       1       2
       1       1       2       1       1       2       1       1       2       1
       1       2       1       1       2       1       1       2       1       1
       2       1       1       2       1       1       2       1       1       2
       1       1       2       1       1       2       1       1       2       1
       1       2       1       1       2       1       1       2       1       1
       2       1       1       2       1       1       2       1       1       2
       1       1       2       1       1       2       1       1       2       1
       1       2       1       1       2       1       1       2       1       1
       2       1       1       2       1       1       2       1       1       2
       1       1       2       1       1       2       1       1       2       1
       1       2       1       1       2       1       1       2       1       1
       2       1       1       2       1       1       2       1       1       2
       1       1       2       1       1       2       1       1       2       1
       1       2       1       1       2       1       1       2       1       1
       2       1       1       2       1       1       2       1       1       2
       1       1       2       1       1       2       1       1       2       1
       1       2       1       1       2       1       1       2       1       1
       2       1       1       2       1       1       2       1       1       2
       1       1       2       1       1       2       1       1       2       1
       1       2       1       1       2       1       1       2       1       1
       2       1       1       2       1       1       2       1       1       2
       1       1       2       1       1       2       1       1       2       1
       1       2       1       1       2       1       1       2       1       1
       2       1       1       2       1       1       2       1       1       2
       1       1       2       1       1       2       1       1       2       1
       1       2       1       1       2       1       1       2       1       1
       2       1       1       2       1       1       2       1       1       2
       1       1       2       1       1       2       1       1       2       1
       1       2       1       1       2       1       1       2       1       1
       2       1       1       2       1       1       2       1       1       2
       1       1       2       1       1       2       1       1       2       1
       1       2       1       1       2       1       1       2       1       1
       2       1       1       2       1       1       2       1       1       2
       1       1       2       1       1       2       1       1       2       1
       1       2       1       1       2       1       1       2       1       1
       2       1       1       2       1       1       2       1       1       2
       1       1       2       1       1       2       1       1       2       1
       1       2       1       1       2       1       1       2       1       1
       2       1       1       2       1       1       2       1       1       2
       1       1       2       1       1       2       1       1       2       1
       1       2       1       1       2       1       1       2       1       1
       2       1       1       2       1       1       2       1       1       2
       1       1       2       1       1       2       1       1       2       1
       1       2       1       1       2       1       1       2       1       1
       2       1       1       2       1       1       2       1       1       2
       1       1       2       1       1       2       1       1       2       1
       1       2       1       1       2       1       1       2       1       1
       2       1       1       2       1       1       2       1       1       2
       1       1       2       1       1       2       1       1       2       1
       1       2       1       1       2       1       1       2       1       1
       2       1       1       2       1       1       2       1       1       2
       1       1       2       1       1       2       1       1       2       1
       1       2       1       1       2       1       1       2       1       1
       2       1       1       2       1       1       2       1       1       2
       1       1       2       1       1       2       1       1       2       1
       1       2       1       1       2       1       1       2       1       1
       2       1       1       2       1       1       2       1       1       2
       1       1       2       1       1       2       1       1       2       1
       1       2       1       1       2       1       1       2       1       1
       2       1       1       2       1       1       2       1       1       2
       1       1       2       1       1       2       1       1       2       1
       1       2       1       1       2       1       1       2       1       1
       2       1       1       2       1       1       2       1       1       2
       1       1       2       1       1       2       1       1       2       1
       1       2       1       1       2       1       1       2       1       1
       2       1       1       2       1       1       2       1       1       2
       1       1       2       1       1       2       1       1       2       1
       1       2       1       1       2       1       1       2       1       1
       2       1       1       2       1       1       2       1       1       2
       1       1       2       1       1       2       1       1       2       1
       1       2       1       1       2       1       1       2       1       1
       2       1       1       2       1       1       2       1       1       2
       1       1       2       1       1       2       1       1       2       1
       1       2       1       1       2       1       1       2       1       1
       2       1       1       2       1       1       2       1       1       2
       1       1       2       1       1       2       1       1       2       1
       1       2       1       1       2       1       1       2       1       1
       2       1       1       2       1       1       2       1       1       2
       1       1       2       1       1       2       1       1       2       1
       1       2       1       1       2       1       1       2       1       1
       2       1       1       2       1       1       2       1       1       2
       1       1       2       1       1       2       1       1       2       1
       1       2       1       1       2       1       1       2       1       1
       2       1       1       2       1       1       2       1       1       2
       1       1       2       1       1       2       1       1       2       1
       1       2       1       1       2       1       1       2       1       1
       2       1       1       2       1       1       2       1       1       2
       1       1       2       1       1       2       1       1       2       1
       1       2       1       1       2       1       1       2       1       1
       2       1       1       2       1       1       2       1       1       2
       1       1       2       1       1       2       1       1       2       1
       1       2       1       1       2       1       1       2       1       1
       2       1       1       2       1       1       2       1       1       2
       1       1       2       1       1       2       1       1       2       1
       1       2       1       1       2       1       1       2       1       1
       2       1       1       2       1       1       2       1       1       2
       1       1       2       1       1       2       1       1       2       1
       1       2       1       1       2       1       1       2       1       1
       2       1       1       2       1       1       2       1       1       2
       1       1       2       1       1       2       1       1       2       1
       1       2       1       1       2       1       1       2       1       1
       2       1       1       2       1       1       2       1       1       2
       1       1       2       1       1       2       1       1       2       1
       1       2       1       1       2       1       1       2       1       1
       2       1       1       2       1       1       2       1       1       2
       1       1       2       1       1       2       1       1       2       1
       1       2       1       1       2       1       1       2       1       1
       2       1       1       2       1       1       2       1       1       2
       1       1       2       1       1       2       1       1       2       1
       1       2       1       1       2       1       1       2       1       1
       2       1       1       2       1       1       2       1       1       2
       1       1       2       1       1       2       1       1       2       1
       1       2       1       1       2       1       1       2       1       1
       2       1       1       2       1       1       2       1       1       2
       1       1       2       1       1       2       1       1       2       1
       1       2       1       1       2       1       1       2       1       1
       2       1       1       2       1       1       2       1       1       2
       1       1       2       1       1       2       1       1       2       1
       1       2       1       1       2       1       1       2       1       1
       2       1       1       2       1       1       2       1       1       2
       1       1       2       1       1       2       1       1       2       1
       1       2       1       1       2       1       1       2       1       1
       2       1       1       2       1       1       2       1       1       2
       1       1       2       1       1       2       1       1       2       1
       1       2       1       1       2       1       1       2       1       1
       2       1       1       2       1       1       2       1       1       2
       1       1       2       1       1       2       1       1       2       1
       1       2       1       1       2       1       1       2       1       1
       2       1       1       2       1       1       2       1       1       2
       1       1       2       1       1       2       1       1       2       1
       1       2       1       1       2       1       1       2       1       1
       2       1       1       2       1       1       2       1       1       2
       1       1       2       1       1       2       1       1       2       1
       1       2       1       1       2       1       1       2       1       1
       2       1       1       2       1       1       2       1       1       2
       1       1       2       1       1       2       1       1       2       1
       1       2       1       1       2       1       1       2       1       1
       2       1       1       2       1       1       2       1       1       2
       1       1       2       1       1       2       1       1       2       1
       1       2       1       1       2       1       1       2       1       1
       2       1       1       2       1       1       2       1       1       2
       1       1       2       1       1       2       1       1       2       1
       1       2       1       1       2       1       1       2       1       1
       2       1       1       2       1       1       2       1       1       2
       1       1       2       1       1       2       1       1       2       1
       1       2       1       1       2       1       1       2       1       1
       2       1       1       2       1       1       2       1       1       2
       1       1       2       1       1       2       1       1       2       1
       1       2       1       1       2       1       1       2       1       1
       2       1       1       2       1       1       2       1       1       2
       1       1       2       1       1       2       1       1       2       1
       1       2       1       1       2       1       1       2       1       1
       2       1       1       2       1       1       2       1       1       2
       1       1       2       1       1       2       1       1       2       1
       1       2       1       1       2       1       1       2       1       1
       2       1       1       2       1       1       2       1       1       2
       1       1       2       1       1       2       1       1       2       1
       1       2       1       1       2       1       1       2       1       1
       2       1       1       2       1       1       2       1       1       2
       1       1       2       1       1       2       1       1       2       1
       1       2       1       1       2       1       1       2       1       1
       2       1       1       2       1       1       2       1       1       2
       1       1       2       1       1       2       1       1       2       1
       1       2       1       1       2       1       1       2       1       1
       2       1       1       2       1       1       2       1       1       2
       1       1       2       1       1       2       1       1       2       1
       1       2       1       1       2       1       1       2       1       1
       2       1       1       2       1       1       2       1       1       2
       1       1       2       1       1       2       1       1       2       1
       1       2       1       1       2       1       1       2       1       1
       2       1       1       2       1       1       2       1       1       2
       1       1       2       1       1       2       1       1       2       1
       1       2       1       1       2       1       1       2       1       1
       2       1       1       2       1       1       2       1       1       2
       1       1       2       1       1       2       1       1       2       1
       1       2       1       1       2       1       1       2       1       1
       2       1       1       2       1       1       2       1       1       2
       1       1       2       1       1       2       1       1       2       1
       1       2       1       1       2       1       1       2       1       1
       2       1       1       2       1       1       2       1       1       2
       1       1       2       1       1       2       1       1       2       1
       1       2       1       1       2       1       1       2       1       1
       2       1       1       2       1       1       2       1       1       2
       1       1       2       1       1       2       1       1       2       1
       1       2       1       1       2       1       1       2       1       1
       2       1       1       2       1       1       2       1       1       2
       1       1       2       1       1       2       1       1       2       1
       1       2       1       1       2       1       1       2       1       1
       2       1       1       2       1       1       2       1       1       2
       1       1       2       1       1       2       1       1       2       1
       1       2       1       1       2       1       1       2       1       1
       2       1       1       2       1       1       2       1       1       2
       1       1       2       1       1       2       1       1       2       1
       1       2       1       1       2       1       1       2       1       1
       2       1       1       2       1       1       2       1       1       2
       1       1       2       1       1       2       1       1       2       1
       1       2       1       1       2       1       1       2       1       1
       2       1       1       2       1       1       2       1       1       2
       1       1       2       1       1       2       1       1       2       1
       1       2       1       1       2       1       1       2       1       1
       2       1       1       2       1       1       2       1       1       2
       1       1       2       1       1       2       1       1       2       1
       1       2       1       1       2       1       1       2       1       1
       2       1       1       2       1       1       2       1       1       2
       1       1       2       1       1       2       1       1       2       1
       1       2       1       1       2       1       1       2       1       1
       2       1       1       2       1       1       2       1       1       2
       1       1       2       1       1       2       1       1       2       1
       1       2       1       1       2       1       1       2       1       1
       2       1       1       2       1       1       2       1       1       2
       1       1       2       1       1       2       1       1       2       1
       1       2       1       1       2       1       1       2       1       1
       2       1       1       2       1       1       2       1       1       2
       1       1       2       1       1       2       1       1       2       1
       1       2       1       1       2       1       1       2       1       1
       2       1       1       2       1       1       2       1       1       2
       1       1       2       1       1       2       1       1       2       1
       1       2       1       1       2       1       1       2       1       1
       2       1       1       2       1       1       2       1       1       2
       1       1       2       1       1       2       1       1       2       1
       1       2       1       1       2       1       1       2       1       1
       2       1       1       2       1       1       2       1       1       2
       1       1       2       1       1       2       1       1       2       1
       1       2       1       1       2       1       1       2       1       1
       2       1       1       2       1       1       2       1       1       2
       1       1       2       1       1       2       1       1       2       1
       1       2       1       1       2       1       1       2       1       1
       2       1       1       2       1       1       2       1       1       2
       1       1       2       1       1       2       1       1       2       1
       1       2       1       1       2       1       1       2       1       1
       2       1       1       2       1       1       2       1       1       2
       1       1       2       1       1       2       1       1       2       1
       1       2       1       1       2       1       1       2       1       1
       2       1       1       2       1       1       2       1       1       2
       1       1       2       1       1       2       1       1       2       1
       1       2       1       1       2       1       1       2       1       1
       2       1       1       2       1       1       2       1       1       2
       1       1       2       1       1       2       1       1       2       1
       1       2       1       1       2       1       1       2       1       1
       2       1       1       2       1       1       2       1       1       2
       1       1       2       1       1       2       1       1       2       1
       1       2       1       1       2       1       1       2       1       1
       2       1       1       2       1       1       2       1       1       2
       1       1       2       1       1       2       1       1       2       1
       1       2       1       1       2       1       1       2       1       1
       2       1       1       2       1       1       2       1       1       2
       1       1       2       1       1       2       1       1       2       1
       1       2       1       1       2       1       1       2       1       1
       2       1       1       2       1       1       2       1       1       2
       1       1       2       1       1       2       1       1       2       1
       1       2       1       1       2       1       1       2       1       1
       2       1       1       2       1       1       2       1       1       2
       1       1       2       1       1       2       1       1       2       1
       1       2       1       1       2       1       1       2       1       1
       2       1       1       2       1       1       2       1       1       2
       1       1       2       1       1       2       1       1       2       1
       1       2       1       1       2       1       1       2       1       1
       2       1       1       2       1       1       2       1       1       2
       1       1       2       1       1       2       1       1       2       1
       1       2       1       1       2       1       1       2       1       1
       2       1       1       2       1       1       2       1       1       2
       1       1       2       1       1       2       1       1       2       1
       1       2       1       1       2       1       1       2       1       1
       2       1       1       2       1       1       2       1       1       2
       1       1       2       1       1       2       1       1       2       1
       1       2       1       1       2       1       1       2       1       1
       2       1       1       2       1       1       2       1       1       2
       1       1       2       1       1       2       1       1       2       1
       1       2       1       1       2       1       1       2       1       1
       2       1       1       2       1       1       2       1       1       2
       1       1       2       1       1       2       1       1       2       1
       1       2       1       1       2       1       1       2       1       1
       2       1       1       2       1       1       2       1       1       2
       1       1       2       1       1       2       1       1       2       1
       1       2       1       1       2       1       1       2       1       1
       2       1       1       2       1       1       2       1       1       2
       1       1       2       1       1       2       1       1       2       1
       1       2       1       1       2       1       1       2       1       1
       2       1       1       2       1       1       2       1       1       2
       1       1       2       1       1       2       1       1       2       1
       1       2       1       1       2       1       1       2       1       1
       2       1       1       2       1       1       2       1       1       2
       1       1       2       1       1       2       1       1       2       1
       1       2       1       1       2       1       1       2       1       1
       2       1       1       2       1       1       2       1       1       2
       1       1       2       1       1       2       1       1       2       1
       1       2       1       1       2       1       1       2       1       1
       2       1       1       2       1       1       2       1       1       2
       1       1       2       1       1       2       1       1       2       1
       1       2       1       1       2       1       1       2       1       1
       2       1       1       2       1       1       2       1       1       2
       1       1       2       1       1       2       1       1       2       1
       1       2       1       1       2       1       1       2       1       1
       2       1       1       2       1       1       2       1       1       2
       1       1       2       1       1       2       1       1       2       1
       1       2       1       1       2       1       1       2       1       1
       2       1       1       2       1       1       2       1       1       2
       1       1       2       1       1       2       1       1       2       1
       1       2       1       1       2       1       1       2       1       1
       2       1       1       2       1       1       2       1       1       2
       1       1       2       1       1       2       1       1       2       1
       1       2       1       1       2       1       1       2       1       1
       2       1       1       2       1       1       2       1       1       2
       1       1       2       1       1       2       1       1       2       1
       1       2       1       1       2       1       1       2       1       1
       2       1       1       2       1       1       2       1       1       2
       1       1       2       1       1       2       1       1       2       1
       1       2       1       1       2       1       1       2       1       1
       2       1       1       2       1       1       2       1       1       2
       1       1       2       1       1       2       1       1       2       1
       1       2       1       1       2       1       1       2       1       1
       2       1       1       2       1       1       2       1       1       2
       1       1       2       1       1       2       1       1       2       1
       1       2       1       1       2       1       1       2       1       1
       2       1       1       2       1       1       2       1       1       2
       1       1       2       1       1       2       1       1       2       1
       1       2       1       1       2       1       1       2       1       1
       2       1       1       2       1       1       2       1       1       2
       1       1       2       1       1       2       1       1       2       1
       1       2       1       1       2       1       1       2       1       1
       2       1       1       2       1       1       2       1       1       2
       1       1       2       1       1       2       1       1       2       1
       1       2       1       1       2       1       1       2       1       1
       2       1       1       2       1       1       2       1       1       2
       1       1       2       1       1       2       1       1       2       1
       1       2       1       1       2       1       1       2       1       1
       2       1       1       2       1       1       2       1       1       2
       1       1       2       1       1       2       1       1       2       1
       1       2       1       1       2       1       1       2       1       1
       2       1       1       2       1       1       2       1       1       2
       1       1       2       1       1       2       1       1       2       1
       1       2       1       1       2       1       1       2       1       1
       2       1       1       2       1       1       2       1       1       2
       1       1       2       1       1       2       1       1       2       1
       1       2       1       1       2       1       1       2       1       1
       2       1       1       2       1       1       2       1       1       2
       1       1       2       1       1       2       1       1       2       1
       1       2       1       1       2       1       1       2       1       1
       2       1       1       2       1       1       2       1       1       2
       1       1       2       1       1       2       1       1       2       1
       1       2       1       1       2       1       1       2       1       1
       2       1       1       2       1       1       2       1       1       2
       1       1       2       1       1       2       1       1       2       1
       1       2       1       1       2       1       1       2       1       1
       2       1       1       2       1       1       2       1       1       2
       1       1       2       1       1       2       1       1       2       1
       1       2       1       1       2       1       1       2       1       1
       2       1       1       2       1       1       2       1       1       2
       1       1       2       1       1       2       1       1       2       1
       1       2       1       1       2       1       1       2       1       1
       2       1       1       2       1       1       2       1       1       2
       1       1       2       1       1       2       1       1       2       1
       1       2       1       1       2       1       1       2       1       1
       2       1       1       2       1       1       2       1       1       2
       1       1       2       1       1       2       1       1       2       1
       1       2       1       1       2       1       1       2       1       1
       2       1       1       2       1       1       2       1       1       2
       1       1       2       1       1       2       1       1       2       1
       1       2       1       1       2       1       1       2       1       1
       2       1       1       2       1       1       2       1       1       2
       1       1       2       1       1       2       1       1       2       1
       1       2       1       1       2       1       1       2       1       1
       2       1       1       2       1       1       2       1       1       2
       1       1       2       1       1       2       1       1       2       1
       1       2       1       1       2       1       1       2       1       1
       2       1       1       2       1       1       2       1       1       2
       1       1       2       1       1       2       1       1       2       1
       1       2       1       1       2       1       1       2       1       1
       2       1       1       2       1       1       2       1       1       2
       1       1       2       1       1       2       1       1       2       1
       1       2       1       1       2       1       1       2       1       1
       2       1       1       2       1       1       2       1       1       2
       1       1       2       1       1       2       1       1       2       1
       1       2       1       1       2       1       1       2       1       1
       2       1       1       2       1       1       2       1       1       2
       1       1       2       1       1       2       1       1       2       1
       1       2       1       1       2       1       1       2       1       1
       2       1       1       2       1       1       2       1       1       2
       1       1       2       1       1       2       1       1       2       1
       1       2       1       1       2       1       1       2       1       1
       2       1       1       2       1       1       2       1       1       2
       1       1       2       1       1       2       1       1       2       1
       1       2       1       1       2       1       1       2       1       1
       2       1       1       2       1       1       2       1       1       2
       1       1       2       1       1       2       1       1       2       1
       1       2       1       1       2       1       1       2       1       1
       2       1       1       2       1       1       2       1       1       2
       1       1       2       1       1       2       1       1       2       1
       1       2       1       1       2       1       1       2       1       1
       2       1       1       2       1       1       2       1       1       2
       1       1       2       1       1       2       1       1       2       1
       1       2       1       1       2       1       1       2       1       1
       2       1       1       2       1       1       2       1       1       2
       1       1       2       1       1       2       1       1       2       1
       1       2       1       1       2       1       1       2       1       1
       2       1       1       2       1       1       2       1       1       2
       1       1       2       1       1       2       1       1       2       1
       1       2       1       1       2       1       1       2       1       1
       2       1       1       2       1       1       2       1       1       2
       1       1       2       1       1       2       1       1       2       1
       1       2       1       1       2       1       1       2       1       1
       2       1       1       2       1       1       2       1       1       2
       1       1       2       1       1       2       1       1       2       1
       1       2       1       1       2       1       1       2       1       1
       2       1       1       2       1       1       2       1       1       2
       1       1       2       1       1       2       1       1       2       1
       1       2       1       1       2       1       1       2       1       1
       2       1       1       2       1       1       2       1       1       2
       1       1       2       1       1       2       1       1       2       1
       1       2       1       1       2       1       1       2       1       1
       2       1       1       2       1       1       2       1       1       2
       1       1       2       1       1       2       1       1       2       1
       1       2       1       1       2       1       1       2       1       1
       2       1       1       2       1       1       2       1       1       2
       1       1       2       1       1       2       1       1       2       1
       1       2       1       1       2       1       1       2       1       1
       2       1       1       2       1       1       2       1       1       2
       1       1       2       1       1       2       1       1       2       1
       1       2       1       1       2       1       1       2       1       1
       2       1       1       2       1       1       2       1       1       2
       1       1       2       1       1       2       1       1       2       1
       1       2       1       1       2       1       1       2       1       1
       2       1       1       2       1       1       2       1       1       2
       1       1       2       1       1       2       1       1       2       1
       1       2       1       1       2       1       1       2       1       1
       2       1       1       2       1       1       2       1       1       2
       1       1       2       1       1       2       1       1       2       1
       1       2       1       1       2       1       1       2       1       1
       2       1       1       2       1       1       2       1       1       2
       1       1       2       1       1       2       1       1       2       1
       1       2       1       1       2       1       1       2       1       1
       2       1       1       2       1       1       2       1       1       2
       1       1       2       1       1       2       1       1       2       1
       1       2       1       1       2       1       1       2       1       1
       2       1       1       2       1       1       2       1       1       2
       1       1       2       1       1       2       1       1       2       1
       1       2       1       1       2       1       1       2       1       1
       2       1       1       2       1       1       2       1       1       2
       1       1       2       1       1       2       1       1       2       1
       1       2       1       1       2       1       1       2       1       1
       2       1       1       2       1       1       2       1       1       2
       1       1       2       1       1       2       1       1       2       1
       1       2       1       1       2       1       1       2       1       1
       2       1       1       2       1       1       2       1       1       2
       1       1       2       1       1       2       1       1       2       1
       1       2       1       1       2       1       1       2       1       1
       2       1       1       2       1       1       2       1       1       2
       1       1       2       1       1       2       1       1       2       1
       1       2       1       1       2       1       1       2       1       1
       2       1       1       2       1       1       2       1       1       2
       1       1       2       1       1       2       1       1       2       1
       1       2       1       1       2       1       1       2       1       1
       2       1       1       2       1       1       2       1       1       2
       1       1       2       1       1       2       1       1       2       1
       1       2       1       1       2       1       1       2       1       1
       2       1       1       2       1       1       2       1       1       2
       1       1       2       1       1       2       1       1       2       1
       1       2       1       1       2       1       1       2       1       1
       2       1       1       2       1       1       2       1       1       2
       1       1       2       1       1       2       1       1       2       1
       1       2       1       1       2       1       1       2       1       1
       2       1       1       2       1       1       2       1       1       2
       1       1       2       1       1       2       1       1       2       1
       1       2       1       1       2       1       1       2       1       1
       2       1       1       2       1       1       2       1       1       2
       1       1       2       1       1       2       1       1       2       1
       1       2       1       1       2       1       1       2       1       1
       2       1       1       2       1       1       2       1       1       2
       1       1       2       1       1       2       1       1       2       1
       1       2       1       1       2       1       1       2       1       1
       2       1       1       2       1       1       2       1       1       2
       1       1       2       1       1       2       1       1       2       1
       1       2       1       1       2       1       1       2       1       1
       2       1       1       2       1       1       2       1       1       2
       1       1       2       1       1       2       1       1       2       1
       1       2       1       1       2       1       1       2       1       1
       2       1       1       2       1       1       2       1       1       2
       1       1       2       1       1       2       1       1       2       1
       1       2       1       1       2       1       1       2       1       1
       2       1       1       2       1       1       2       1       1       2
       1       1       2       1       1       2       1       1       2       1
       1       2       1       1       2       1       1       2       1       1
       2       1       1       2       1       1       2       1       1       2
       1       1       2       1       1       2       1       1       2       1
       1       2       1       1       2       1       1       2       1       1
       2       1       1       2       1       1       2       1       1       2
       1       1       2       1       1       2       1       1       2       1
       1       2       1       1       2       1       1       2       1       1
       2       1       1       2       1       1       2       1       1       2
       1       1       2       1       1       2       1       1       2       1
       1       2       1       1       2       1       1       2       1       1
       2       1       1       2       1       1       2       1       1       2
       1       1       2       1       1       2       1       1       2       1
       1       2       1       1       2       1       1       2       1       1
       2       1       1       2       1       1       2       1       1       2
       1       1       2       1       1       2       1       1       2       1
       1       2       1       1       2       1       1       2       1       1
       2       1       1       2       1       1       2       1       1       2
       1       1       2       1       1       2       1       1       2       1
       1       2       1       1       2       1       1       2       1       1
       2       1       1       2       1       1       2       1       1       2
       1       1       2       1       1       2       1       1       2       1
       1       2       1       1       2       1       1       2       1       1
       2       1       1       2       1       1       2       1       1       2
       1       1       2       1       1       2       1       1       2       1
       1       2       1       1       2       1       1       2       1       1
       2       1       1       2       1       1       2       1       1       2
       1       1       2       1       1       2       1       1       2       1
       1       2       1       1       2       1       1       2       1       1
       2       1       1       2       1       1       2       1       1       2
       1       1       2       1       1       2       1       1       2       1
       1       2       1       1       2       1       1       2       1       1
       2       1       1       2       1       1       2       1       1       2
       1       1       2       1       1       2       1       1       2       1
       1       2       1       1       2       1       1       2       1       1
       2       1       1       2       1       1       2       1       1       2
       1       1       2       1       1       2       1       1       2       1
       1       2       1       1       2       1       1       2       1       1
       2       1       1       2       1       1       2       1       1       2
       1       1       2       1       1       2       1       1       2       1
       1       2       1       1       2       1       1       2       1       1
       2       1       1       2       1       1       2       1       1       2
       1       1       2       1       1       2       1       1       2       1
       1       2       1       1       2       1       1       2       1       1
       2       1       1       2       1       1       2       1       1       2
       1       1       2       1       1       2       1       1       2       1
       1       2       1       1       2       1       1       2       1       1
       2       1       1       2       1       1       2       1       1       2
       1       1       2       1       1       2       1       1       2       1
       1       2       1       1       2       1       1       2       1       1
       2       1       1       2       1       1       2       1       1       2
       1       1       2       1       1       2       1       1       2       1
       1       2       1       1       2       1       1       2       1       1
       2       1       1       2       1       1       2       1       1       2
       1       1       2       1       1       2       1       1       2       1
       1       2       1       1       2       1       1       2       1       1
       2       1       1       2       1       1       2       1       1       2
       1       1       2       1       1       2       1       1       2       1
       1       2       1       1       2       1       1       2       1       1
       2       1       1       2       1       1       2       1       1       2
       1       1       2       1       1       2       1       1       2       1
       1       2       1       1       2       1       1       2       1       1
       2       1       1       2       1       1       2       1       1       2
       1       1       2       1       1       2       1       1       2       1
       1       2       1       1       2       1       1       2       1       1
       2       1       1       2       1       1       2       1       1       2
       1       1       2       1       1       2       1       1       2       1
       1       2       1       1       2       1       1       2       1       1
       2       1       1       2       1       1       2       1       1       2
       1       1       2       1       1       2       1       1       2       1
       1       2       1       1       2       1       1       2       1       1
       2       1       1       2       1       1       2       1       1       2
       1       1       2       1       1       2       1       1       2       1
       1       2       1       1       2       1       1       2       1       1
       2       1       1       2       1       1       2       1       1       2
       1       1       2       1       1       2       1       1       2       1
       1       2       1       1       2       1       1       2       1       1
       2       1       1       2       1       1       2       1       1       2
       1       1       2       1       1       2       1       1       2       1
       1       2       1       1       2       1       1       2       1       1
       2       1       1       2       1       1       2       1       1       2
       1       1       2       1       1       2       1       1       2       1
       1       2       1       1       2       1       1       2       1       1
       2       1       1       2       1       1       2       1       1       2
       1       1       2       1       1       2       1       1       2       1
       1       2       1       1       2       1       1       2       1       1
       2       1       1       2       1       1       2       1       1       2
       1       1       2       1       1       2       1       1       2       1
       1       2       1       1       2       1       1       2       1       1
       2       1       1       2       1       1       2       1       1       2
       1       1       2       1       1       2       1       1       2       1
       1       2       1       1       2       1       1       2       1       1
       2       1       1       2       1       1       2       1       1       2
       1       1       2       1       1       2       1       1       2       1
       1       2       1       1       2       1       1       2       1       1
       2       1       1       2       1       1       2       1       1       2
       1       1       2       1       1       2       1       1       2       1
       1       2       1       1       2       1       1       2       1       1
       2       1       1       2       1       1       2       1       1       2
       1       1       2       1       1       2       1       1       2       1
       1       2       1       1       2       1       1       2       1       1
       2       1       1       2       1       1       2       1       1       2
       1       1       2       1       1       2       1       1       2       1
       1       2       1       1       2       1       1       2       1       1
       2       1       1       2       1       1       2       1       1       2
       1       1       2       1       1       2       1       1       2       1
       1       2       1       1       2       1       1       2       1       1
       2       1       1       2       1       1       2       1       1       2
       1       1       2       1       1       2       1       1       2       1
       1       2       1       1       2       1       1       2       1       1
       2       1       1       2       1       1       2       1       1       2
       1       1       2       1       1       2       1       1       2       1
       1       2       1       1       2       1       1       2       1       1
       2       1       1       2       1       1       2       1       1       2
       1       1       2       1       1       2       1       1       2       1
       1       2       1       1       2       1       1       2       1       1
       2       1       1       2       1       1       2       1       1       2
       1       1       2       1       1       2       1       1       2       1
       1       2       1       1       2       1       1       2       1       1
       2       1       1       2       1       1       2       1       1       2
       1       1       2       1       1       2       1       1       2       1
       1       2       1       1       2       1       1       2       1       1
       2       1       1       2       1       1       2       1       1       2
       1       1       2       1       1       2       1       1       2       1
       1       2       1       1       2       1       1       2       1       1
       2       1       1       2       1       1       2       1       1       2
       1       1       2       1       1       2       1       1       2       1
       1       2       1       1       2       1       1       2       1       1
       2       1       1       2       1       1       2       1       1       2
       1       1       2       1       1       2       1       1       2       1
       1       2       1       1       2       1       1       2       1       1
       2       1       1       2       1       1       2       1       1       2
       1       1       2       1       1       2       1       1       2       1
       1       2       1       1       2       1       1       2       1       1
       2       1       1       2       1       1       2       1       1       2
       1       1       2       1       1       2       1       1       2       1
       1       2       1       1       2       1       1       2       1       1
       2       1       1       2       1       1       2       1       1       2
       1       1       2       1       1       2       1       1       2       1
       1       2       1       1       2       1       1       2       1       1
       2       1       1       2       1       1       2       1       1       2
       1       1       2       1       1       2       1       1       2       1
       1       2       1       1       2       1       1       2       1       1
       2       1       1       2       1       1       2       1       1       2
       1       1       2       1       1       2       1       1       2       1
       1       2       1       1       2       1       1       2       1       1
       2       1       1       2       1       1       2       1       1       2
       1       1       2       1       1       2       1       1       2       1
       1       2       1       1       2       1       1       2       1       1
       2       1       1       2       1       1       2       1       1       2
       1       1       2       1       1       2       1       1       2       1
       1       2       1       1       2       1       1       2       1       1
       2       1       1       2       1       1       2       1       1       2
       1       1       2       1       1       2       1       1       2       1
       1       2       1       1       2       1       1       2       1       1
       2       1       1       2       1       1       2       1       1       2
       1       1       2       1       1       2       1       1       2       1
       1       2       1       1       2       1       1       2       1       1
       2       1       1       2       1       1       2       1       1       2
       1       1       2       1       1       2       1       1       2       1
       1       2       1       1       2       1       1       2       1       1
       2       1       1       2       1       1       2       1       1       2
       1       1       2       1       1       2       1       1       2       1
       1       2       1       1       2       1       1       2       1       1
       2       1       1       2       1       1       2       1       1       2
       1       1       2       1       1       2       1       1       2       1
       1       2       1       1       2       1       1       2       1       1
       2       1       1       2       1       1       2       1       1       2
       1       1       2       1       1       2       1       1       2       1
       1       2       1       1       2       1       1       2       1       1
       2       1       1       2       1       1       2       1       1       2
       1       1       2       1       1       2       1       1       2       1
       1       2       1       1       2       1       1       2       1       1
       2       1       1       2       1       1       2       1       1       2
       1       1       2       1       1       2       1       1       2       1
       1       2       1       1       2       1       1       2       1       1
       2       1       1       2       1       1       2       1       1       2
       1       1       2       1       1       2       1       1       2       1
       1       2       1       1       2       1       1       2       1       1
       2       1       1       2       1       1       2       1       1       2
       1       1       2       1       1       2       1       1       2       1
       1       2       1       1       2       1       1       2       1       1
       2       1       1       2       1       1       2       1       1       2
       1       1       2       1       1       2       1       1       2       1
       1       2       1       1       2       1       1       2       1       1
       2       1       1       2       1       1       2       1       1       2
       1       1       2       1       1       2       1       1       2       1
       1       2       1       1       2       1       1       2       1       1
       2       1       1       2       1       1       2       1       1       2
       1       1       2       1       1       2       1       1       2       1
       1       2       1       1       2       1       1       2       1       1
       2       1       1       2       1       1       2       1       1       2
       1       1       2       1       1       2       1       1       2       1
       1       2       1       1       2       1       1       2       1       1
       2       1       1       2       1       1       2       1       1       2
       1       1       2       1       1       2       1       1       2       1
       1       2       1       1       2       1       1       2       1       1
       2       1       1       2       1       1       2       1       1       2
       1       1       2       1       1       2       1       1       2       1
       1       2       1       1       2       1       1       2       1       1
       2       1       1       2       1       1       2       1       1       2
       1       1       2       1       1       2       1       1       2       1
       1       2       1       1       2       1       1       2       1       1
       2       1       1       2       1       1       2       1       1       2
       1       1       2       1       1       2       1       1       2       1
       1       2       1       1       2       1       1       2       1       1
       2       1       1       2       1       1       2       1       1       2
       1       1       2       1       1       2       1       1       2       1
       1       2       1       1       2       1       1       2       1       1
       2       1       1       2       1       1       2       1       1       2
       1       1       2       1       1       2       1       1       2       1
       1       2       1       1       2       1       1       2       1       1
       2       1       1       2       1       1       2       1       1       2
       1       1       2       1       1       2       1       1       2       1
       1       2       1       1       2       1       1       2       1       1
       2       1       1       2       1       1       2       1       1       2
       1       1       2       1       1       2       1       1       2       1
       1       2       1       1       2       1       1       2       1       1
       2       1       1       2       1       1       2       1       1       2
       1       1       2       1       1       2       1       1       2       1
       1       2       1       1       2       1       1       2       1       1
       2       1       1       2       1       1       2       1       1       2
       1       1       2       1       1       2       1       1       2       1
       1       2       1       1       2       1       1       2       1       1
       2       1       1       2       1       1       2       1       1       2
       1       1       2       1       1       2       1       1       2       1
       1       2       1       1       2       1       1       2       1       1
       2       1       1       2       1       1       2       1       1       2
       1       1       2       1       1       2       1       1       2       1
       1       2       1       1       2       1       1       2       1       1
       2       1       1       2       1       1       2       1       1       2
       1       1       2       1       1       2       1       1       2       1
       1       2       1       1       2       1       1       2       1       1
       2       1       1       2       1       1       2       1       1       2
       1       1       2       1       1       2       1       1       2       1
       1       2       1       1       2       1       1       2       1       1
       2       1       1       2       1       1       2       1       1       2
       1       1       2       1       1       2       1       1       2       1
       1       2       1       1       2       1       1       2       1       1
       2       1       1       2       1       1       2       1       1       2
       1       1       2       1       1       2       1       1       2       1
       1       2       1       1       2       1       1       2       1       1
       2       1       1       2       1       1       2       1       1       2
       1       1       2       1       1       2       1       1       2       1
       1       2       1       1       2       1       1       2       1       1
       2       1       1       2       1       1       2       1       1       2
       1       1       2       1       1       2       1       1       2       1
       1       2       1       1       2       1       1       2       1       1
       2       1       1       2       1       1       2       1       1       2
       1       1       2       1       1       2       1       1       2       1
       1       2       1       1       2       1       1       2       1       1
       2       1       1       2       1       1       2       1       1       2
       1       1       2       1       1       2       1       1       2       1
       1       2       1       1       2       1       1       2       1       1
       2       1       1       2       1       1       2       1       1       2
       1       1       2       1       1       2       1       1       2       1
       1       2       1       1       2       1       1       2       1       1
       2       1       1       2       1       1       2       1       1       2
       1       1       2       1       1       2       1       1       2       1
       1       2       1       1       2       1       1       2       1       1
       2       1       1       2       1       1       2       1       1       2
       1       1       2       1       1       2       1       1       2       1
       1       2       1       1       2       1       1       2       1       1
       2       1       1       2       1       1       2       1       1       2
       1       1       2       1       1       2       1       1       2       1
       1       2       1       1       2       1       1       2       1       1
       2       1       1       2       1       1       2       1       1       2
       1       1       2       1       1       2       1       1       2       1
       1       2       1       1       2       1       1       2       1       1
       2       1       1       2       1       1       2       1       1       2
       1       1       2       1       1       2       1       1       2       1
       1       2       1       1       2       1       1       2       1       1
       2       1       1       2       1       1       2       1       1       2
       1       1       2       1       1       2       1       1       2       1
       1       2       1       1       2       1       1       2       1       1
       2       1       1       2       1       1       2       1       1       2
       1       1       2       1       1       2       1       1       2       1
       1       2       1       1       2       1       1       2       1       1
       2       1       1       2       1       1       2       1       1       2
       1       1       2       1       1       2       1       1       2       1
       1       2       1       1       2       1       1       2       1       1
       2       1       1       2       1       1       2       1       1       2
       1       1       2       1       1       2       1       1       2       1
       1       2       1       1       2       1       1       2       1       1
       2       1       1       2       1       1       2       1       1       2
       1       1       2       1       1       2       1       1       2       1
       1       2       1       1       2       1       1       2       1       1
       2       1       1       2       1       1       2       1       1       2
       1       1       2       1       1       2       1       1       2       1
       1       2       1       1       2       1       1       2       1       1
       2       1       1       2       1       1       2       1       1       2
       1       1       2       1       1       2       1       1       2       1
       1       2       1       1       2       1       1       2       1       1
       2       1       1       2       1       1       2       1       1       2
       1       1       2       1       1       2       1       1       2       1
       1       2       1       1       2       1       1       2       1       1
       2       1       1       2       1       1       2       1       1       2
       1       1       2       1       1       2       1       1       2       1
       1       2       1       1       2       1       1       2       1       1
       2       1       1       2       1       1       2       1       1       2
       1       1       2       1       1       2       1       1       2       1
       1       2       1       1       2       1       1       2       1       1
       2       1       1       2       1       1       2       1       1       2
       1       1       2       1       1       2       1       1       2       1
       1       2       1       1       2       1       1       2       1       1
       2       1       1       2       1       1       2       1       1       2
       1       1       2       1       1       2       1       1       2       1
       1       2       1       1       2       1       1       2       1       1
       2       1       1       2       1       1       2       1       1       2
       1       1       2       1       1       2       1       1       2       1
       1       2       1       1       2       1       1       2       1       1
       2       1       1       2       1       1       2       1       1       2
       1       1       2       1       1       2       1       1       2       1
       1       2       1       1       2       1       1       2       1       1
       2       1       1       2       1       1       2       1       1       2
       1       1       2       1       1       2       1       1       2       1
       1       2       1       1       2       1       1       2       1       1
       2       1       1       2       1       1       2       1       1       2
       1       1       2       1       1       2       1       1       2       1
       1       2       1       1       2       1       1       2       1       1
       2       1       1       2       1       1       2       1       1       2
       1       1       2       1       1       2       1       1       2       1
       1       2       1       1       2       1       1       2       1       1
       2       1       1       2       1       1       2       1       1       2
       1       1       2       1       1       2       1       1       2       1
       1       2       1       1       2       1       1       2       1       1
       2       1       1       2       1       1       2       1       1       2
       1       1       2       1       1       2       1       1       2       1
       1       2       1       1       2       1       1       2       1       1
       2       1       1       2       1       1       2       1       1       2
       1       1       2       1       1       2       1       1       2       1
       1       2       1       1       2       1       1       2       1       1
       2       1       1       2       1       1       2       1       1       2
       1       1       2       1       1       2       1       1       2       1
       1       2       1       1       2       1       1       2       1       1
       2       1       1       2       1       1       2       1       1       2
       1       1       2       1       1       2       1       1       2       1
       1       2       1       1       2       1       1       2       1       1
       2       1       1       2       1       1       2       1       1       2
       1       1       2       1       1       2       1       1       2       1
       1       2       1       1       2       1       1       2       1       1
       2       1       1       2       1       1       2       1       1       2
       1       1       2       1       1       2       1       1       2       1
       1       2       1       1       2       1       1       2       1       1
       2       1       1       2       1       1       2       1       1       2
       1       1       2       1       1       2       1       1       2       1
       1       2       1       1       2       1       1       2       1       1
       2       1       1       2       1       1       2       1       1       2
       1       1       2       1       1       2       1       1       2       1
       1       2       1       1       2       1       1       2       1       1
       2       1       1       2       1       1       2       1       1       2
       1       1       2       1       1       2       1       1       2       1
       1       2       1       1       2       1       1       2       1       1
       2       1       1       2       1       1       2       1       1       2
       1       1       2       1       1       2       1       1       2       1
       1       2       1       1       2       1       1       2       1       1
       2       1       1       2       1       1       2       1       1       2
       1       1       2       1       1       2       1       1       2       1
       1       2       1       1       2       1       1       2       1       1
       2       1       1       2       1       1       2       1       1       2
       1       1       2       1       1       2       1       1       2       1
       1       2       1       1       2       1       1       2       1       1
       2       1       1       2       1       1       2       1       1       2
       1       1       2       1       1       2       1       1       2       1
       1       2       1       1       2       1       1       2       1       1
       2       1       1       2       1       1       2       1       1       2
       1       1       2       1       1       2       1       1       2       1
       1       2       1       1       2       1       1       2       1       1
       2       1       1       2       1       1       2       1       1       2
       1       1       2       1       1       2       1       1       2       1
       1       2       1       1       2       1       1       2       1       1
       2       1       1       2       1       1       2       1       1       2
       1       1       2       1       1       2       1       1       2       1
       1       2       1       1       2       1       1       2       1       1
       2       1       1       2       1       1       2       1       1       2
       1       1       2       1       1       2       1       1       2       1
       1       2       1       1       2       1       1       2       1       1
       2       1       1       2       1       1       2       1       1       2
       1       1       2       1       1       2       1       1       2       1
       1       2       1       1       2       1       1       2       1       1
       2       1       1       2       1       1       2       1       1       2
       1       1       2       1       1       2       1       1       2       1
       1       2       1       1       2       1       1       2       1       1
       2       1       1       2       1       1       2       1       1       2
       1       1       2       1       1       2       1       1       2       1
       1       2       1       1       2       1       1       2       1       1
       2       1       1       2       1       1       2       1       1       2
       1       1       2       1       1       2       1       1       2       1
       1       2       1       1       2       1       1       2       1       1
       2       1       1       2       1       1       2       1       1       2
       1       1       2       1       1       2       1       1       2       1
       1       2       1       1       2       1       1       2       1       1
       2       1       1       2       1       1       2       1       1       2
       1       1       2       1       1       2       1       1       2       1
       1       2       1       1       2       1       1       2       1       1
       2       1       1       2       1       1       2       1       1       2
       1       1       2       1       1       2       1       1       2       1
       1       2       1       1       2       1       1       2       1       1
       2       1       1       2       1       1       2       1       1       2
       1       1       2       1       1       2       1       1       2       1
       1       2       1       1       2       1       1       2       1       1
       2       1       1       2       1       1       2       1       1       2
       1       1       2       1       1       2       1       1       2       1
       1       2       1       1       2       1       1       2       1       1
       2       1       1       2       1       1       2       1       1       2
       1       1       2       1       1       2       1       1       2       1
       1       2       1       1       2       1       1       2       1       1
       2       1       1       2       1       1       2       1       1       2
       1       1       2       1       1       2       1       1       2       1
       1       2       1       1       2       1       1       2       1       1
       2       1       1       2       1       1       2       1       1       2
       1       1       2       1       1       2       1       1       2       1
       1       2       1       1       2       1       1       2       1       1
       2       1       1       2       1       1       2       1       1       2
       1       1       2       1       1       2       1       1       2       1
       1       2       1       1       2       1       1       2       1       1
       2       1       1       2       1       1       2       1       1       2
       1       1       2       1       1       2       1       1       2       1
       1       2       1       1       2       1       1       2       1       1
       2       1       1       2       1       1       2       1       1       2
       1       1       2       1       1       2       1       1       2       1
       1       2       1       1       2       1       1       2       1       1
       2       1       1       2       1       1       2       1       1       2
       1       1       2       1       1       2       1       1       2       1
       1       2       1       1       2       1       1       2       1       1
       2       1       1       2       1       1       2       1       1       2
       1       1       2       1       1       2       1       1       2       1
       1       2       1       1       2       1       1       2       1       1
       2       1       1       2       1       1       2       1       1       2
       1       1       2       1       1       2       1       1       2       1
       1       2       1       1       2       1       1       2       1       1
       2       1       1       2       1       1       2       1       1       2
       1       1       2       1       1       2       1       1       2       1
       1       2       1       1       2       1       1       2       1       1
       2       1       1       2       1       1       2       1       1       2
       1       1       2       1       1       2       1       1       2       1
       1       2       1       1       2       1       1       2       1       1
       2       1       1       2       1       1       2       1       1       2
       1       1       2       1       1       2       1       1       2       1
       1       2       1       1       2       1       1       2       1       1
       2       1       1       2       1       1       2       1       1       2
       1       1       2       1       1       2       1       1       2       1
       1       2       1       1       2       1       1       2       1       1
       2       1       1       2       1       1       2       1       1       2
       1       1       2       1       1       2       1       1       2       1
       1       2       1       1       2       1       1       2       1       1
       2       1       1       2       1       1       2       1       1       2
       1       1       2       1       1       2       1       1       2       1
       1       2       1       1       2       1       1       2       1       1
       2       1       1       2       1       1       2       1       1       2
       1       1       2       1       1       2       1       1       2       1
       1       2       1       1       2       1       1       2       1       1
       2       1       1       2       1       1       2       1       1       2
       1       1       2       1       1       2       1       1       2       1
       1       2       1       1       2       1       1       2       1       1
       2       1       1       2       1       1       2       1       1       2
       1       1       2       1       1       2       1       1       2       1
       1       2       1       1       2       1       1       2       1       1
       2       1       1       2       1       1       2       1       1       2
       1       1       2       1       1       2       1       1       2       1
       1       2       1       1       2       1       1       2       1       1
       2       1       1       2       1       1       2       1       1       2
       1       1       2       1       1       2       1       1       2       1
       1       2       1       1       2       1       1       2       1       1
       2       1       1       2       1       1       2       1       1       2
       1       1       2       1       1       2       1       1       2       1
       1       2       1       1       2       1       1       2       1       1
       2       1       1       2       1       1       2       1       1       2
       1       1       2       1       1       2       1       1       2       1
       1       2       1       1       2       1       1       2       1       1
       2       1       1       2       1       1       2       1       1       2
       1       1       2       1       1       2       1       1       2       1
       1       2       1       1       2       1       1       2       1       1
       2       1       1       2       1       1       2       1       1       2
       1       1       2       1       1       2       1       1       2       1
       1       2       1       1       2       1       1       2       1       1
       2       1       1       2       1       1       2       1       1       2
       1       1       2       1       1       2       1       1       2       1
       1       2       1       1       2       1       1       2       1       1
       2       1       1       2       1       1       2       1       1       2
       1       1       2       1       1       2       1       1       2       1
       1       2       1       1       2       1       1       2       1       1
       2       1       1       2       1       1       2       1       1       2
       1       1       2       1       1       2       1       1       2       1
       1       2       1       1       2       1       1       2       1       1
       2       1       1       2       1       1       2       1       1       2
       1       1       2       1       1       2       1       1       2       1
       1       2       1       1       2       1       1       2       1       1
       2       1       1       2       1       1       2       1       1       2
       1       1       2       1       1       2       1       1       2       1
       1       2       1       1       2       1       1       2       1       1
       2       1       1       2       1       1       2       1       1       2
       1       1       2       1       1       2       1       1       2       1
       1       2       1       1       2       1       1       2       1       1
       2       1       1       2       1       1       2       1       1       2
       1       1       2       1       1       2       1       1       2       1
       1       2       1       1       2       1       1       2       1       1
       2       1       1       2       1       1       2       1       1       2
       1       1       2       1       1       2       1       1       2       1
       1       2       1       1       2       1       1       2       1       1
       2       1       1       2       1       1       2       1       1       2
       1       1       2       1       1       2       1       1       2       1
       1       2       1       1       2       1       1       2       1       1
       2       1       1       2       1       1       2       1       1       2
       1       1       2       1       1       2       1       1       2       1
       1       2       1       1       2       1       1       2       1       1
       2       1       1       2       1       1       2       1       1       2
       1       1       2       1       1       2       1       1       2       1
       1       2       1       1       2       1       1       2       1       1
       2       1       1       2       1       1       2       1       1       2
       1       1       2       1       1       2       1       1       2       1
       1       2       1       1       2       1       1       2       1       1
       2       1       1       2       1       1       2       1       1       2
       1       1       2       1       1       2       1       1       2       1
       1       2       1       1       2       1       1       2       1       1
       2       1       1       2       1       1       2       1       1       2
       1       1       2       1       1       2       1       1       2       1
       1       2       1       1       2       1       1       2       1       1
       2       1       1       2       1       1       2       1       1       2
       1       1       2       1       1       2       1       1       2       1
       1       2       1       1       2       1       1       2       1       1
       2       1       1       2       1       1       2       1       1       2
       1       1       2       1       1       2       1       1       2       1
       1       2       1       1       2       1       1       2       1       1
       2       1       1       2       1       1       2       1       1       2
       1       1       2       1       1       2       1       1       2       1
       1       2       1       1       2       1       1       2       1       1
       2       1       1       2       1       1       2       1       1       2
       1       1       2       1       1       2       1       1       2       1
       1       2       1       1       2       1       1       2       1       1
       2       1       1       2       1       1       2       1       1       2
       1       1       2       1       1       2       1       1       2       1
       1       2       1       1       2       1       1       2       1       1
       2       1       1       2       1       1       2       1       1       2
       1       1       2       1       1       2       1       1       2       1
       1       2       1       1       2       1       1       2       1       1
       2       1       1       2       1       1       2       1       1       2
       1       1       2       1       1       2       1       1       2       1
       1       2       1       1       2       1       1       2       1       1
       2       1       1       2       1       1       2       1       1       2
       1       1       2       1       1       2       1       1       2       1
       1       2       1       1       2       1       1       2       1       1
       2       1       1       2       1       1       2       1       1       2
       1       1       2       1       1       2       1       1       2       1
       1       2       1       1       2       1       1       2       1       1
       2       1       1       2       1       1       2       1       1       2
       1       1       2       1       1       2       1       1       2       1
       1       2       1       1       2       1       1       2       1       1
       2       1       1       2       1       1       2       1       1       2
       1       1       2       1       1       2       1       1       2       1
       1       2       1       1       2       1       1       2       1       1
       2       1       1       2       1       1       2       1       1       2
       1       1       2       1       1       2       1       1       2       1
       1       2       1       1       2       1       1       2       1       1
       2       1       1       2       1       1       2       1       1       2
       1       1       2       1       1       2       1       1       2       1
       1       2       1       1       2       1       1       2       1       1
       2       1       1       2       1       1       2       1       1       2
       1       1       2       1       1       2       1       1       2       1
       1       2       1       1       2       1       1       2       1       1
       2       1       1       2       1       1       2       1       1       2
       1       1       2       1       1       2       1       1       2       1
       1       2       1       1       2       1       1       2       1       1
       2       1       1       2       1       1       2       1       1       2
       1       1       2       1       1       2       1       1       2       1
       1       2       1       1       2       1       1       2       1       1
       2       1       1       2       1       1       2       1       1       2
       1       1       2       1       1       2       1       1       2       1
       1       2       1       1       2       1       1       2       1       1
       2       1       1       2       1       1       2       1       1       2
       1       1       2       1       1       2       1       1       2       1
       1       2       1       1       2       1       1       2       1       1
       2       1       1       2       1       1       2       1       1       2
       1       1       2       1       1       2       1       1       2       1
       1       2       1       1       2       1       1       2       1       1
       2       1       1       2       1       1       2       1       1       2
       1       1       2       1       1       2       1       1       2       1
       1       2       1       1       2       1       1       2       1       1
       2       1       1       2       1       1       2       1       1       2
       1       1       2       1       1       2       1       1       2       1
       1       2       1       1       2       1       1       2       1       1
       2       1       1       2       1       1       2       1       1       2
       1       1       2       1       1       2       1       1       2       1
       1       2       1       1       2       1       1       2       1       1
       2       1       1       2       1       1       2       1       1       2
       1       1       2       1       1       2       1       1       2       1
       1       2       1       1       2       1       1       2       1       1
       2       1       1       2       1       1       2       1       1       2
       1       1       2       1       1       2       1       1       2       1
       1       2       1       1       2       1       1       2       1       1
       2       1       1       2       1       1       2       1       1       2
       1       1       2       1       1       2       1       1       2       1
       1       2       1       1       2       1       1       2       1       1
       2       1       1       2       1       1       2       1       1       2
       1       1       2       1       1       2       1       1       2       1
       1       2       1       1       2       1       1       2       1       1
       2       1       1       2       1       1       2       1       1       2
       1       1       2       1       1       2       1       1       2       1
       1       2       1       1       2       1       1       2       1       1
       2       1       1       2       1       1       2       1       1       2
       1       1       2       1       1       2       1       1       2       1
       1       2       1       1       2       1       1       2       1       1
       2       1       1       2       1       1       2       1       1       2
       1       1       2       1       1       2       1       1       2       1
       1       2       1       1       2       1       1       2       1       1
       2       1       1       2       1       1       2       1       1       2
       1       1       2       1       1       2       1       1       2       1
       1       2       1       1       2       1       1       2       1       1
       2       1       1       2       1       1       2       1       1       2
       1       1       2       1       1       2       1       1       2       1
       1       2       1       1       2       1       1       2       1       1
       2       1       1       2       1       1       2       1       1       2
       1       1       2       1       1       2       1       1       2       1
       1       2       1       1       2       1       1       2       1       1
       2       1       1       2       1       1       2       1       1       2
       1       1       2       1       1       2       1       1       2       1
       1       2       1       1       2       1       1       2       1       1
       2       1       1       2       1       1       2       1       1       2
       1       1       2       1       1       2       1       1       2       1
       1       2       1       1       2       1       1       2       1       1
       2       1       1       2       1       1       2       1       1       2
       1       1       2       1       1       2       1       1       2       1
       1       2       1       1       2       1       1       2       1       1
       2       1       1       2       1       1       2       1       1       2
       1       1       2       1       1       2       1       1       2       1
       1       2       1       1       2       1       1       2       1       1
       2       1       1       2       1       1       2       1       1       2
       1       1       2       1       1       2       1       1       2       1
       1       2       1       1       2       1       1       2       1       1
       2       1       1       2       1       1       2       1       1       2
       1       1       2       1       1       2       1       1       2       1
       1       2       1       1       2       1       1       2       1       1
       2       1       1       2       1       1       2       1       1       2
       1       1       2       1       1       2       1       1       2       1
       1       2       1       1       2       1       1       2       1       1
       2       1       1       2       1       1       2       1       1       2
       1       1       2       1       1       2       1       1       2       1
       1       2       1       1       2       1       1       2       1       1
       2       1       1       2       1       1       2       1       1       2
       1       1       2       1       1       2       1       1       2       1
       1       2       1       1       2       1       1       2       1       1
       2       1       1       2       1       1       2       1       1       2
       1       1       2       1       1       2       1       1       2       1
       1       2       1       1       2       1       1       2       1       1
       2       1       1       2       1       1       2       1       1       2
       1       1       2       1       1       2       1       1       2       1
       1       2       1       1       2       1       1       2       1       1
       2       1       1       2       1       1       2       1       1       2
       1       1       2       1       1       2       1       1       2       1
       1       2       1       1       2       1       1       2       1       1
       2       1       1       2       1       1       2       1       1       2
       1       1       2       1       1       2       1       1       2       1
       1       2       1       1       2       1       1       2       1       1
       2       1       1       2       1       1       2       1       1       2
       1       1       2       1       1       2       1       1       2       1
       1       2       1       1       2       1       1       2       1       1
       2       1       1       2       1       1       2       1       1       2
       1       1       2       1       1       2       1       1       2       1
       1       2       1       1       2       1       1       2       1       1
       2       1       1       2       1       1       2       1       1       2
       1       1       2       1       1       2       1       1       2       1
       1       2       1       1       2       1       1       2       1       1
       2       1       1       2       1       1       2       1       1       2
       1       1       2       1       1       2       1       1       2       1
       1       2       1       1       2       1       1       2       1       1
       2       1       1       2       1       1       2       1       1       2
       1       1       2       1       1       2       1       1       2       1
       1       2       1       1       2       1       1       2       1       1
       2       1       1       2       1       1       2       1       1       2
       1       1       2       1       1       2       1       1       2       1
       1       2       1       1       2       1       1       2       1       1
       2       1       1       2       1       1       2       1       1       2
       1       1       2       1       1       2       1       1       2       1
       1       2       1       1       2       1       1       2       1       1
       2       1       1       2       1       1       2       1       1       2
       1       1       2       1       1       2       1       1       2       1
       1       2       1       1       2       1       1       2       1       1
       2       1       1       2       1       1       2       1       1       2
       1       1       2       1       1       2       1       1       2       1
       1       2       1       1       2       1       1       2       1       1
       2       1       1       2       1       1       2       1       1       2
       1       1       2       1       1       2       1       1       2       1
       1       2       1       1       2       1       1       2       1       1
       2       1       1       2       1       1       2       1       1       2
       1       1       2       1       1       2       1       1       2       1
       1       2       1       1       2       1       1       2       1       1
       2       1       1       2       1       1       2       1       1       2
       1       1       2       1       1       2       1       1       2       1
       1       2       1       1       2       1       1       2       1       1
       2       1       1       2       1       1       2       1       1       2
       1       1       2       1       1       2       1       1       2       1
       1       2       1       1       2       1       1       2       1       1
       2       1       1       2       1       1       2       1       1       2
       1       1       2       1       1       2       1       1       2       1
       1       2       1       1       2       1       1       2       1       1
       2       1       1       2       1       1       2       1       1       2
       1       1       2       1       1       2       1       1       2       1
       1       2       1       1       2       1       1       2       1       1
       2       1       1       2       1       1       2       1       1       2
       1       1       2       1       1       2       1       1       2       1
       1       2       1       1       2       1       1       2       1       1
       2       1       1       2       1       1       2       1       1       2
       1       1       2       1       1       2       1       1       2       1
       1       2       1       1       2       1       1       2       1       1
       2       1       1       2       1       1       2       1       1       2
       1       1       2       1       1       2       1       1       2       1
       1       2       1       1       2       1       1       2       1       1
       2       1       1       2       1       1       2       1       1       2
       1       1       2       1       1       2       1       1       2       1
       1       2       1       1       2       1       1       2       1       1
       2       1       1       2       1       1       2       1       1       2
       1       1       2       1       1       2       1       1       2       1
       1       2       1       1       2       1       1       2       1       1
       2       1       1       2       1       1       2       1       1       2
       1       1       2       1       1       2       1       1       2       1
       1       2       1       1       2       1       1       2       1       1
       2       1       1       2       1       1       2       1       1       2
       1       1       2       1       1       2       1       1       2       1
       1       2       1       1       2       1       1       2       1       1
       2       1       1       2       1       1       2       1       1       2
       1       1       2       1       1       2       1       1       2       1
       1       2       1       1       2       1       1       2       1       1
       2       1       1       2       1       1       2       1       1       2
       1       1       2       1       1       2       1       1       2       1
       1       2       1       1       2       1       1       2       1       1
       2       1       1       2       1       1       2       1       1       2
       1       1       2       1       1       2       1       1       2       1
       1       2       1       1       2       1       1       2       1       1
       2       1       1       2       1       1       2       1       1       2
       1       1       2       1       1       2       1       1       2       1
       1       2       1       1       2       1       1       2       1       1
       2       1       1       2       1       1       2       1       1       2
       1       1       2       1       1       2       1       1       2       1
       1       2       1       1       2       1       1       2       1       1
       2       1       1       2       1       1       2       1       1       2
       1       1       2       1       1       2       1       1       2       1
       1       2       1       1       2       1       1       2       1       1
       2       1       1       2       1       1       2       1       1       2
       1       1       2       1       1       2       1       1       2       1
       1       2       1       1       2       1       1       2       1       1
       2       1       1       2       1       1       2       1       1       2
       1       1       2       1       1       2       1       1       2       1
       1       2       1       1       2       1       1       2       1       1
       2       1       1       2       1       1       2       1       1       2
       1       1       2       1       1       2       1       1       2       1
       1       2       1       1       2       1       1       2       1       1
       2       1       1       2       1       1       2       1       1       2
       1       1       2       1       1       2       1       1       2       1
       1       2       1       1       2       1       1       2       1       1
       2       1       1       2       1       1       2       1       1       2
       1       1       2       1       1       2       1       1       2       1
       1       2       1       1       2       1       1       2       1       1
       2       1       1       2       1       1       2       1       1       2
       1       1       2       1       1       2       1       1       2       1
       1       2       1       1       2       1       1       2       1       1
       2       1       1       2       1       1       2       1       1       2
       1       1       2       1       1       2       1       1       2       1
       1       2       1       1       2       1       1       2       1       1
       2       1       1       2       1       1       2       1       1       2
       1       1       2       1       1       2       1       1       2       1
       1       2       1       1       2       1       1       2       1       1
       2       1       1       2       1       1       2       1       1       2
       1       1       2       1       1       2       1       1       2       1
       1       2       1       1       2       1       1       2       1       1
       2       1       1       2       1       1       2       1       1       2
       1       1       2       1       1       2       1       1       2       1
       1       2       1       1       2       1       1       2       1       1
       2       1       1       2       1       1       2       1       1       2
       1       1       2       1       1       2       1       1       2       1
       1       2       1       1       2       1       1       2       1       1
       2       1       1       2       1       1       2       1       1       2
       1       1       2       1       1       2       1       1       2       1
       1       2       1       1       2       1       1       2       1       1
       2       1       1       2       1       1       2       1       1       2
       1       1       2       1       1       2       1       1       2       1
       1       2       1       1       2       1       1       2       1       1
       2       1       1       2       1       1       2       1       1       2
       1       1       2       1       1       2       1       1       2       1
       1       2       1       1       2       1       1       2       1       1
       2       1       1       2       1       1       2       1       1       2
       1       1       2       1       1       2       1       1       2       1
       1       2       1       1       2       1       1       2       1       1
       2       1       1       2       1       1       2       1       1       2
       1       1       2       1       1       2       1       1       2       1
       1       2       1       1       2       1       1       2       1       1
       2       1       1       2       1       1       2       1       1       2
       1       1       2       1       1       2       1       1       2       1
       1       2       1       1       2       1       1       2       1       1
       2       1       1       2       1       1       2       1       1       2
       1       1       2       1       1       2       1       1       2       1
       1       2       1       1       2       1       1       2       1       1
       2       1       1       2       1       1       2       1       1       2
       1       1       2       1       1       2       1       1       2       1
       1       2       1       1       2       1       1       2       1       1
       2       1       1       2       1       1       2       1       1       2
       1       1       2       1       1       2       1       1       2       1
       1       2       1       1       2       1       1       2       1       1
       2       1       1       2       1       1       2       1       1       2
       1       1       2       1       1       2       1       1       2       1
       1       2       1       1       2       1       1       2       1       1
       2       1       1       2       1       1       2       1       1       2
       1       1       2       1       1       2       1       1       2       1
       1       2       1       1       2       1       1       2       1       1
       2       1       1       2       1       1       2       1       1       2
       1       1       2       1       1       2       1       1       2       1
       1       2       1       1       2       1       1       2       1       1
       2       1       1       2       1       1       2       1       1       2
       1       1       2       1       1       2       1       1       2       1
       1       2       1       1       2       1       1       2       1       1
       2       1       1       2       1       1       2       1       1       2
       1       1       2       1       1       2       1       1       2       1
       1       2       1       1       2       1       1       2       1       1
       2       1       1       2       1       1       2       1       1       2
       1       1       2       1       1       2       1       1       2       1
       1       2       1       1       2       1       1       2       1       1
       2       1       1       2       1       1       2       1       1       2
       1       1       2       1       1       2       1       1       2       1
       1       2       1       1       2       1       1       2       1       1
       2       1       1       2       1       1       2       1       1       2
       1       1       2       1       1       2       1       1       2       1
       1       2       1       1       2       1       1       2       1       1
       2       1       1       2       1       1       2       1       1       2
       1       1       2       1       1       2       1       1       2       1
       1       2       1       1       2       1       1       2       1       1
       2       1       1       2       1       1       2       1       1       2
       1       1       2       1       1       2       1       1       2       1
       1       2       1       1       2       1       1       2       1       1
       2       1       1       2       1       1       2       1       1       2
       1       1       2       1       1       2       1       1       2       1
       1       2       1       1       2       1       1       2       1       1
       2       1       1       2       1       1       2       1       1       2
       1       1       2       1       1       2       1       1       2       1
       1       2       1       1       2       1       1       2       1       1
       2       1       1       2       1       1       2       1       1       2
       1       1       2       1       1       2       1       1       2       1
       1       2       1       1       2       1       1       2       1       1
       2       1       1       2       1       1       2       1       1       2
       1       1       2       1       1       2       1       1       2       1
       1       2       1       1       2       1       1       2       1       1
       2       1       1       2       1       1       2       1       1       2
       1       1       2       1       1       2       1       1       2       1
       1       2       1       1       2       1       1       2       1       1
       2       1       1       2       1       1       2       1       1       2
       1       1       2       1       1       2       1       1       2       1
       1       2       1       1       2       1       1       2       1       1
       2       1       1       2       1       1       2       1       1       2
       1       1       2       1       1       2       1       1       2       1
       1       2       1       1       2       1       1       2       1       1
       2       1       1       2       1       1       2       1       1       2
       1       1       2       1       1       2       1       1       2       1
       1       2       1       1       2       1       1       2       1       1
       2       1       1       2       1       1       2       1       1       2
       1       1       2       1       1       2       1       1       2       1
       1       2       1       1       2       1       1       2       1       1
       2       1       1       2       1       1       2       1       1       2
       1       1       2       1       1       2       1       1       2       1
       1       2       1       1       2       1       1       2       1       1
       2       1       1       2       1       1       2       1       1       2
       1       1       2       1       1       2       1       1       2       1
       1       2       1       1       2       1       1       2       1       1
       2       1       1       2       1       1       2       1       1       2
       1       1       2       1       1       2       1       1       2       1
       1       2       1       1       2       1       1       2       1       1
       2       1       1       2       1       1       2       1       1       2
       1       1       2       1       1       2       1       1       2       1
       1       2       1       1       2       1       1       2       1       1
       2       1       1       2       1       1       2       1       1       2
       1       1       2       1       1       2       1       1       2       1
       1       2       1       1       2       1       1       2       1       1
       2       1       1       2       1       1       2       1       1       2
       1       1       2       1       1       2       1       1       2       1
       1       2       1       1       2       1       1       2       1       1
       2       1       1       2       1       1       2       1       1       2
       1       1       2       1       1       2       1       1       2       1
       1       2       1       1       2       1       1       2       1       1
       2       1       1       2       1       1       2       1       1       2
       1       1       2       1       1       2       1       1       2       1
       1       2       1       1       2       1       1       2       1       1
       2       1       1       2       1       1       2       1       1       2
       1       1       2       1       1       2       1       1       2       1
       1       2       1       1       2       1       1       2       1       1
       2       1       1       2       1       1       2       1       1       2
       1       1       2       1       1       2       1       1       2       1
       1       2       1       1       2       1       1       2       1       1
       2       1       1       2       1       1       2       1       1       2
       1       1       2       1       1       2       1       1       2       1
       1       2       1       1       2       1       1       2       1       1
       2       1       1       2       1       1       2       1       1       2
       1       1       2       1       1       2       1       1       2       1
       1       2       1       1       2       1       1       2       1       1
       2       1       1       2       1       1       2       1       1       2
       1       1       2       1       1       2       1       1       2       1
       1       2       1       1       2       1       1       2       1       1
       2       1       1       2       1       1       2       1       1       2
       1       1       2       1       1       2       1       1       2       1
       1       2       1       1       2       1       1       2       1       1
       2       1       1       2       1       1       2       1       1       2
       1       1       2       1       1       2       1       1       2       1
       1       2       1       1       2       1       1       2       1       1
       2       1       1       2       1       1       2       1       1       2
       1       1       2       1       1       2       1       1       2       1
       1       2       1       1       2       1       1       2       1       1
       2       1       1       2       1       1       2       1       1       2
       1       1       2       1       1       2       1       1       2       1
       1       2       1       1       2       1       1       2       1       1
       2       1       1       2       1       1       2       1       1       2
       1       1       2       1       1       2       1       1       2       1
       1       2       1       1       2       1       1       2       1       1
       2       1       1       2       1       1       2       1       1       2
       1       1       2       1       1       2       1       1       2       1
       1       2       1       1       2       1       1       2       1       1
       2       1       1       2       1       1       2       1       1       2
       1       1       2       1       1       2       1       1       2       1
       1       2       1       1       2       1       1       2       1       1
       2       1       1       2       1       1       2       1       1       2
       1       1       2       1       1       2       1       1       2       1
       1       2       1       1       2       1       1       2       1       1
       2       1       1       2       1       1       2       1       1       2
       1       1       2       1       1       2       1       1       2       1
       1       2       1       1       2       1       1       2       1       1
       2       1       1       2       1       1       2       1       1       2
       1       1       2       1       1       2       1       1       2       1
       1       2       1       1       2       1       1       2       1       1
       2       1       1       2       1       1       2       1       1       2
       1       1       2       1       1       2       1       1       2       1
       1       2       1       1       2       1       1       2       1       1
       2       1       1       2       1       1       2       1       1       2
       1       1       2       1       1       2       1       1       2       1
       1       2       1       1       2       1       1       2       1       1
       2       1       1       2       1       1       2       1       1       2
       1       1       2       1       1       2       1       1       2       1
       1       2       1       1       2       1       1       2       1       1
       2       1       1       2       1       1       2       1       1       2
       1       1       2       1       1       2       1       1       2       1
       1       2       1       1       2       1       1       2       1       1
       2       1       1       2       1       1       2       1       1       2
       1       1       2       1       1       2       1       1       2       1
       1       2       1       1       2       1       1       2       1       1
       2       1       1       2       1       1       2       1       1       2
       1       1       2       1       1       2       1       1       2       1
       1       2       1       1       2       1       1       2       1       1
       2       1       1       2       1       1       2       1       1       2
       1       1       2       1       1       2       1       1       2       1
       1       2       1       1       2       1       1       2       1       1
       2       1       1       2       1       1       2       1       1       2
       1       1       2       1       1       2       1       1       2       1
       1       2       1       1       2       1       1       2       1       1
       2       1       1       2       1       1       2       1       1       2
       1       1       2       1       1       2       1       1       2       1
       1       2       1       1       2       1       1       2       1       1
       2       1       1       2       1       1       2       1       1       2
       1       1       2       1       1       2       1       1       2       1
       1       2       1       1       2       1       1       2       1       1
       2       1       1       2       1       1       2       1       1       2
       1       1       2       1       1       2       1       1       2       1
       1       2       1       1       2       1       1       2       1       1
       2       1       1       2       1       1       2       1       1       2
       1       1       2       1       1       2       1       1       2       1
       1       2       1       1       2       1       1       2       1       1
       2       1       1       2       1       1       2       1       1       2
       1       1       2       1       1       2       1       1       2       1
       1       2       1       1       2       1       1       2       1       1
       2       1       1       2       1       1       2       1       1       2
       1       1       2       1       1       2       1       1       2       1
       1       2       1       1       2       1       1       2       1       1
       2       1       1       2       1       1       2       1       1       2
       1       1       2       1       1       2       1       1       2       1
       1       2       1       1       2       1       1       2       1       1
       2       1       1       2       1       1       2       1       1       2
       1       1       2       1       1       2       1       1       2       1
       1       2       1       1       2       1       1       2       1       1
       2       1       1       2       1       1       2       1       1       2
       1       1       2       1       1       2       1       1       2       1
       1       2       1       1       2       1       1       2       1       1
       2       1       1       2       1       1       2       1       1       2
       1       1       2       1       1       2       1       1       2       1
       1       2       1       1       2       1       1       2       1       1
       2       1       1       2       1       1       2       1       1       2
       1       1       2       1       1       2       1       1       2       1
       1       2       1       1       2       1       1       2       1       1
       2       1       1       2       1       1       2       1       1       2
       1       1       2       1       1       2       1       1       2       1
       1       2       1       1       2       1       1       2       1       1
       2       1       1       2       1       1       2       1       1       2
       1       1       2       1       1       2       1       1       2       1
       1       2       1       1       2       1       1       2       1       1
       2       1       1       2       1       1       2       1       1       2
       1       1       2       1       1       2       1       1       2       1
       1       2       1       1       2       1       1       2       1       1
       2       1       1       2       1       1       2       1       1       2
       1       1       2       1       1       2       1       1       2       1
       1       2       1       1       2       1       1       2       1       1
       2       1       1       2       1       1       2       1       1       2
       1       1       2       1       1       2       1       1       2       1
       1       2       1       1       2       1       1       2       1       1
       2       1       1       2       1       1       2       1       1       2
       1       1       2       1       1       2       1       1       2       1
       1       2       1       1       2       1       1       2       1       1
       2       1       1       2       1       1       2       1       1       2
       1       1       2       1       1       2       1       1       2       1
       1       2       1       1       2       1       1       2       1       1
       2       1       1       2       1       1       2       1       1       2
       1       1       2       1       1       2       1       1       2       1
       1       2       1       1       2       1       1       2       1       1
       2       1       1       2       1       1       2       1       1       2
       1       1       2       1       1       2       1       1       2       1
       1       2       1       1       2       1       1       2       1       1
       2       1       1       2       1       1       2       1       1       2
       1       1       2       1       1       2       1       1       2       1
       1       2       1       1       2       1       1       2       1       1
       2       1       1       2       1       1       2       1       1       2
       1       1       2       1       1       2       1       1       2       1
       1       2       1       1       2       1       1       2       1       1
       2       1       1       2       1       1       2       1       1       2
       1       1       2       1       1       2       1       1       2       1
       1       2       1       1       2       1       1       2       1       1
       2       1       1       2       1       1       2       1       1       2
       1       1       2       1       1       2       1       1       2       1
       1       2       1       1       2       1       1       2       1       1
       2       1       1       2       1       1       2       1       1       2
       1       1       2       1       1       2       1       1       2       1
       1       2       1       1       2       1       1       2       1       1
       2       1       1       2       1       1       2       1       1       2
       1       1       2       1       1       2       1       1       2       1
       1       2       1       1       2       1       1       2       1       1
       2       1       1       2       1       1       2       1       1       2
       1       1       2       1       1       2       1       1       2       1
       1       2       1       1       2       1       1       2       1       1
       2       1       1       2       1       1       2       1       1       2
       1       1       2       1       1       2       1       1       2       1
       1       2       1       1       2       1       1       2       1       1
       2       1       1       2       1       1       2       1       1       2
       1       1       2       1       1       2       1       1       2       1
       1       2       1       1       2       1       1       2       1       1
       2       1       1       2       1       1       2       1       1       2
       1       1       2       1       1       2       1       1       2       1
       1       2       1       1       2       1       1       2       1       1
       2       1       1       2       1       1       2       1       1       2
       1       1       2       1       1       2       1       1       2       1
       1       2       1       1       2       1       1       2       1       1
       2       1       1       2       1       1       2       1       1       2
       1       1       2       1       1       2       1       1       2       1
       1       2       1       1       2       1       1       2       1       1
       2       1       1       2       1       1       2       1       1       2
       1       1       2       1       1       2       1       1       2       1
       1       2       1       1       2       1       1       2       1       1
       2       1       1       2       1       1       2       1       1       2
       1       1       2       1       1       2       1       1       2       1
       1       2       1       1       2       1       1       2       1       1
       2       1       1       2       1       1       2       1       1       2
       1       1       2       1       1       2       1       1       2       1
       1       2       1       1       2       1       1       2       1       1
       2       1       1       2       1       1       2       1       1       2
       1       1       2       1       1       2       1       1       2       1
       1       2       1       1       2       1       1       2       1       1
       2       1       1       2       1       1       2       1       1       2
       1       1       2       1       1       2       1       1       2       1
       1       2       1       1       2       1       1       2       1       1
       2       1       1       2       1       1       2       1       1       2
       1       1       2       1       1       2       1       1       2       1
       1       2       1       1       2       1       1       2       1       1
       2       1       1       2       1       1       2       1       1       2
       1       1       2       1       1       2       1       1       2       1
       1       2       1       1       2       1       1       2       1       1
       2       1       1       2       1       1       2       1       1       2
       1       1       2       1       1       2       1       1       2       1
       1       2       1       1       2       1       1       2       1       1
       2       1       1       2       1       1       2       1       1       2
       1       1       2       1       1       2       1       1       2       1
       1       2       1       1       2       1       1       2       1       1
       2       1       1       2       1       1       2       1       1       2
       1       1       2       1       1       2       1       1       2       1
       1       2       1       1       2       1       1       2       1       1
       2       1       1       2       1       1       2       1       1       2
       1       1       2       1       1       2       1       1       2       1
       1       2       1       1       2       1       1       2       1       1
       2       1       1       2       1       1       2       1       1       2
       1       1       2       1       1       2       1       1       2       1
       1       2       1       1       2       1       1       2       1       1
       2       1       1       2       1       1       2       1       1       2
       1       1       2       1       1       2       1       1       2       1
       1       2       1       1       2       1       1       2       1       1
       2       1       1       2       1       1       2       1       1       2
       1       1       2       1       1       2       1       1       2       1
       1       2       1       1       2       1       1       2       1       1
       2       1       1       2       1       1       2       1       1       2
       1       1       2       1       1       2       1       1       2       1
       1       2       1       1       2       1       1       2       1       1
       2       1       1       2       1       1       2       1       1       2
       1       1       2       1       1       2       1       1       2       1
       1       2       1       1       2       1       1       2       1       1
       2       1       1       2       1       1       2       1       1       2
       1       1       2       1       1       2       1       1       2       1
       1       2       1       1       2       1       1       2       1       1
       2       1       1       2       1       1       2       1       1       2
       1       1       2       1       1       2       1       1       2       1
       1       2       1       1       2       1       1       2       1       1
       2       1       1       2       1       1       2       1       1       2
       1       1       2       1       1       2       1       1       2       1
       1       2       1       1       2       1       1       2       1       1
       2       1       1       2       1       1       2       1       1       2
       1       1       2       1       1       2       1       1       2       1
       1       2       1       1       2       1       1       2       1       1
       2       1       1       2       1       1       2       1       1       2
       1       1       2       1       1       2       1       1       2       1
       1       2       1       1       2       1       1       2       1       1
       2       1       1       2       1       1       2       1       1       2
       1       1       2       1       1       2       1       1       2       1
       1       2       1       1       2       1       1       2       1       1
       2       1       1       2       1       1       2       1       1       2
       1       1       2       1       1       2       1       1       2       1
       1       2       1       1       2       1       1       2       1       1
       2       1       1       2       1       1       2       1       1       2
       1       1       2       1       1       2       1       1       2       1
       1       2       1       1       2       1       1       2       1       1
       2       1       1       2       1       1       2       1       1       2
       1       1       2       1       1       2       1       1       2       1
       1       2       1       1       2       1       1       2       1       1
       2       1       1       2       1       1       2       1       1       2
       1       1       2       1       1       2       1       1       2       1
       1       2       1       1       2       1       1       2       1       1
       2       1       1       2       1       1       2       1       1       2
       1       1       2       1       1       2       1       1       2       1
       1       2       1       1       2       1       1       2       1       1
       2       1       1       2       1       1       2       1       1       2
       1       1       2       1       1       2       1       1       2       1
       1       2       1       1       2       1       1       2       1       1
       2       1       1       2       1       1       2       1       1       2
       1       1       2       1       1       2       1       1       2       1
       1       2       1       1       2       1       1       2       1       1
       2       1       1       2       1       1       2       1       1       2
       1       1       2       1       1       2       1       1       2       1
       1       2       1       1       2       1       1       2       1       1
       2       1       1       2       1       1       2       1       1       2
       1       1       2       1       1       2       1       1       2       1
       1       2       1       1       2       1       1       2       1       1
       2       1       1       2       1       1       2       1       1       2
       1       1       2       1       1       2       1       1       2       1
       1       2       1       1       2       1       1       2       1       1
       2       1       1       2       1       1       2       1       1       2
       1       1       2       1       1       2       1       1       2       1
       1       2       1       1       2       1       1       2       1       1
       2       1       1       2       1       1       2       1       1       2
       1       1       2       1       1       2       1       1       2       1
       1       2       1       1       2       1       1       2       1       1
       2       1       1       2       1       1       2       1       1       2
       1       1       2       1       1       2       1       1       2       1
       1       2       1       1       2       1       1       2       1       1
       2       1       1       2       1       1       2       1       1       2
       1       1       2       1       1       2       1       1       2       1
       1       2       1       1       2       1       1       2       1       1
       2       1       1       2       1       1       2       1       1       2
       1       1       2       1       1       2       1       1       2       1
       1       2       1       1       2       1       1       2       1       1
       2       1       1       2       1       1       2       1       1       2
       1       1       2       1       1       2       1       1       2       1
       1       2       1       1       2       1       1       2       1       1
       2       1       1       2       1       1       2       1       1       2
       1       1       2       1       1       2       1       1       2       1
       1       2       1       1       2       1       1       2       1       1
       2       1       1       2       1       1       2       1       1       2
       1       1       2       1       1       2       1       1       2       1
       1       2       1       1       2       1       1       2       1       1
       2       1       1       2       1       1       2       1       1       2
       1       1       2       1       1       2       1       1       2       1
       1       2       1       1       2       1       1       2       1       1
       2       1       1       2       1       1       2       1       1       2
       1       1       2       1       1       2       1       1       2       1
       1       2       1       1       2       1       1       2       1       1
       2       1       1       2       1       1       2       1       1       2
       1       1       2       1       1       2       1       1       2       1
       1       2       1       1       2       1       1       2       1       1
       2       1       1       2       1       1       2       1       1       2
       1       1       2       1       1       2       1       1       2       1
       1       2       1       1       2       1       1       2       1       1
       2       1       1       2       1       1       2       1       1       2
       1       1       2       1       1       2       1       1       2       1
       1       2       1       1       2       1       1       2       1       1
       2       1       1       2       1       1       2       1       1       2
       1       1       2       1       1       2       1       1       2       1
       1       2       1       1       2       1       1       2       1       1
       2       1       1       2       1       1       2       1       1       2
       1       1       2       1       1       2       1       1       2       1
       1       2       1       1       2       1       1       2       1       1
       2       1       1       2       1       1       2       1       1       2
       1       1       2       1       1       2       1       1       2       1
       1       2       1       1       2       1       1       2       1       1
       2       1       1       2       1       1       2       1       1       2
       1       1       2       1       1       2       1       1       2       1
       1       2       1       1       2       1       1       2       1       1
       2       1       1       2       1       1       2       1       1       2
       1       1       2       1       1       2       1       1       2       1
       1       2       1       1       2       1       1       2       1       1
       2       1       1       2       1       1       2       1       1       2
       1       1       2       1       1       2       1       1       2       1
       1       2       1       1       2       1       1       2       1       1
       2       1       1       2       1       1       2       1       1       2
       1       1       2       1       1       2       1       1       2       1
       1       2       1       1       2       1       1       2       1       1
       2       1       1       2       1       1       2       1       1       2
       1       1       2       1       1       2       1       1       2       1
       1       2       1       1       2       1       1       2       1       1
       2       1       1       2       1       1       2       1       1       2
       1       1       2       1       1       2       1       1       2       1
       1       2       1       1       2       1       1       2       1       1
       2       1       1       2       1       1       2       1       1       2
       1       1       2       1       1       2       1       1       2       1
       1       2       1       1       2       1       1       2       1       1
       2       1       1       2       1       1       2       1       1       2
       1       1       2       1       1       2       1       1       2       1
       1       2       1       1       2       1       1       2       1       1
       2       1       1       2       1       1       2       1       1       2
       1       1       2       1       1       2       1       1       2       1
       1       2       1       1       2       1       1       2       1       1
       2       1       1       2       1       1       2       1       1       2
       1       1       2       1       1       2       1       1       2       1
       1       2       1       1       2       1       1       2       1       1
       2       1       1       2       1       1       2       1       1       2
       1       1       2       1       1       2       1       1       2       1
       1       2       1       1       2       1       1       2       1       1
       2       1       1       2       1       1       2       1       1       2
       1       1       2       1       1       2       1       1       2       1
       1       2       1       1       2       1       1       2       1       1
       2       1       1       2       1       1       2       1       1       2
       1       1       2       1       1       2       1       1       2       1
       1       2       1       1       2       1       1       2       1       1
       2       1       1       2       1       1       2       1       1       2
       1       1       2       1       1       2       1       1       2       1
       1       2       1       1       2       1       1       2       1       1
       2       1       1       2       1       1       2       1       1       2
       1       1       2       1       1       2       1       1       2       1
       1       2       1       1       2       1       1       2       1       1
       2       1       1       2       1       1       2       1       1       2
       1       1       2       1       1       2       1       1       2       1
       1       2       1       1       2       1       1       2       1       1
       2       1       1       2       1       1       2       1       1       2
       1       1       2       1       1       2       1       1       2       1
       1       2       1       1       2       1       1       2       1       1
       2       1       1       2       1       1       2       1       1       2
       1       1       2       1       1       2       1       1       2       1
       1       2       1       1       2       1       1       2       1       1
       2       1       1       2       1       1       2       1       1       2
       1       1       2       1       1       2       1       1       2       1
       1       2       1       1       2       1       1       2       1       1
       2       1       1       2       1       1       2       1       1       2
       1       1       2       1       1       2       1       1       2       1
       1       2       1       1       2       1       1       2       1       1
       2       1       1       2       1       1       2       1       1       2
       1       1       2       1       1       2       1       1       2       1
       1       2       1       1       2       1       1       2       1       1
       2       1       1       2       1       1       2       1       1       2
       1       1       2       1       1       2       1       1       2       1
       1       2       1       1       2       1       1       2       1       1
       2       1       1       2       1       1       2       1       1       2
       1       1       2       1       1       2       1       1       2       1
       1       2       1       1       2       1       1       2       1       1
       2       1       1       2       1       1       2       1       1       2
       1       1       2       1       1       2       1       1       2       1
       1       2       1       1       2       1       1       2       1       1
       2       1       1       2       1       1       2       1       1       2
       1       1       2       1       1       2       1       1       2       1
       1       2       1       1       2       1       1       2       1       1
       2       1       1       2       1       1       2       1       1       2
       1       1       2       1       1       2       1       1       2       1
       1       2       1       1       2       1       1       2       1       1
       2       1       1       2       1       1       2       1       1       2
       1       1       2       1       1       2       1       1       2       1
       1       2       1       1       2       1       1       2       1       1
       2       1       1       2       1       1       2       1       1       2
       1       1       2       1       1       2       1       1       2       1
       1       2       1       1       2       1       1       2       1       1
       2       1       1       2       1       1       2       1       1       2
       1       1       2       1       1       2       1       1       2       1
       1       2       1       1       2       1       1       2       1       1
       2       1       1       2       1       1       2       1       1       2
       1       1       2       1       1       2       1       1       2       1
       1       2       1       1       2       1       1       2       1       1
       2       1       1       2       1       1       2       1       1       2
       1       1       2       1       1       2       1       1       2       1
       1       2       1       1       2       1       1       2       1       1
       2       1       1       2       1       1       2       1       1       2
       1       1       2       1       1       2       1       1       2       1
       1       2       1       1       2       1       1       2       1       1
       2       1       1       2       1       1       2       1       1       2
       1       1       2       1       1       2       1       1       2       1
       1       2       1       1       2       1       1       2       1       1
       2       1       1       2       1       1       2       1       1       2
       1       1       2       1       1       2       1       1       2       1
       1       2       1       1       2       1       1       2       1       1
       2       1       1       2       1       1       2       1       1       2
       1       1       2       1       1       2       1       1       2       1
       1       2       1       1       2       1       1       2       1       1
       2       1       1       2       1       1       2       1       1       2
       1       1       2       1       1       2       1       1       2       1
       1       2       1       1       2       1       1       2       1       1
       2       1       1       2       1       1       2       1       1       2
       1       1       2       1       1       2       1       1       2       1
       1       2       1       1       2       1       1       2       1       1
       2       1       1       2       1       1       2       1       1       2
       1       1       2       1       1       2       1       1       2       1
       1       2       1       1       2       1       1       2       1       1
       2       1       1       2       1       1       2       1       1       2
       1       1       2       1       1       2       1       1       2       1
       1       2       1       1       2       1       1       2       1       1
       2       1       1       2       1       1       2       1       1       2
       1       1       2       1       1       2       1       1       2       1
       1       2       1       1       2       1       1       2       1       1
       2       1       1       2       1       1       2       1       1       2
       1       1       2       1       1       2       1       1       2       1
       1       2       1       1       2       1       1       2       1       1
       2       1       1       2       1       1       2       1       1       2
       1       1       2       1       1       2       1       1       2       1
       1       2       1       1       2       1       1       2       1       1
       2       1       1       2       1       1       2       1       1       2
       1       1       2       1       1       2       1       1       2       1
       1       2       1       1       2       1       1       2       1       1
       2       1       1       2       1       1       2       1       1       2
       1       1       2       1       1       2       1       1       2       1
       1       2       1       1       2       1       1       2       1       1
       2       1       1       2       1       1       2       1       1       2
       1       1       2       1       1       2       1       1       2       1
       1       2       1       1       2       1       1       2       1       1
       2       1       1       2       1       1       2       1       1       2
       1       1       2       1       1       2       1       1       2       1
       1       2       1       1       2       1       1       2       1       1
       2       1       1       2       1       1       2       1       1       2
       1       1       2       1       1       2       1       1       2       1
       1       2       1       1       2       1       1       2       1       1
       2       1       1       2       1       1       2       1       1       2
       1       1       2       1       1       2       1       1       2       1
       1       2       1       1       2       1       1       2       1       1
       2       1       1       2       1       1       2       1       1       2
       1       1       2       1       1       2       1       1       2       1
       1       2       1       1       2       1       1       2       1       1
       2       1       1       2       1       1       2       1       1       2
       1       1       2       1       1       2       1       1       2       1
       1       2       1       1       2       1       1       2       1       1
       2       1       1       2       1       1       2       1       1       2
       1       1       2       1       1       2       1       1       2       1
       1       2       1       1       2       1       1       2       1       1
       2       1       1       2       1       1       2       1       1       2
       1       1       2       1       1       2       1       1       2       1
       1       2       1       1       2       1       1       2       1       1
       2       1       1       2       1       1       2       1       1       2
       1       1       2       1       1       2       1       1       2       1
       1       2       1       1       2       1       1       2       1       1
       2       1       1       2       1       1       2       1       1       2
       1       1       2       1       1       2       1       1       2       1
       1       2       1       1       2       1       1       2       1       1
       2       1       1       2       1       1       2       1       1       2
       1       1       2       1       1       2       1       1       2       1
       1       2       1       1       2       1       1       2       1       1
       2       1       1       2       1       1       2       1       1       2
       1       1       2       1       1       2       1       1       2       1
       1       2       1       1       2       1       1       2       1       1
       2       1       1       2       1       1       2       1       1       2
       1       1       2       1       1       2       1       1       2       1
       1       2       1       1       2       1       1       2       1       1
       2       1       1       2       1       1       2       1       1       2
       1       1       2       1       1       2       1       1       2       1
       1       2       1       1       2       1       1       2       1       1
       2       1       1       2       1       1       2       1       1       2
       1       1       2       1       1       2       1       1       2       1
       1       2       1       1       2       1       1       2       1       1
       2       1       1       2       1       1       2       1       1       2
       1       1       2       1       1       2       1       1       2       1
       1       2       1       1       2       1       1       2       1       1
       2       1       1       2       1       1       2       1       1       2
       1       1       2       1       1       2       1       1       2       1
       1       2       1       1       2       1       1       2       1       1
       2       1       1       2       1       1       2       1       1       2
       1       1       2       1       1       2       1       1       2       1
       1       2       1       1       2       1       1       2       1       1
       2       1       1       2       1       1       2       1       1       2
       1       1       2       1       1       2       1       1       2       1
       1       2       1       1       2       1       1       2       1       1
       2       1       1       2       1       1       2       1       1       2
       1       1       2       1       1       2       1       1       2       1
       1       2       1       1       2       1       1       2       1       1
       2       1       1       2       1       1       2       1       1       2
       1       1       2       1       1       2       1       1       2       1
       1       2       1       1       2       1       1       2       1       1
       2       1       1       2       1       1       2       1       1       2
       1       1       2       1       1       2       1       1       2       1
       1       2       1       1       2       1       1       2       1       1
       2       1       1       2       1       1       2       1       1       2
       1       1       2       1       1       2       1       1       2       1
       1       2       1       1       2       1       1       2       1       1
       2       1       1       2       1       1       2       1       1       2
       1       1       2       1       1       2       1       1       2       1
       1       2       1       1       2       1       1       2       1       1
       2       1       1       2       1       1       2       1       1       2
       1       1       2       1       1       2       1       1       2       1
       1       2       1       1       2       1       1       2       1       1
       2       1       1       2       1       1       2       1       1       2
       1       1       2       1       1       2       1       1       2       1
       1       2       1       1       2       1       1       2       1       1
       2       1       1       2       1       1       2       1       1       2
       1       1       2       1       1       2       1       1       2       1
       1       2       1       1       2       1       1       2       1       1
       2       1       1       2       1       1       2       1       1       2
       1       1       2       1       1       2       1       1       2       1
       1       2       1       1       2       1       1       2       1       1
       2       1       1       2       1       1       2       1       1       2
       1       1       2       1       1       2       1       1       2       1
       1       2       1       1       2       1       1       2       1       1
       2       1       1       2       1       1       2       1       1       2
       1       1       2       1       1       2       1       1       2       1
       1       2       1       1       2       1       1       2       1       1
       2       1       1       2       1       1       2       1       1       2
       1       1       2       1       1       2       1       1       2       1
       1       2       1       1       2       1       1       2       1       1
       2       1       1       2       1       1       2       1       1       2
       1       1       2       1       1       2       1       1       2       1
       1       2       1       1       2       1       1       2       1       1
       2       1       1       2       1       1       2       1       1       2
       1       1       2       1       1       2       1       1       2       1
       1       2       1       1       2       1       1       2       1       1
       2       1       1       2       1       1       2       1       1       2
       1       1       2       1       1       2       1       1       2       1
       1       2       1       1       2       1       1       2       1       1
       2       1       1       2       1       1       2       1       1       2
       1       1       2       1       1       2       1       1       2       1
       1       2       1       1       2       1       1       2       1       1
       2       1       1       2       1       1       2       1       1       2
       1       1       2       1       1       2       1       1       2       1
       1       2       1       1       2       1       1       2       1       1
       2       1       1       2       1       1       2       1       1       2
       1       1       2       1       1       2       1       1       2       1
       1       2       1       1       2       1       1       2       1       1
       2       1       1       2       1       1       2       1       1       2
       1       1       2       1       1       2       1       1       2       1
       1       2       1       1       2       1       1       2       1       1
       2       1       1       2       1       1       2       1       1       2
       1       1       2       1       1       2       1       1       2       1
       1       2       1       1       2       1       1       2       1       1
       2       1       1       2       1       1       2       1       1       2
       1       1       2       1       1       2       1       1       2       1
       1       2       1       1       2       1       1       2       1       1
       2       1       1       2       1       1       2       1       1       2
       1       1       2       1       1       2       1       1       2       1
       1       2       1       1       2       1       1       2       1       1
       2       1       1       2       1       1       2       1       1       2
       1       1       2       1       1       2       1       1       2       1
       1       2       1       1       2       1       1       2       1       1
       2       1       1       2       1       1       2       1       1       2
       1       1       2       1       1       2       1       1       2       1
       1       2       1       1       2       1       1       2       1       1
       2       1       1       2       1       1       2       1       1       2
       1       1       2       1       1       2       1       1       2       1
       1       2       1       1       2       1       1       2       1       1
       2       1       1       2       1       1       2       1       1       2
       1       1       2       1       1       2       1       1       2       1
       1       2       1       1       2       1       1       2       1       1
       2       1       1       2       1       1       2       1       1       2
       1       1       2       1       1       2       1       1       2       1
       1       2       1       1       2       1       1       2       1       1
       2       1       1       2       1       1       2       1       1       2
       1       1       2       1       1       2       1       1       2       1
       1       2       1       1       2       1       1       2       1       1
       2       1       1       2       1       1       2       1       1       2
       1       1       2       1       1       2       1       1       2       1
       1       2       1       1       2       1       1       2       1       1
       2       1       1       2       1       1       2       1       1       2
       1       1       2       1       1       2       1       1       2       1
       1       2       1       1       2       1       1       2       1       1
       2       1       1       2       1       1       2       1       1       2
       1       1       2       1       1       2       1       1       2       1
       1       2       1       1       2       1       1       2       1       1
       2       1       1       2       1       1       2       1       1       2
       1       1       2       1       1       2       1       1       2       1
       1       2       1       1       2       1       1       2       1       1
       2       1       1       2       1       1       2       1       1       2
       1       1       2       1       1       2       1       1       2       1
       1       2       1       1       2       1       1       2       1       1
       2       1       1       2       1       1       2       1       1       2
       1       1       2       1       1       2       1       1       2       1
       1       2       1       1       2       1       1       2       1       1
       2       1       1       2       1       1       2       1       1       2
       1       1       2       1       1       2       1       1       2       1
       1       2       1       1       2       1       1       2       1       1
       2       1       1       2       1       1       2       1       1       2
       1       1       2       1       1       2       1       1       2       1
       1       2       1       1       2       1       1       2       1       1
       2       1       1       2       1       1       2       1       1       2
       1       1       2       1       1       2       1       1       2       1
       1       2       1       1       2       1       1       2       1       1
       2       1       1       2       1       1       2       1       1       2
       1       1       2       1       1       2       1       1       2       1
       1       2       1       1       2       1       1       2       1       1
       2       1       1       2       1       1       2       1       1       2
       1       1       2       1       1       2       1       1       2       1
       1       2       1       1       2       1       1       2       1       1
       2       1       1       2       1       1       2       1       1       2
       1       1       2       1       1       2       1       1       2       1
       1       2       1       1       2       1       1       2       1       1
       2       1       1       2       1       1       2       1       1       2
       1       1       2       1       1       2       1       1       2       1
       1       2       1       1       2       1       1       2       1       1
       2       1       1       2       1       1       2       1       1       2
       1       1       2       1       1       2       1       1       2       1
       1       2       1       1       2       1       1       2       1       1
       2       1       1       2       1       1       2       1       1       2
       1       1       2       1       1       2       1       1       2       1
       1       2       1       1       2       1       1       2       1       1
       2       1       1       2       1       1       2       1       1       2
       1       1       2       1       1       2       1       1       2       1
       1       2       1       1       2       1       1       2       1       1
       2       1       1       2       1       1       2       1       1       2
       1       1       2       1       1       2       1       1       2       1
       1       2       1       1       2       1       1       2       1       1
       2       1       1       2       1       1       2       1       1       2
       1       1       2       1       1       2       1       1       2       1
       1       2       1       1       2       1       1       2       1       1
       2       1       1       2       1       1       2       1       1       2
       1       1       2       1       1       2       1       1       2       1
       1       2       1       1       2       1       1       2       1       1
       2       1       1       2       1       1       2       1       1       2
       1       1       2       1       1       2       1       1       2       1
       1       2       1       1       2       1       1       2       1       1
       2       1       1       2       1       1       2       1       1       2
       1       1       2       1       1       2       1       1       2       1
       1       2       1       1       2       1       1       2       1       1
       2       1       1       2       1       1       2       1       1       2
       1       1       2       1       1       2       1       1       2       1
       1       2       1       1       2       1       1       2       1       1
       2       1       1       2       1       1       2       1       1       2
       1       1       2       1       1       2       1       1       2       1
       1       2       1       1       2       1       1       2       1       1
       2       1       1       2       1       1       2       1       1       2
       1       1       2       1       1       2       1       1       2       1
       1       2       1       1       2       1       1       2       1       1
       2       1       1       2       1       1       2       1       1       2
       1       1       2       1       1       2       1       1       2       1
       1       2       1       1       2       1       1       2       1       1
       2       1       1       2       1       1       2       1       1       2
       1       1       2       1       1       2       1       1       2       1
       1       2       1       1       2       1       1       2       1       1
       2       1       1       2       1       1       2       1       1       2
       1       1       2       1       1       2       1       1       2       1
       1       2       1       1       2       1       1       2       1       1
       2       1       1       2       1       1       2       1       1       2
       1       1       2       1       1       2       1       1       2       1
       1       2       1       1       2       1       1       2       1       1
%FLAG NONBONDED_PARM_INDEX
%FORMAT(10I8)
       1       2       4       7      11      16      22      29      37      46
      56      67      79      92     106       2       3       5       8      12
      17      23      30      38      47      57      68      80      93     107
       4       5       6       9      13      18      24      31      39      48
      58      69      81      94     108       7       8       9      10      14
      19      25      32      40      49      59      70      82      95     109
      11      12      13      14      15      20      26      33      41      50
      60      71      83      96     110      16      17      18      19      20
      21      27      34      42      51      61      72      84      97     111
      22      23      24      25      26      27      28      35      43      52
      62      73      85      98     112      29      30      31      32      33
      34      35      36      44      53      63      74      86      99     113
      37      38      39      40      41      42      43      44      45      54
      64      75      87     100     114      46      47      48      49      50
      51      52      53      54      55      65      76      88     101     115
      56      57      58      59      60      61      62      63      64      65
      66      77      89     102     116      67      68      69      70      71
      72      73      74      75      76      77      78      90     103     117
      79      80      81      82      83      84      85      86      87      88
      89      90      91     104     118      92      93      94      95      96
      97      98      99     100     101     102     103     104     105     119
     106     107     108     109     110     111     112     113     114     115
     116     117     118     119     120
%FLAG RESIDUE_LABEL
%FORMAT(20a4)
GLY ILE VAL GL4 GLN CYX CYX THR SER ILE CYX SER LEU TYR GLN LEU GL4 ASN TYR CYX 
ASN PHE VAL ASN GLN HIP LEU CYX GLY SER HIP LEU VAL GL4 ALA LEU TYR LEU VAL CYX 
GLY GL4 ARG GLY PHE PHE TYR THR PRO LYS ALA WAT WAT WAT WAT WAT WAT WAT WAT WAT 
WAT WAT WAT WAT WAT WAT WAT WAT WAT WAT WAT WAT WAT WAT WAT WAT WAT WAT WAT WAT 
WAT WAT WAT WAT WAT WAT WAT WAT WAT WAT WAT WAT WAT WAT WAT WAT WAT WAT WAT WAT 
WAT WAT WAT WAT WAT WAT WAT WAT WAT WAT WAT WAT WAT WAT WAT WAT WAT WAT WAT WAT 
WAT WAT WAT WAT WAT WAT WAT WAT WAT WAT WAT WAT WAT WAT WAT WAT WAT WAT WAT WAT 
WAT WAT WAT WAT WAT WAT WAT WAT WAT WAT WAT WAT WAT WAT WAT WAT WAT WAT WAT WAT 
WAT WAT WAT WAT WAT WAT WAT WAT WAT WAT WAT WAT WAT WAT WAT WAT WAT WAT WAT WAT 
WAT WAT WAT WAT WAT WAT WAT WAT WAT WAT WAT WAT WAT WAT WAT WAT WAT WAT WAT WAT 
WAT WAT WAT WAT WAT WAT WAT WAT WAT WAT WAT WAT WAT WAT WAT WAT WAT WAT WAT WAT 
WAT WAT WAT WAT WAT WAT WAT WAT WAT WAT WAT WAT WAT WAT WAT WAT WAT WAT WAT WAT 
WAT WAT WAT WAT WAT WAT WAT WAT WAT WAT WAT WAT WAT WAT WAT WAT WAT WAT WAT WAT 
WAT WAT WAT WAT WAT WAT WAT WAT WAT WAT WAT WAT WAT WAT WAT WAT WAT WAT WAT WAT 
WAT WAT WAT WAT WAT WAT WAT WAT WAT WAT WAT WAT WAT WAT WAT WAT WAT WAT WAT WAT 
WAT WAT WAT WAT WAT WAT WAT WAT WAT WAT WAT WAT WAT WAT WAT WAT WAT WAT WAT WAT 
WAT WAT WAT WAT WAT WAT WAT WAT WAT WAT WAT WAT WAT WAT WAT WAT WAT WAT WAT WAT 
WAT WAT WAT WAT WAT WAT WAT WAT WAT WAT WAT WAT WAT WAT WAT WAT WAT WAT WAT WAT 
WAT WAT WAT WAT WAT WAT WAT WAT WAT WAT WAT WAT WAT WAT WAT WAT WAT WAT WAT WAT 
WAT WAT WAT WAT WAT WAT WAT WAT WAT WAT WAT WAT WAT WAT WAT WAT WAT WAT WAT WAT 
WAT WAT WAT WAT WAT WAT WAT WAT WAT WAT WAT WAT WAT WAT WAT WAT WAT WAT WAT WAT 
WAT WAT WAT WAT WAT WAT WAT WAT WAT WAT WAT WAT WAT WAT WAT WAT WAT WAT WAT WAT 
WAT WAT WAT WAT WAT WAT WAT WAT WAT WAT WAT WAT WAT WAT WAT WAT WAT WAT WAT WAT 
WAT WAT WAT WAT WAT WAT WAT WAT WAT WAT WAT WAT WAT WAT WAT WAT WAT WAT WAT WAT 
WAT WAT WAT WAT WAT WAT WAT WAT WAT WAT WAT WAT WAT WAT WAT WAT WAT WAT WAT WAT 
WAT WAT WAT WAT WAT WAT WAT WAT WAT WAT WAT WAT WAT WAT WAT WAT WAT WAT WAT WAT 
WAT WAT WAT WAT WAT WAT WAT WAT WAT WAT WAT WAT WAT WAT WAT WAT WAT WAT WAT WAT 
WAT WAT WAT WAT WAT WAT WAT WAT WAT WAT WAT WAT WAT WAT WAT WAT WAT WAT WAT WAT 
WAT WAT WAT WAT WAT WAT WAT WAT WAT WAT WAT WAT WAT WAT WAT WAT WAT WAT WAT WAT 
WAT WAT WAT WAT WAT WAT WAT WAT WAT WAT WAT WAT WAT WAT WAT WAT WAT WAT WAT WAT 
WAT WAT WAT WAT WAT WAT WAT WAT WAT WAT WAT WAT WAT WAT WAT WAT WAT WAT WAT WAT 
WAT WAT WAT WAT WAT WAT WAT WAT WAT WAT WAT WAT WAT WAT WAT WAT WAT WAT WAT WAT 
WAT WAT WAT WAT WAT WAT WAT WAT WAT WAT WAT WAT WAT WAT WAT WAT WAT WAT WAT WAT 
WAT WAT WAT WAT WAT WAT WAT WAT WAT WAT WAT WAT WAT WAT WAT WAT WAT WAT WAT WAT 
WAT WAT WAT WAT WAT WAT WAT WAT WAT WAT WAT WAT WAT WAT WAT WAT WAT WAT WAT WAT 
WAT WAT WAT WAT WAT WAT WAT WAT WAT WAT WAT WAT WAT WAT WAT WAT WAT WAT WAT WAT 
WAT WAT WAT WAT WAT WAT WAT WAT WAT WAT WAT WAT WAT WAT WAT WAT WAT WAT WAT WAT 
WAT WAT WAT WAT WAT WAT WAT WAT WAT WAT WAT WAT WAT WAT WAT WAT WAT WAT WAT WAT 
WAT WAT WAT WAT WAT WAT WAT WAT WAT WAT WAT WAT WAT WAT WAT WAT WAT WAT WAT WAT 
WAT WAT WAT WAT WAT WAT WAT WAT WAT WAT WAT WAT WAT WAT WAT WAT WAT WAT WAT WAT 
WAT WAT WAT WAT WAT WAT WAT WAT WAT WAT WAT WAT WAT WAT WAT WAT WAT WAT WAT WAT 
WAT WAT WAT WAT WAT WAT WAT WAT WAT WAT WAT WAT WAT WAT WAT WAT WAT WAT WAT WAT 
WAT WAT WAT WAT WAT WAT WAT WAT WAT WAT WAT WAT WAT WAT WAT WAT WAT WAT WAT WAT 
WAT WAT WAT WAT WAT WAT WAT WAT WAT WAT WAT WAT WAT WAT WAT WAT WAT WAT WAT WAT 
WAT WAT WAT WAT WAT WAT WAT WAT WAT WAT WAT WAT WAT WAT WAT WAT WAT WAT WAT WAT 
WAT WAT WAT WAT WAT WAT WAT WAT WAT WAT WAT WAT WAT WAT WAT WAT WAT WAT WAT WAT 
WAT WAT WAT WAT WAT WAT WAT WAT WAT WAT WAT WAT WAT WAT WAT WAT WAT WAT WAT WAT 
WAT WAT WAT WAT WAT WAT WAT WAT WAT WAT WAT WAT WAT WAT WAT WAT WAT WAT WAT WAT 
WAT WAT WAT WAT WAT WAT WAT WAT WAT WAT WAT WAT WAT WAT WAT WAT WAT WAT WAT WAT 
WAT WAT WAT WAT WAT WAT WAT WAT WAT WAT WAT WAT WAT WAT WAT WAT WAT WAT WAT WAT 
WAT WAT WAT WAT WAT WAT WAT WAT WAT WAT WAT WAT WAT WAT WAT WAT WAT WAT WAT WAT 
WAT WAT WAT WAT WAT WAT WAT WAT WAT WAT WAT WAT WAT WAT WAT WAT WAT WAT WAT WAT 
WAT WAT WAT WAT WAT WAT WAT WAT WAT WAT WAT WAT WAT WAT WAT WAT WAT WAT WAT WAT 
WAT WAT WAT WAT WAT WAT WAT WAT WAT WAT WAT WAT WAT WAT WAT WAT WAT WAT WAT WAT 
WAT WAT WAT WAT WAT WAT WAT WAT WAT WAT WAT WAT WAT WAT WAT WAT WAT WAT WAT WAT 
WAT WAT WAT WAT WAT WAT WAT WAT WAT WAT WAT WAT WAT WAT WAT WAT WAT WAT WAT WAT 
WAT WAT WAT WAT WAT WAT WAT WAT WAT WAT WAT WAT WAT WAT WAT WAT WAT WAT WAT WAT 
WAT WAT WAT WAT WAT WAT WAT WAT WAT WAT WAT WAT WAT WAT WAT WAT WAT WAT WAT WAT 
WAT WAT WAT WAT WAT WAT WAT WAT WAT WAT WAT WAT WAT WAT WAT WAT WAT WAT WAT WAT 
WAT WAT WAT WAT WAT WAT WAT WAT WAT WAT WAT WAT WAT WAT WAT WAT WAT WAT WAT WAT 
WAT WAT WAT WAT WAT WAT WAT WAT WAT WAT WAT WAT WAT WAT WAT WAT WAT WAT WAT WAT 
WAT WAT WAT WAT WAT WAT WAT WAT WAT WAT WAT WAT WAT WAT WAT WAT WAT WAT WAT WAT 
WAT WAT WAT WAT WAT WAT WAT WAT WAT WAT WAT WAT WAT WAT WAT WAT WAT WAT WAT WAT 
WAT WAT WAT WAT WAT WAT WAT WAT WAT WAT WAT WAT WAT WAT WAT WAT WAT WAT WAT WAT 
WAT WAT WAT WAT WAT WAT WAT WAT WAT WAT WAT WAT WAT WAT WAT WAT WAT WAT WAT WAT 
WAT WAT WAT WAT WAT WAT WAT WAT WAT WAT WAT WAT WAT WAT WAT WAT WAT WAT WAT WAT 
WAT WAT WAT WAT WAT WAT WAT WAT WAT WAT WAT WAT WAT WAT WAT WAT WAT WAT WAT WAT 
WAT WAT WAT WAT WAT WAT WAT WAT WAT WAT WAT WAT WAT WAT WAT WAT WAT WAT WAT WAT 
WAT WAT WAT WAT WAT WAT WAT WAT WAT WAT WAT WAT WAT WAT WAT WAT WAT WAT WAT WAT 
WAT WAT WAT WAT WAT WAT WAT WAT WAT WAT WAT WAT WAT WAT WAT WAT WAT WAT WAT WAT 
WAT WAT WAT WAT WAT WAT WAT WAT WAT WAT WAT WAT WAT WAT WAT WAT WAT WAT WAT WAT 
WAT WAT WAT WAT WAT WAT WAT WAT WAT WAT WAT WAT WAT WAT WAT WAT WAT WAT WAT WAT 
WAT WAT WAT WAT WAT WAT WAT WAT WAT WAT WAT WAT WAT WAT WAT WAT WAT WAT WAT WAT 
WAT WAT WAT WAT WAT WAT WAT WAT WAT WAT WAT WAT WAT WAT WAT WAT WAT WAT WAT WAT 
WAT WAT WAT WAT WAT WAT WAT WAT WAT WAT WAT WAT WAT WAT WAT WAT WAT WAT WAT WAT 
WAT WAT WAT WAT WAT WAT WAT WAT WAT WAT WAT WAT WAT WAT WAT WAT WAT WAT WAT WAT 
WAT WAT WAT WAT WAT WAT WAT WAT WAT WAT WAT WAT WAT WAT WAT WAT WAT WAT WAT WAT 
WAT WAT WAT WAT WAT WAT WAT WAT WAT WAT WAT WAT WAT WAT WAT WAT WAT WAT WAT WAT 
WAT WAT WAT WAT WAT WAT WAT WAT WAT WAT WAT WAT WAT WAT WAT WAT WAT WAT WAT WAT 
WAT WAT WAT WAT WAT WAT WAT WAT WAT WAT WAT WAT WAT WAT WAT WAT WAT WAT WAT WAT 
WAT WAT WAT WAT WAT WAT WAT WAT WAT WAT WAT WAT WAT WAT WAT WAT WAT WAT WAT WAT 
WAT WAT WAT WAT WAT WAT WAT WAT WAT WAT WAT WAT WAT WAT WAT WAT WAT WAT WAT WAT 
WAT WAT WAT WAT WAT WAT WAT WAT WAT WAT WAT WAT WAT WAT WAT WAT WAT WAT WAT WAT 
WAT WAT WAT WAT WAT WAT WAT WAT WAT WAT WAT WAT WAT WAT WAT WAT WAT WAT WAT WAT 
WAT WAT WAT WAT WAT WAT WAT WAT WAT WAT WAT WAT WAT WAT WAT WAT WAT WAT WAT WAT 
WAT WAT WAT WAT WAT WAT WAT WAT WAT WAT WAT WAT WAT WAT WAT WAT WAT WAT WAT WAT 
WAT WAT WAT WAT WAT WAT WAT WAT WAT WAT WAT WAT WAT WAT WAT WAT WAT WAT WAT WAT 
WAT WAT WAT WAT WAT WAT WAT WAT WAT WAT WAT WAT WAT WAT WAT WAT WAT WAT WAT WAT 
WAT WAT WAT WAT WAT WAT WAT WAT WAT WAT WAT WAT WAT WAT WAT WAT WAT WAT WAT WAT 
WAT WAT WAT WAT WAT WAT WAT WAT WAT WAT WAT WAT WAT WAT WAT WAT WAT WAT WAT WAT 
WAT WAT WAT WAT WAT WAT WAT WAT WAT WAT WAT WAT WAT WAT WAT WAT WAT WAT WAT WAT 
WAT WAT WAT WAT WAT WAT WAT WAT WAT WAT WAT WAT WAT WAT WAT WAT WAT WAT WAT WAT 
WAT WAT WAT WAT WAT WAT WAT WAT WAT WAT WAT WAT WAT WAT WAT WAT WAT WAT WAT WAT 
WAT WAT WAT WAT WAT WAT WAT WAT WAT WAT WAT WAT WAT WAT WAT WAT WAT WAT WAT WAT 
WAT WAT WAT WAT WAT WAT WAT WAT WAT WAT WAT WAT WAT WAT WAT WAT WAT WAT WAT WAT 
WAT WAT WAT WAT WAT WAT WAT WAT WAT WAT WAT WAT WAT WAT WAT WAT WAT WAT WAT WAT 
WAT WAT WAT WAT WAT WAT WAT WAT WAT WAT WAT WAT WAT WAT WAT WAT WAT WAT WAT WAT 
WAT WAT WAT WAT WAT WAT WAT WAT WAT WAT WAT WAT WAT WAT WAT WAT WAT WAT WAT WAT 
WAT WAT WAT WAT WAT WAT WAT WAT WAT WAT WAT WAT WAT WAT WAT WAT WAT WAT WAT WAT 
WAT WAT WAT WAT WAT WAT WAT WAT WAT WAT WAT WAT WAT WAT WAT WAT WAT WAT WAT WAT 
WAT WAT WAT WAT WAT WAT WAT WAT WAT WAT WAT WAT WAT WAT WAT WAT WAT WAT WAT WAT 
WAT WAT WAT WAT WAT WAT WAT WAT WAT WAT WAT WAT WAT WAT WAT WAT WAT WAT WAT WAT 
WAT WAT WAT WAT WAT WAT WAT WAT WAT WAT WAT WAT WAT WAT WAT WAT WAT WAT WAT WAT 
WAT WAT WAT WAT WAT WAT WAT WAT WAT WAT WAT WAT WAT WAT WAT WAT WAT WAT WAT WAT 
WAT WAT WAT WAT WAT WAT WAT WAT WAT WAT WAT WAT WAT WAT WAT WAT WAT WAT WAT WAT 
WAT WAT WAT WAT WAT WAT WAT WAT WAT WAT WAT WAT WAT WAT WAT WAT WAT WAT WAT WAT 
WAT WAT WAT WAT WAT WAT WAT WAT WAT WAT WAT WAT WAT WAT WAT WAT WAT WAT WAT WAT 
WAT WAT WAT WAT WAT WAT WAT WAT WAT WAT WAT WAT WAT WAT WAT WAT WAT WAT WAT WAT 
WAT WAT WAT WAT WAT WAT WAT WAT WAT WAT WAT WAT WAT WAT WAT WAT WAT WAT WAT WAT 
WAT WAT WAT WAT WAT WAT WAT WAT WAT WAT WAT WAT WAT WAT WAT WAT WAT WAT WAT WAT 
WAT WAT WAT WAT WAT WAT WAT WAT WAT WAT WAT WAT WAT WAT WAT WAT WAT WAT WAT WAT 
WAT WAT WAT WAT WAT WAT WAT WAT WAT WAT WAT WAT WAT WAT WAT WAT WAT WAT WAT WAT 
WAT WAT WAT WAT WAT WAT WAT WAT WAT WAT WAT WAT WAT WAT WAT WAT WAT WAT WAT WAT 
WAT WAT WAT WAT WAT WAT WAT WAT WAT WAT WAT WAT WAT WAT WAT WAT WAT WAT WAT WAT 
WAT WAT WAT WAT WAT WAT WAT WAT WAT WAT WAT WAT WAT WAT WAT WAT WAT WAT WAT WAT 
WAT WAT WAT WAT WAT WAT WAT WAT WAT WAT WAT WAT WAT WAT WAT WAT WAT WAT WAT WAT 
WAT WAT WAT WAT WAT WAT WAT WAT WAT WAT WAT WAT WAT WAT WAT WAT WAT WAT WAT WAT 
WAT WAT WAT WAT WAT WAT WAT WAT WAT WAT WAT WAT WAT WAT WAT WAT WAT WAT WAT WAT 
WAT WAT WAT WAT WAT WAT WAT WAT WAT WAT WAT WAT WAT WAT WAT WAT WAT WAT WAT WAT 
WAT WAT WAT WAT WAT WAT WAT WAT WAT WAT WAT WAT WAT WAT WAT WAT WAT WAT WAT WAT 
WAT WAT WAT WAT WAT WAT WAT WAT WAT WAT WAT WAT WAT WAT WAT WAT WAT WAT WAT WAT 
WAT WAT WAT WAT WAT WAT WAT WAT WAT WAT WAT WAT WAT WAT WAT WAT WAT WAT WAT WAT 
WAT WAT WAT WAT WAT WAT WAT WAT WAT WAT WAT WAT WAT WAT WAT WAT WAT WAT WAT WAT 
WAT WAT WAT WAT WAT WAT WAT WAT WAT WAT WAT WAT WAT WAT WAT WAT WAT WAT WAT WAT 
WAT WAT WAT WAT WAT WAT WAT WAT WAT WAT WAT WAT WAT WAT WAT WAT WAT WAT WAT WAT 
WAT WAT WAT WAT WAT WAT WAT WAT WAT WAT WAT WAT WAT WAT WAT WAT WAT WAT WAT WAT 
WAT WAT WAT WAT WAT WAT WAT WAT WAT WAT WAT WAT WAT WAT WAT WAT WAT WAT WAT WAT 
WAT WAT WAT WAT WAT WAT WAT WAT WAT WAT WAT WAT WAT WAT WAT WAT WAT WAT WAT WAT 
WAT WAT WAT WAT WAT WAT WAT WAT WAT WAT WAT WAT WAT WAT WAT WAT WAT WAT WAT WAT 
WAT WAT WAT WAT WAT WAT WAT WAT WAT WAT WAT WAT WAT WAT WAT WAT WAT WAT WAT WAT 
WAT WAT WAT WAT WAT WAT WAT WAT WAT WAT WAT WAT WAT WAT WAT WAT WAT WAT WAT WAT 
WAT WAT WAT WAT WAT WAT WAT WAT WAT WAT WAT WAT WAT WAT WAT WAT WAT WAT WAT WAT 
WAT WAT WAT WAT WAT WAT WAT WAT WAT WAT WAT WAT WAT WAT WAT WAT WAT WAT WAT WAT 
WAT WAT WAT WAT WAT WAT WAT WAT WAT WAT WAT WAT WAT WAT WAT WAT WAT WAT WAT WAT 
WAT WAT WAT WAT WAT WAT WAT WAT WAT WAT WAT WAT WAT WAT WAT WAT WAT WAT WAT WAT 
WAT WAT WAT WAT WAT WAT WAT WAT WAT WAT WAT WAT WAT WAT WAT WAT WAT WAT WAT WAT 
WAT WAT WAT WAT WAT WAT WAT WAT WAT WAT WAT WAT WAT WAT WAT WAT WAT WAT WAT WAT 
WAT WAT WAT WAT WAT WAT WAT WAT WAT WAT WAT WAT WAT WAT WAT WAT WAT WAT WAT WAT 
WAT WAT WAT WAT WAT WAT WAT WAT WAT WAT WAT WAT WAT WAT WAT WAT WAT WAT WAT WAT 
WAT WAT WAT WAT WAT WAT WAT WAT WAT WAT WAT WAT WAT WAT WAT WAT WAT WAT WAT WAT 
WAT WAT WAT WAT WAT WAT WAT WAT WAT WAT WAT WAT WAT WAT WAT WAT WAT WAT WAT WAT 
WAT WAT WAT WAT WAT WAT WAT WAT WAT WAT WAT WAT WAT WAT WAT WAT WAT WAT WAT WAT 
WAT WAT WAT WAT WAT WAT WAT WAT WAT WAT WAT WAT WAT WAT WAT WAT WAT WAT WAT WAT 
WAT WAT WAT WAT WAT WAT WAT WAT WAT WAT WAT WAT WAT WAT WAT WAT WAT WAT WAT WAT 
WAT WAT WAT WAT WAT WAT WAT WAT WAT WAT WAT WAT WAT WAT WAT WAT WAT WAT WAT WAT 
WAT WAT WAT WAT WAT WAT WAT WAT WAT WAT WAT WAT WAT WAT WAT WAT WAT WAT WAT WAT 
WAT WAT WAT WAT WAT WAT WAT WAT WAT WAT WAT WAT WAT WAT WAT WAT WAT WAT WAT WAT 
WAT WAT WAT WAT WAT WAT WAT WAT WAT WAT WAT WAT WAT WAT WAT WAT WAT WAT WAT WAT 
WAT WAT WAT WAT WAT WAT WAT WAT WAT WAT WAT WAT WAT WAT WAT WAT WAT WAT WAT WAT 
WAT WAT WAT WAT WAT WAT WAT WAT WAT WAT WAT WAT WAT WAT WAT WAT WAT WAT WAT WAT 
WAT WAT WAT WAT WAT WAT WAT WAT WAT WAT WAT WAT WAT WAT WAT WAT WAT WAT WAT WAT 
WAT WAT WAT WAT WAT WAT WAT WAT WAT WAT WAT WAT WAT WAT WAT WAT WAT WAT WAT WAT 
WAT WAT WAT WAT WAT WAT WAT WAT WAT WAT WAT WAT WAT WAT WAT WAT WAT WAT WAT WAT 
WAT WAT WAT WAT WAT WAT WAT WAT WAT WAT WAT WAT WAT WAT WAT WAT WAT WAT WAT WAT 
WAT WAT WAT WAT WAT WAT WAT WAT WAT WAT WAT WAT WAT WAT WAT WAT WAT WAT WAT WAT 
WAT WAT WAT WAT WAT WAT WAT WAT WAT WAT WAT WAT WAT WAT WAT WAT WAT WAT WAT WAT 
WAT WAT WAT WAT WAT WAT WAT WAT WAT WAT WAT WAT WAT WAT WAT WAT WAT WAT WAT WAT 
WAT WAT WAT WAT WAT WAT WAT WAT WAT WAT WAT WAT WAT WAT WAT WAT WAT WAT WAT WAT 
WAT WAT WAT WAT WAT WAT WAT WAT WAT WAT WAT WAT WAT WAT WAT WAT WAT WAT WAT WAT 
WAT WAT WAT WAT WAT WAT WAT WAT WAT WAT WAT WAT WAT WAT WAT WAT WAT WAT WAT WAT 
WAT WAT WAT WAT WAT WAT WAT WAT WAT WAT WAT WAT WAT WAT WAT WAT WAT WAT WAT WAT 
WAT WAT WAT WAT WAT WAT WAT WAT WAT WAT WAT WAT WAT WAT WAT WAT WAT WAT WAT WAT 
WAT WAT WAT WAT WAT WAT WAT WAT WAT WAT WAT WAT WAT WAT WAT WAT WAT WAT WAT WAT 
WAT WAT WAT WAT WAT WAT WAT WAT WAT WAT WAT WAT WAT WAT WAT WAT WAT WAT WAT WAT 
WAT WAT WAT WAT WAT WAT WAT WAT WAT WAT WAT WAT WAT WAT WAT WAT WAT WAT WAT WAT 
WAT WAT WAT WAT WAT WAT WAT WAT WAT WAT WAT WAT WAT WAT WAT WAT WAT WAT WAT WAT 
WAT WAT WAT WAT WAT WAT WAT WAT WAT WAT WAT WAT WAT WAT WAT WAT WAT WAT WAT WAT 
WAT WAT WAT WAT WAT WAT WAT WAT WAT WAT WAT WAT WAT WAT WAT WAT WAT WAT WAT WAT 
WAT WAT WAT WAT WAT WAT WAT WAT WAT WAT WAT WAT WAT WAT WAT WAT WAT WAT WAT WAT 
WAT WAT WAT WAT WAT WAT WAT WAT WAT WAT WAT WAT WAT WAT WAT WAT WAT WAT WAT WAT 
WAT WAT WAT WAT WAT WAT WAT WAT WAT WAT WAT WAT WAT WAT WAT WAT WAT WAT WAT WAT 
WAT WAT WAT WAT WAT WAT WAT WAT WAT WAT WAT WAT WAT WAT WAT WAT WAT WAT WAT WAT 
WAT WAT WAT WAT WAT WAT WAT WAT WAT WAT WAT WAT WAT WAT WAT WAT WAT WAT WAT WAT 
WAT WAT WAT WAT WAT WAT WAT WAT WAT WAT WAT WAT WAT WAT WAT WAT WAT WAT WAT WAT 
WAT WAT WAT WAT WAT WAT WAT WAT WAT WAT WAT WAT WAT WAT WAT WAT WAT WAT WAT WAT 
WAT WAT WAT WAT WAT WAT WAT WAT WAT WAT WAT WAT WAT WAT WAT WAT WAT WAT WAT WAT 
WAT WAT WAT WAT WAT WAT WAT WAT WAT WAT WAT WAT WAT WAT WAT WAT WAT WAT WAT WAT 
WAT WAT WAT WAT WAT WAT WAT WAT WAT WAT WAT WAT WAT WAT WAT WAT WAT WAT WAT WAT 
WAT WAT WAT WAT WAT WAT WAT WAT WAT WAT WAT WAT WAT WAT WAT WAT WAT WAT WAT WAT 
WAT WAT WAT WAT WAT WAT WAT WAT WAT WAT WAT WAT WAT WAT WAT WAT WAT WAT WAT WAT 
WAT WAT WAT WAT WAT WAT WAT WAT WAT WAT WAT WAT WAT WAT WAT WAT WAT WAT WAT WAT 
WAT WAT WAT WAT WAT WAT WAT WAT WAT WAT WAT WAT WAT WAT WAT WAT WAT WAT WAT WAT 
WAT WAT WAT WAT WAT WAT WAT WAT WAT WAT WAT WAT WAT WAT WAT WAT WAT WAT WAT WAT 
WAT WAT WAT WAT WAT WAT WAT WAT WAT WAT WAT WAT WAT WAT WAT WAT WAT WAT WAT WAT 
WAT WAT WAT WAT WAT WAT WAT WAT WAT WAT WAT WAT WAT WAT WAT WAT WAT WAT WAT WAT 
WAT WAT WAT WAT WAT WAT WAT WAT WAT WAT WAT WAT WAT WAT WAT WAT WAT WAT WAT WAT 
WAT WAT WAT WAT WAT WAT WAT WAT WAT WAT WAT WAT WAT WAT WAT WAT WAT WAT WAT WAT 
WAT WAT WAT WAT WAT WAT WAT WAT WAT WAT WAT WAT WAT WAT WAT WAT WAT WAT WAT WAT 
WAT WAT WAT WAT WAT WAT WAT WAT WAT WAT WAT WAT WAT WAT WAT WAT WAT WAT WAT WAT 
WAT WAT WAT WAT WAT WAT WAT WAT WAT WAT WAT WAT WAT WAT WAT WAT WAT WAT WAT WAT 
WAT WAT WAT WAT WAT WAT WAT WAT WAT WAT WAT WAT WAT WAT WAT WAT WAT WAT WAT WAT 
WAT WAT WAT WAT WAT WAT WAT WAT WAT WAT WAT WAT WAT WAT WAT WAT WAT WAT WAT WAT 
WAT WAT WAT WAT WAT WAT WAT WAT WAT WAT WAT WAT WAT WAT WAT WAT WAT WAT WAT WAT 
WAT WAT WAT WAT WAT WAT WAT WAT WAT WAT WAT WAT WAT WAT WAT WAT WAT WAT WAT WAT 
WAT WAT WAT WAT WAT WAT WAT WAT WAT WAT WAT WAT WAT WAT WAT WAT WAT WAT WAT WAT 
WAT WAT WAT WAT WAT WAT WAT WAT WAT WAT WAT WAT WAT WAT WAT WAT WAT WAT WAT WAT 
WAT WAT WAT WAT WAT WAT WAT WAT WAT WAT WAT WAT WAT WAT WAT WAT WAT WAT WAT WAT 
WAT WAT WAT WAT WAT WAT WAT WAT WAT WAT WAT WAT WAT WAT WAT WAT WAT WAT WAT WAT 
WAT WAT WAT WAT WAT WAT WAT WAT WAT WAT WAT WAT WAT WAT WAT WAT WAT WAT WAT WAT 
WAT WAT WAT WAT WAT WAT WAT WAT WAT WAT WAT WAT WAT WAT WAT WAT WAT WAT WAT WAT 
WAT WAT WAT WAT WAT WAT WAT WAT WAT WAT WAT WAT WAT WAT WAT WAT WAT WAT WAT WAT 
WAT WAT WAT WAT WAT WAT WAT WAT WAT WAT WAT WAT WAT WAT WAT WAT WAT WAT WAT WAT 
WAT WAT WAT WAT WAT WAT WAT WAT WAT WAT WAT WAT WAT WAT WAT WAT WAT WAT WAT WAT 
WAT WAT WAT WAT WAT WAT WAT WAT WAT WAT WAT WAT WAT WAT WAT WAT WAT WAT WAT WAT 
WAT WAT WAT WAT WAT WAT WAT WAT WAT WAT WAT WAT WAT WAT WAT WAT WAT WAT WAT WAT 
WAT WAT WAT WAT WAT WAT WAT WAT WAT WAT WAT WAT WAT WAT WAT WAT WAT WAT WAT WAT 
WAT WAT WAT WAT WAT WAT WAT WAT WAT WAT WAT WAT WAT WAT WAT WAT WAT WAT WAT WAT 
WAT WAT WAT WAT WAT WAT WAT WAT WAT WAT WAT WAT WAT WAT WAT WAT WAT WAT WAT WAT 
WAT WAT WAT WAT WAT WAT WAT WAT WAT WAT WAT WAT WAT WAT WAT WAT WAT WAT WAT WAT 
WAT WAT WAT WAT WAT WAT WAT WAT WAT WAT WAT WAT WAT WAT WAT WAT WAT WAT WAT WAT 
WAT WAT WAT WAT WAT WAT WAT WAT WAT WAT WAT WAT WAT WAT WAT WAT WAT WAT WAT WAT 
WAT WAT WAT WAT WAT WAT WAT WAT WAT WAT WAT WAT WAT WAT WAT WAT WAT WAT WAT WAT 
WAT WAT WAT WAT WAT WAT WAT WAT WAT WAT WAT WAT WAT WAT WAT WAT WAT WAT WAT WAT 
WAT WAT WAT WAT WAT WAT WAT WAT WAT WAT WAT WAT WAT WAT WAT WAT WAT WAT WAT WAT 
WAT WAT WAT WAT WAT WAT WAT WAT WAT WAT WAT WAT WAT WAT WAT WAT WAT WAT WAT WAT 
WAT WAT WAT WAT WAT WAT WAT WAT WAT WAT WAT WAT WAT WAT WAT WAT WAT WAT WAT WAT 
WAT WAT WAT WAT WAT WAT WAT WAT WAT WAT WAT WAT WAT WAT WAT WAT WAT WAT WAT WAT 
WAT WAT WAT WAT WAT WAT WAT WAT WAT WAT WAT WAT WAT WAT WAT WAT WAT WAT WAT WAT 
WAT WAT WAT WAT WAT WAT WAT WAT WAT WAT WAT WAT WAT WAT WAT WAT WAT WAT WAT WAT 
WAT WAT WAT WAT WAT WAT WAT WAT WAT WAT WAT WAT WAT WAT WAT WAT WAT WAT WAT WAT 
WAT WAT WAT WAT WAT WAT WAT WAT WAT WAT WAT WAT WAT WAT WAT WAT WAT WAT WAT WAT 
WAT WAT WAT WAT WAT WAT WAT WAT WAT WAT WAT WAT WAT WAT WAT WAT WAT WAT WAT WAT 
WAT WAT WAT WAT WAT WAT WAT WAT WAT WAT WAT WAT WAT WAT WAT WAT WAT WAT WAT WAT 
WAT WAT WAT WAT WAT WAT WAT WAT WAT WAT WAT WAT WAT WAT WAT WAT WAT WAT WAT WAT 
WAT WAT WAT WAT WAT WAT WAT WAT WAT WAT WAT WAT WAT WAT WAT WAT WAT WAT WAT WAT 
WAT WAT WAT WAT WAT WAT WAT WAT WAT WAT WAT WAT WAT WAT WAT WAT WAT WAT WAT WAT 
WAT WAT WAT WAT WAT WAT WAT WAT WAT WAT WAT WAT WAT WAT WAT WAT WAT WAT WAT WAT 
WAT WAT WAT WAT WAT WAT WAT WAT WAT WAT WAT WAT WAT WAT WAT WAT WAT WAT WAT WAT 
WAT WAT WAT WAT WAT WAT WAT WAT WAT WAT WAT WAT WAT WAT WAT WAT WAT WAT WAT WAT 
WAT WAT WAT WAT WAT WAT WAT WAT WAT WAT WAT WAT WAT WAT WAT WAT WAT WAT WAT WAT 
WAT WAT WAT WAT WAT WAT WAT WAT WAT WAT WAT WAT WAT WAT WAT WAT WAT WAT WAT WAT 
WAT WAT WAT WAT WAT WAT WAT WAT WAT WAT WAT WAT WAT WAT WAT WAT WAT WAT WAT WAT 
WAT WAT WAT WAT WAT WAT WAT WAT WAT WAT WAT WAT WAT WAT WAT WAT WAT WAT WAT WAT 
WAT WAT WAT WAT WAT WAT WAT WAT WAT WAT WAT WAT WAT WAT WAT WAT WAT WAT WAT WAT 
WAT WAT WAT WAT WAT WAT WAT WAT WAT WAT WAT WAT WAT WAT WAT WAT WAT WAT WAT WAT 
WAT WAT WAT WAT WAT WAT WAT WAT WAT WAT WAT WAT WAT WAT WAT WAT WAT WAT WAT WAT 
WAT WAT WAT WAT WAT WAT WAT WAT WAT WAT WAT WAT WAT WAT WAT WAT WAT WAT WAT WAT 
WAT WAT WAT WAT WAT WAT WAT WAT WAT WAT WAT WAT WAT WAT WAT WAT WAT WAT WAT WAT 
WAT WAT WAT WAT WAT WAT WAT WAT WAT WAT WAT WAT WAT WAT WAT WAT WAT WAT WAT WAT 
WAT WAT WAT WAT WAT WAT WAT WAT WAT WAT WAT WAT WAT WAT WAT WAT WAT WAT WAT WAT 
WAT WAT WAT WAT WAT WAT WAT WAT WAT WAT WAT WAT WAT WAT WAT WAT WAT WAT WAT WAT 
WAT WAT WAT WAT WAT WAT WAT WAT WAT WAT WAT WAT WAT WAT WAT WAT WAT WAT WAT WAT 
WAT WAT WAT WAT WAT WAT WAT WAT WAT WAT WAT WAT WAT WAT WAT WAT WAT WAT WAT WAT 
WAT WAT WAT WAT WAT WAT WAT WAT WAT WAT WAT WAT WAT WAT WAT WAT WAT WAT WAT WAT 
WAT WAT WAT WAT WAT WAT WAT WAT WAT WAT WAT WAT WAT WAT WAT WAT WAT WAT WAT WAT 
WAT WAT WAT WAT WAT WAT WAT WAT WAT WAT WAT WAT WAT WAT WAT WAT WAT WAT WAT WAT 
WAT WAT WAT WAT WAT WAT WAT WAT WAT WAT WAT WAT WAT WAT WAT WAT WAT WAT WAT WAT 
WAT WAT WAT WAT WAT WAT WAT WAT WAT WAT WAT WAT WAT WAT WAT WAT WAT WAT WAT WAT 
WAT WAT WAT WAT WAT WAT WAT WAT WAT WAT WAT WAT WAT WAT WAT WAT WAT WAT WAT WAT 
WAT WAT WAT WAT WAT WAT WAT WAT WAT WAT WAT WAT WAT WAT WAT WAT WAT WAT WAT WAT 
WAT WAT WAT WAT WAT WAT WAT WAT WAT WAT WAT WAT WAT WAT WAT WAT WAT WAT WAT WAT 
WAT WAT WAT WAT WAT WAT WAT WAT WAT WAT WAT WAT WAT WAT WAT WAT WAT WAT WAT WAT 
WAT WAT WAT WAT WAT WAT WAT WAT WAT WAT WAT WAT WAT WAT WAT WAT WAT WAT WAT WAT 
WAT WAT WAT WAT WAT WAT WAT WAT WAT WAT WAT WAT WAT WAT WAT WAT WAT WAT WAT WAT 
WAT WAT WAT WAT WAT WAT WAT WAT WAT WAT WAT WAT WAT WAT WAT WAT WAT WAT WAT WAT 
WAT WAT WAT WAT WAT WAT WAT WAT WAT WAT WAT WAT WAT WAT WAT WAT WAT WAT WAT WAT 
WAT WAT WAT WAT WAT WAT WAT WAT WAT WAT WAT WAT WAT WAT WAT WAT WAT WAT WAT WAT 
WAT WAT WAT WAT WAT WAT WAT WAT WAT WAT WAT WAT WAT WAT WAT WAT WAT WAT WAT WAT 
WAT WAT WAT WAT WAT WAT WAT WAT WAT WAT WAT WAT WAT WAT WAT WAT WAT WAT WAT WAT 
WAT WAT WAT WAT WAT WAT WAT WAT WAT WAT WAT WAT WAT WAT WAT WAT WAT WAT WAT WAT 
WAT WAT WAT WAT WAT WAT WAT WAT WAT WAT WAT WAT WAT WAT WAT WAT WAT WAT WAT WAT 
WAT WAT WAT WAT WAT WAT WAT WAT WAT WAT WAT WAT WAT WAT WAT WAT WAT WAT WAT WAT 
WAT WAT WAT WAT WAT WAT WAT WAT WAT WAT WAT WAT WAT WAT WAT WAT WAT WAT WAT WAT 
WAT WAT WAT WAT WAT WAT WAT WAT WAT WAT WAT WAT WAT WAT WAT WAT WAT WAT WAT WAT 
WAT WAT WAT WAT WAT WAT WAT WAT WAT WAT WAT WAT WAT WAT WAT WAT WAT WAT WAT WAT 
WAT WAT WAT WAT WAT WAT WAT WAT WAT WAT WAT WAT WAT WAT WAT WAT WAT WAT WAT WAT 
WAT WAT WAT WAT WAT WAT WAT WAT WAT WAT WAT WAT WAT WAT WAT WAT WAT WAT WAT WAT 
WAT WAT WAT WAT WAT WAT WAT WAT WAT WAT WAT WAT WAT WAT WAT WAT WAT WAT WAT WAT 
WAT WAT WAT WAT WAT WAT WAT WAT WAT WAT WAT WAT WAT WAT WAT WAT WAT WAT WAT WAT 
WAT WAT WAT WAT WAT WAT WAT WAT WAT WAT WAT WAT WAT WAT WAT WAT WAT WAT WAT WAT 
WAT WAT WAT WAT WAT WAT WAT WAT WAT WAT WAT WAT WAT WAT WAT WAT WAT WAT WAT WAT 
WAT WAT WAT WAT WAT WAT WAT WAT WAT WAT WAT WAT WAT WAT WAT WAT WAT WAT WAT WAT 
WAT WAT WAT WAT WAT WAT WAT WAT WAT WAT WAT WAT WAT WAT WAT WAT WAT WAT WAT WAT 
WAT WAT WAT WAT WAT WAT WAT WAT WAT WAT WAT WAT WAT WAT WAT WAT WAT WAT WAT WAT 
WAT WAT WAT WAT WAT WAT WAT WAT WAT WAT WAT WAT WAT WAT WAT WAT WAT WAT WAT WAT 
WAT WAT WAT WAT WAT WAT WAT WAT WAT WAT WAT WAT WAT WAT WAT WAT WAT WAT WAT WAT 
WAT WAT WAT WAT WAT WAT WAT WAT WAT WAT WAT WAT WAT WAT WAT WAT WAT WAT WAT WAT 
WAT WAT WAT WAT WAT WAT WAT WAT WAT WAT WAT WAT WAT WAT WAT WAT WAT WAT WAT WAT 
WAT WAT WAT WAT WAT WAT WAT WAT WAT WAT WAT WAT WAT WAT WAT WAT WAT WAT WAT WAT 
WAT WAT WAT WAT WAT WAT WAT WAT WAT WAT WAT WAT WAT WAT WAT WAT WAT WAT WAT WAT 
WAT WAT WAT WAT WAT WAT WAT WAT WAT WAT WAT WAT WAT WAT WAT WAT WAT WAT WAT WAT 
WAT WAT WAT WAT WAT WAT WAT WAT WAT WAT WAT WAT WAT WAT WAT WAT WAT WAT WAT WAT 
WAT WAT WAT WAT WAT WAT WAT WAT WAT WAT WAT WAT WAT WAT WAT WAT WAT WAT WAT WAT 
WAT WAT WAT WAT WAT WAT WAT WAT WAT WAT WAT WAT WAT WAT WAT WAT WAT WAT WAT WAT 
WAT WAT WAT WAT WAT WAT WAT WAT WAT WAT WAT WAT WAT WAT WAT WAT WAT WAT WAT WAT 
WAT WAT WAT WAT WAT WAT WAT WAT WAT WAT WAT WAT WAT WAT WAT WAT WAT WAT WAT WAT 
WAT WAT WAT WAT WAT WAT WAT WAT WAT WAT WAT WAT WAT WAT WAT WAT WAT WAT WAT WAT 
WAT WAT WAT WAT WAT WAT WAT WAT WAT WAT WAT WAT WAT WAT WAT WAT WAT WAT WAT WAT 
WAT WAT WAT WAT WAT WAT WAT WAT WAT WAT WAT WAT WAT WAT WAT WAT WAT WAT WAT WAT 
WAT WAT WAT WAT WAT WAT WAT WAT WAT WAT WAT WAT WAT WAT WAT WAT WAT WAT WAT WAT 
WAT WAT WAT WAT WAT WAT WAT WAT WAT WAT WAT WAT WAT WAT WAT WAT WAT WAT WAT WAT 
WAT WAT WAT WAT WAT WAT WAT WAT WAT WAT WAT WAT WAT WAT WAT WAT WAT WAT WAT WAT 
WAT WAT WAT WAT WAT WAT WAT WAT WAT WAT WAT WAT WAT WAT WAT WAT WAT WAT WAT WAT 
WAT WAT WAT WAT WAT WAT WAT WAT WAT WAT WAT WAT WAT WAT WAT WAT WAT WAT WAT WAT 
WAT WAT WAT WAT WAT WAT WAT WAT WAT WAT WAT WAT WAT WAT WAT WAT WAT WAT WAT WAT 
WAT WAT WAT WAT WAT WAT WAT WAT WAT WAT WAT WAT WAT WAT WAT WAT WAT WAT WAT WAT 
WAT WAT WAT WAT WAT WAT WAT WAT WAT WAT WAT WAT WAT WAT WAT WAT WAT WAT WAT WAT 
WAT WAT WAT WAT WAT WAT WAT WAT WAT WAT WAT WAT WAT WAT WAT WAT WAT WAT WAT WAT 
WAT WAT WAT WAT WAT WAT WAT WAT WAT WAT WAT WAT WAT WAT WAT WAT WAT WAT WAT WAT 
WAT WAT WAT WAT WAT WAT WAT WAT WAT WAT WAT WAT WAT WAT WAT WAT WAT WAT WAT WAT 
WAT WAT WAT WAT WAT WAT WAT WAT WAT WAT WAT WAT WAT WAT WAT WAT WAT WAT WAT WAT 
WAT WAT WAT WAT WAT WAT WAT WAT WAT WAT WAT WAT WAT WAT WAT WAT WAT WAT WAT WAT 
WAT WAT WAT WAT WAT WAT WAT WAT WAT WAT WAT WAT WAT WAT WAT WAT WAT WAT WAT WAT 
WAT WAT WAT WAT WAT WAT WAT WAT WAT WAT WAT WAT WAT WAT WAT WAT WAT WAT WAT WAT 
WAT WAT WAT WAT WAT WAT WAT WAT WAT WAT WAT WAT WAT WAT WAT WAT WAT WAT WAT WAT 
WAT WAT WAT WAT WAT WAT WAT WAT WAT WAT WAT WAT WAT WAT WAT WAT WAT WAT WAT WAT 
WAT WAT WAT WAT WAT WAT WAT WAT WAT WAT WAT WAT WAT WAT WAT WAT WAT WAT WAT WAT 
WAT WAT WAT WAT WAT WAT WAT WAT WAT WAT WAT WAT WAT WAT WAT WAT WAT WAT WAT WAT 
WAT WAT WAT WAT WAT WAT WAT WAT WAT WAT WAT WAT WAT WAT WAT WAT WAT WAT WAT WAT 
WAT WAT WAT WAT WAT WAT WAT WAT WAT WAT WAT WAT WAT WAT WAT WAT WAT WAT WAT WAT 
WAT WAT WAT WAT WAT WAT WAT WAT WAT WAT WAT WAT WAT WAT WAT WAT WAT WAT WAT WAT 
WAT WAT WAT WAT WAT WAT WAT WAT WAT WAT WAT WAT WAT WAT WAT WAT WAT WAT WAT WAT 
WAT WAT WAT WAT WAT WAT WAT WAT WAT WAT WAT WAT WAT WAT WAT WAT WAT WAT WAT WAT 
WAT WAT WAT WAT WAT WAT WAT WAT WAT WAT WAT WAT WAT WAT WAT WAT WAT WAT WAT WAT 
WAT WAT WAT WAT WAT WAT WAT WAT WAT WAT WAT WAT WAT WAT WAT WAT WAT WAT WAT WAT 
WAT WAT WAT WAT WAT WAT WAT WAT WAT WAT WAT WAT WAT WAT WAT WAT WAT WAT WAT WAT 
WAT WAT WAT WAT WAT WAT WAT WAT WAT WAT WAT WAT WAT WAT WAT WAT WAT WAT WAT WAT 
WAT WAT WAT WAT WAT WAT WAT WAT WAT WAT WAT WAT WAT WAT WAT WAT WAT WAT WAT WAT 
WAT WAT WAT WAT WAT WAT WAT WAT WAT WAT WAT WAT WAT WAT WAT WAT WAT WAT WAT WAT 
WAT WAT WAT WAT WAT WAT WAT WAT WAT WAT WAT WAT WAT WAT WAT WAT WAT WAT WAT WAT 
WAT WAT WAT WAT WAT WAT WAT WAT WAT WAT WAT WAT WAT WAT WAT WAT WAT WAT WAT WAT 
WAT WAT WAT WAT WAT WAT WAT WAT WAT WAT WAT WAT WAT WAT WAT WAT WAT WAT WAT WAT 
WAT WAT WAT WAT WAT WAT WAT WAT WAT WAT WAT WAT WAT WAT WAT WAT WAT WAT WAT WAT 
WAT WAT WAT WAT WAT WAT WAT WAT WAT WAT WAT WAT WAT WAT WAT WAT WAT WAT WAT WAT 
WAT WAT WAT WAT WAT WAT WAT WAT WAT WAT WAT WAT WAT WAT WAT WAT WAT WAT WAT WAT 
WAT WAT WAT WAT WAT WAT WAT WAT WAT WAT WAT WAT WAT WAT WAT WAT WAT WAT WAT WAT 
WAT WAT WAT WAT WAT WAT WAT WAT WAT WAT WAT WAT WAT WAT WAT WAT WAT WAT WAT WAT 
WAT WAT WAT WAT WAT WAT WAT WAT WAT WAT WAT WAT WAT WAT WAT WAT WAT WAT WAT WAT 
WAT WAT WAT WAT WAT WAT WAT WAT WAT WAT WAT WAT WAT WAT WAT WAT WAT WAT WAT WAT 
WAT WAT WAT WAT WAT WAT WAT WAT WAT WAT WAT WAT WAT WAT WAT WAT WAT WAT WAT WAT 
WAT WAT WAT WAT WAT WAT WAT WAT WAT WAT WAT WAT WAT WAT WAT WAT WAT WAT WAT WAT 
WAT WAT WAT WAT WAT WAT WAT WAT WAT WAT WAT WAT WAT WAT WAT WAT WAT WAT WAT WAT 
WAT WAT WAT WAT WAT WAT WAT WAT WAT WAT WAT WAT WAT WAT WAT WAT WAT WAT WAT WAT 
WAT WAT WAT WAT WAT WAT WAT WAT WAT WAT WAT WAT WAT WAT WAT WAT WAT WAT WAT WAT 
WAT WAT WAT WAT WAT WAT WAT WAT WAT WAT WAT WAT WAT WAT WAT WAT WAT WAT WAT WAT 
WAT WAT WAT WAT WAT WAT WAT WAT WAT WAT WAT WAT WAT WAT WAT WAT WAT WAT WAT WAT 
WAT WAT WAT WAT WAT WAT WAT WAT WAT WAT WAT WAT WAT WAT WAT WAT WAT WAT WAT WAT 
WAT WAT WAT WAT WAT WAT WAT WAT WAT WAT WAT WAT WAT WAT WAT WAT WAT WAT WAT WAT 
WAT WAT WAT WAT WAT WAT WAT WAT WAT WAT WAT WAT WAT WAT WAT WAT WAT WAT WAT WAT 
WAT WAT WAT WAT WAT WAT WAT WAT WAT WAT WAT WAT WAT WAT WAT WAT WAT WAT WAT WAT 
WAT WAT WAT WAT WAT WAT WAT WAT WAT WAT WAT WAT WAT WAT WAT WAT WAT WAT WAT WAT 
WAT WAT WAT WAT WAT WAT WAT WAT WAT WAT WAT WAT WAT WAT WAT WAT WAT WAT WAT WAT 
WAT WAT WAT WAT WAT WAT WAT WAT WAT WAT WAT WAT WAT WAT WAT WAT WAT WAT WAT WAT 
WAT WAT WAT WAT WAT WAT WAT WAT WAT WAT WAT WAT WAT WAT WAT WAT WAT WAT WAT WAT 
WAT WAT WAT WAT WAT WAT WAT WAT WAT WAT WAT WAT WAT WAT WAT WAT WAT WAT WAT WAT 
WAT WAT WAT WAT WAT WAT WAT WAT WAT WAT WAT WAT WAT WAT WAT WAT WAT WAT WAT WAT 
WAT WAT WAT WAT WAT WAT WAT WAT WAT WAT WAT WAT WAT WAT WAT WAT WAT WAT WAT WAT 
WAT WAT WAT WAT WAT WAT WAT WAT WAT WAT WAT WAT WAT WAT WAT WAT WAT WAT WAT WAT 
WAT WAT WAT WAT WAT WAT WAT WAT WAT WAT WAT WAT WAT WAT WAT WAT WAT WAT WAT WAT 
WAT WAT WAT WAT WAT WAT WAT WAT WAT WAT WAT WAT WAT WAT WAT WAT WAT WAT WAT WAT 
WAT WAT WAT WAT WAT WAT WAT WAT WAT WAT WAT WAT WAT WAT WAT WAT WAT WAT WAT WAT 
WAT WAT WAT WAT WAT WAT WAT WAT WAT WAT WAT WAT WAT WAT WAT WAT WAT WAT WAT WAT 
WAT WAT WAT WAT WAT WAT WAT WAT WAT WAT WAT WAT WAT WAT WAT WAT WAT WAT WAT WAT 
WAT WAT WAT WAT WAT WAT WAT WAT WAT WAT WAT WAT WAT WAT WAT WAT WAT WAT WAT WAT 
WAT WAT WAT WAT WAT WAT WAT WAT WAT WAT WAT WAT WAT WAT WAT WAT WAT WAT WAT WAT 
WAT WAT WAT WAT WAT WAT WAT WAT WAT WAT WAT WAT WAT WAT WAT WAT WAT WAT WAT WAT 
WAT WAT WAT WAT WAT WAT WAT WAT WAT WAT WAT WAT WAT WAT WAT WAT WAT WAT WAT WAT 
WAT WAT WAT WAT WAT WAT WAT WAT WAT WAT WAT WAT WAT WAT WAT WAT WAT WAT WAT WAT 
WAT WAT WAT WAT WAT WAT WAT WAT WAT WAT WAT WAT WAT WAT WAT WAT WAT WAT WAT WAT 
WAT WAT WAT WAT WAT WAT WAT WAT WAT WAT WAT WAT WAT WAT WAT WAT WAT WAT WAT WAT 
WAT WAT WAT WAT WAT WAT WAT WAT WAT WAT WAT WAT WAT WAT WAT WAT WAT WAT WAT WAT 
WAT WAT WAT WAT WAT WAT WAT WAT WAT WAT WAT WAT WAT WAT WAT WAT WAT WAT WAT WAT 
WAT WAT WAT WAT WAT WAT WAT WAT WAT WAT WAT WAT WAT WAT WAT WAT WAT WAT WAT WAT 
WAT WAT WAT WAT WAT WAT WAT WAT WAT WAT WAT WAT WAT WAT WAT WAT WAT WAT WAT WAT 
WAT WAT WAT WAT WAT WAT WAT WAT WAT WAT WAT WAT WAT WAT WAT WAT WAT WAT WAT WAT 
WAT WAT WAT WAT WAT WAT WAT WAT WAT WAT WAT WAT WAT WAT WAT WAT WAT WAT WAT WAT 
WAT WAT WAT WAT WAT WAT WAT WAT WAT WAT WAT WAT WAT WAT WAT WAT WAT WAT WAT WAT 
WAT WAT WAT WAT WAT WAT WAT WAT WAT WAT WAT WAT WAT WAT WAT WAT WAT WAT WAT WAT 
WAT WAT WAT WAT WAT WAT WAT WAT WAT WAT WAT WAT WAT WAT WAT WAT WAT WAT WAT WAT 
WAT WAT WAT WAT WAT WAT WAT WAT WAT WAT WAT WAT WAT WAT WAT WAT WAT WAT WAT WAT 
WAT WAT WAT WAT WAT WAT WAT WAT WAT WAT WAT WAT WAT WAT WAT WAT WAT WAT WAT WAT 
WAT WAT WAT WAT WAT WAT WAT WAT WAT WAT WAT WAT WAT WAT WAT WAT WAT WAT WAT WAT 
WAT WAT WAT WAT WAT WAT WAT WAT WAT WAT WAT WAT WAT WAT WAT WAT WAT WAT WAT WAT 
WAT WAT WAT WAT WAT WAT WAT WAT WAT WAT WAT WAT WAT WAT WAT WAT WAT WAT WAT WAT 
WAT WAT WAT WAT WAT WAT WAT WAT WAT WAT WAT WAT WAT WAT WAT WAT WAT WAT WAT WAT 
WAT WAT WAT WAT WAT WAT WAT WAT WAT WAT WAT WAT WAT WAT WAT WAT WAT WAT WAT WAT 
WAT WAT WAT WAT WAT WAT WAT WAT WAT WAT WAT WAT WAT WAT WAT WAT WAT WAT WAT WAT 
WAT WAT WAT WAT WAT WAT WAT WAT WAT WAT WAT WAT WAT WAT WAT WAT WAT WAT WAT WAT 
WAT WAT WAT WAT WAT WAT WAT WAT WAT WAT WAT WAT WAT WAT WAT WAT WAT WAT WAT WAT 
WAT WAT WAT WAT WAT WAT WAT WAT WAT WAT WAT WAT WAT WAT WAT WAT WAT WAT WAT WAT 
WAT WAT WAT WAT WAT WAT WAT WAT WAT WAT WAT WAT WAT WAT WAT WAT WAT WAT WAT WAT 
WAT WAT WAT WAT WAT WAT WAT WAT WAT WAT WAT WAT WAT WAT WAT WAT WAT WAT WAT WAT 
WAT WAT WAT WAT WAT WAT WAT WAT WAT WAT WAT WAT WAT WAT WAT WAT WAT WAT WAT WAT 
WAT WAT WAT WAT WAT WAT WAT WAT WAT WAT WAT WAT WAT WAT WAT WAT WAT WAT WAT WAT 
WAT WAT WAT WAT WAT WAT WAT WAT WAT WAT WAT WAT WAT WAT WAT WAT WAT WAT WAT WAT 
WAT WAT WAT WAT WAT WAT WAT WAT WAT WAT WAT WAT WAT WAT WAT WAT WAT WAT WAT WAT 
WAT WAT WAT WAT WAT WAT WAT WAT WAT WAT WAT WAT WAT WAT WAT WAT WAT WAT WAT WAT 
WAT WAT WAT WAT WAT WAT WAT WAT WAT WAT WAT WAT WAT WAT WAT WAT WAT WAT WAT WAT 
WAT WAT WAT WAT WAT WAT WAT WAT WAT WAT WAT WAT WAT WAT WAT WAT WAT WAT WAT WAT 
WAT WAT WAT WAT WAT WAT WAT WAT WAT WAT WAT WAT WAT WAT WAT WAT WAT WAT WAT WAT 
WAT WAT WAT WAT WAT WAT WAT WAT WAT WAT WAT WAT WAT WAT WAT WAT WAT WAT WAT WAT 
WAT WAT WAT WAT WAT WAT WAT WAT WAT WAT WAT WAT WAT WAT WAT WAT WAT WAT WAT WAT 
WAT WAT WAT WAT WAT WAT WAT WAT WAT WAT WAT WAT WAT WAT WAT WAT WAT WAT WAT WAT 
WAT WAT WAT WAT WAT WAT WAT WAT WAT WAT WAT WAT WAT WAT WAT WAT WAT WAT WAT WAT 
WAT WAT WAT WAT WAT WAT WAT WAT WAT WAT WAT WAT WAT WAT WAT WAT WAT WAT WAT WAT 
WAT WAT WAT WAT WAT WAT WAT WAT WAT WAT WAT WAT WAT WAT WAT WAT WAT WAT WAT WAT 
WAT WAT WAT WAT WAT WAT WAT WAT WAT WAT WAT WAT WAT WAT WAT WAT WAT WAT WAT WAT 
WAT WAT WAT WAT WAT WAT WAT WAT WAT WAT WAT WAT WAT WAT WAT WAT WAT WAT WAT WAT 
WAT WAT WAT WAT WAT WAT WAT WAT WAT WAT WAT WAT WAT WAT WAT WAT WAT WAT WAT WAT 
WAT WAT WAT WAT WAT WAT WAT WAT WAT WAT WAT WAT WAT WAT WAT WAT WAT WAT WAT WAT 
WAT WAT WAT WAT WAT WAT WAT WAT WAT WAT WAT WAT WAT WAT WAT WAT WAT WAT WAT WAT 
WAT WAT WAT WAT WAT WAT WAT WAT WAT WAT WAT WAT WAT WAT WAT WAT WAT WAT WAT WAT 
WAT WAT WAT WAT WAT WAT WAT WAT WAT WAT WAT WAT WAT WAT WAT WAT WAT WAT WAT WAT 
WAT WAT WAT WAT WAT WAT WAT WAT WAT WAT WAT WAT WAT WAT WAT WAT WAT WAT WAT WAT 
WAT WAT WAT WAT WAT WAT WAT WAT WAT WAT WAT WAT WAT WAT WAT WAT WAT WAT WAT WAT 
WAT WAT WAT WAT WAT WAT WAT WAT WAT WAT WAT WAT WAT WAT WAT WAT WAT WAT WAT WAT 
WAT WAT WAT WAT WAT WAT WAT WAT WAT WAT WAT WAT WAT WAT WAT WAT WAT WAT WAT WAT 
WAT WAT WAT WAT WAT WAT WAT WAT WAT WAT WAT WAT WAT WAT WAT WAT WAT WAT WAT WAT 
WAT WAT WAT WAT WAT WAT WAT WAT WAT WAT WAT WAT WAT WAT WAT WAT WAT WAT WAT WAT 
WAT WAT WAT WAT WAT WAT WAT WAT WAT WAT WAT WAT WAT WAT WAT WAT WAT WAT WAT WAT 
WAT WAT WAT WAT WAT WAT WAT WAT WAT WAT WAT WAT WAT WAT WAT WAT WAT WAT WAT WAT 
WAT WAT WAT WAT WAT WAT WAT WAT WAT WAT WAT WAT WAT WAT WAT WAT WAT WAT WAT WAT 
WAT WAT WAT WAT WAT WAT WAT WAT WAT WAT WAT WAT WAT WAT WAT WAT WAT WAT WAT WAT 
WAT WAT WAT WAT WAT WAT WAT WAT WAT WAT WAT WAT WAT WAT WAT WAT WAT WAT WAT WAT 
WAT WAT WAT WAT WAT WAT WAT WAT WAT WAT WAT WAT WAT WAT WAT WAT WAT WAT WAT WAT 
WAT WAT WAT WAT WAT WAT WAT WAT WAT WAT WAT WAT WAT WAT WAT WAT WAT WAT WAT WAT 
WAT WAT WAT WAT WAT WAT WAT WAT WAT WAT WAT WAT WAT WAT WAT WAT WAT WAT WAT WAT 
WAT WAT WAT WAT WAT WAT WAT WAT WAT WAT WAT WAT WAT WAT WAT WAT WAT WAT WAT WAT 
WAT WAT WAT WAT WAT WAT WAT WAT WAT WAT WAT WAT WAT WAT WAT WAT WAT WAT WAT WAT 
WAT WAT WAT WAT WAT WAT WAT WAT WAT WAT WAT WAT WAT WAT WAT WAT WAT WAT WAT WAT 
WAT WAT WAT WAT WAT WAT WAT WAT WAT WAT WAT WAT WAT WAT WAT WAT WAT WAT WAT WAT 
WAT WAT WAT WAT WAT WAT WAT WAT WAT WAT WAT WAT WAT WAT WAT WAT WAT WAT WAT WAT 
WAT WAT WAT WAT WAT WAT WAT WAT WAT WAT WAT WAT WAT WAT WAT WAT WAT WAT WAT WAT 
WAT WAT WAT WAT WAT WAT WAT WAT WAT WAT WAT WAT WAT WAT WAT WAT WAT WAT WAT WAT 
WAT WAT WAT WAT WAT WAT WAT WAT WAT WAT WAT WAT WAT WAT WAT WAT WAT WAT WAT WAT 
WAT WAT WAT WAT WAT WAT WAT WAT WAT WAT WAT WAT WAT WAT WAT WAT WAT WAT WAT WAT 
WAT WAT WAT WAT WAT WAT WAT WAT WAT WAT WAT WAT WAT WAT WAT WAT WAT WAT WAT WAT 
WAT WAT WAT WAT WAT WAT WAT WAT WAT WAT WAT WAT WAT WAT WAT WAT WAT WAT WAT WAT 
WAT WAT WAT WAT WAT WAT WAT WAT WAT WAT WAT WAT WAT WAT WAT WAT WAT WAT WAT WAT 
WAT WAT WAT WAT WAT WAT WAT WAT WAT WAT WAT WAT WAT WAT WAT WAT WAT WAT WAT WAT 
WAT WAT WAT WAT WAT WAT WAT WAT WAT WAT WAT WAT WAT WAT WAT WAT WAT WAT WAT WAT 
WAT WAT WAT WAT WAT WAT WAT WAT WAT WAT WAT WAT WAT WAT WAT WAT WAT WAT WAT WAT 
WAT WAT WAT WAT WAT WAT WAT WAT WAT WAT WAT WAT WAT WAT WAT WAT WAT WAT WAT WAT 
WAT WAT WAT WAT WAT WAT WAT WAT WAT WAT WAT WAT WAT WAT WAT WAT WAT WAT WAT WAT 
WAT WAT WAT WAT WAT WAT WAT WAT WAT WAT WAT WAT WAT WAT WAT WAT WAT WAT WAT WAT 
WAT WAT WAT WAT WAT WAT WAT WAT WAT WAT WAT WAT WAT WAT WAT WAT WAT WAT WAT WAT 
WAT WAT WAT WAT WAT WAT WAT WAT WAT WAT WAT WAT WAT WAT WAT WAT WAT WAT WAT WAT 
WAT WAT WAT WAT WAT WAT WAT WAT WAT WAT WAT WAT WAT WAT WAT WAT WAT WAT WAT WAT 
WAT WAT WAT WAT WAT WAT WAT WAT WAT WAT WAT WAT WAT WAT WAT WAT WAT WAT WAT WAT 
WAT WAT WAT WAT WAT WAT WAT WAT WAT WAT WAT WAT WAT WAT WAT WAT WAT WAT WAT WAT 
WAT WAT WAT WAT WAT WAT WAT WAT WAT WAT WAT WAT WAT WAT WAT WAT WAT WAT WAT WAT 
WAT WAT WAT WAT WAT WAT WAT WAT WAT WAT WAT WAT WAT WAT WAT WAT WAT WAT WAT WAT 
WAT WAT WAT WAT WAT WAT WAT WAT WAT WAT WAT WAT WAT WAT WAT WAT WAT WAT WAT WAT 
WAT WAT WAT WAT WAT WAT WAT WAT WAT WAT WAT WAT WAT WAT WAT WAT WAT WAT WAT WAT 
WAT WAT WAT WAT WAT WAT WAT WAT WAT WAT WAT WAT WAT WAT WAT WAT WAT WAT WAT WAT 
WAT WAT WAT WAT WAT WAT WAT WAT WAT WAT WAT WAT WAT WAT WAT WAT WAT WAT WAT WAT 
WAT WAT WAT WAT WAT WAT WAT WAT WAT WAT WAT WAT WAT WAT WAT WAT WAT WAT WAT WAT 
WAT WAT WAT WAT WAT WAT WAT WAT WAT WAT WAT WAT WAT WAT WAT WAT WAT WAT WAT WAT 
WAT WAT WAT WAT WAT WAT WAT WAT WAT WAT WAT WAT WAT WAT WAT WAT WAT WAT WAT WAT 
WAT WAT WAT WAT WAT WAT WAT WAT WAT WAT WAT WAT WAT WAT WAT WAT WAT WAT WAT WAT 
WAT WAT WAT WAT WAT WAT WAT WAT WAT WAT WAT WAT WAT WAT WAT WAT WAT WAT WAT WAT 
WAT WAT WAT WAT WAT WAT WAT WAT WAT WAT WAT WAT WAT WAT WAT WAT WAT WAT WAT WAT 
WAT WAT WAT WAT WAT WAT WAT WAT WAT WAT WAT WAT WAT WAT WAT WAT WAT WAT WAT WAT 
WAT WAT WAT WAT WAT WAT WAT WAT WAT WAT WAT WAT WAT WAT WAT WAT WAT WAT WAT WAT 
WAT WAT WAT WAT WAT WAT WAT WAT WAT WAT WAT WAT WAT WAT WAT WAT WAT WAT WAT WAT 
WAT WAT WAT WAT WAT WAT WAT WAT WAT WAT WAT WAT WAT WAT WAT WAT WAT WAT WAT WAT 
WAT WAT WAT WAT WAT WAT WAT WAT WAT WAT WAT WAT WAT WAT WAT WAT WAT WAT WAT WAT 
WAT WAT WAT WAT WAT WAT WAT WAT WAT WAT WAT WAT WAT WAT WAT WAT WAT WAT WAT WAT 
WAT WAT WAT WAT WAT WAT WAT WAT WAT WAT WAT WAT WAT WAT WAT WAT WAT WAT WAT WAT 
WAT WAT WAT WAT WAT WAT WAT WAT WAT WAT WAT WAT WAT WAT WAT WAT WAT WAT WAT WAT 
WAT WAT WAT WAT WAT WAT WAT WAT WAT WAT WAT WAT WAT WAT WAT WAT WAT WAT WAT WAT 
WAT WAT WAT WAT WAT WAT WAT WAT WAT WAT WAT WAT WAT WAT WAT WAT WAT WAT WAT WAT 
WAT WAT WAT WAT WAT WAT WAT WAT WAT WAT WAT WAT WAT WAT WAT WAT WAT WAT WAT WAT 
WAT WAT WAT WAT WAT WAT WAT WAT WAT WAT WAT WAT WAT WAT WAT WAT WAT WAT WAT WAT 
WAT WAT WAT WAT WAT WAT WAT WAT WAT WAT WAT WAT WAT WAT WAT WAT WAT WAT WAT WAT 
WAT WAT WAT WAT WAT WAT WAT WAT WAT WAT WAT WAT WAT WAT WAT WAT WAT WAT WAT WAT 
WAT WAT WAT WAT WAT WAT WAT WAT WAT WAT WAT WAT WAT WAT WAT WAT WAT WAT WAT WAT 
WAT WAT WAT WAT WAT WAT WAT WAT WAT WAT WAT WAT WAT WAT WAT WAT WAT WAT WAT WAT 
WAT WAT WAT WAT WAT WAT WAT WAT WAT WAT WAT WAT WAT WAT WAT WAT WAT WAT WAT WAT 
WAT WAT WAT WAT WAT WAT WAT WAT WAT WAT WAT WAT WAT WAT WAT WAT WAT WAT WAT WAT 
WAT WAT WAT WAT WAT WAT WAT WAT WAT WAT WAT WAT WAT WAT WAT WAT WAT WAT WAT WAT 
WAT WAT WAT WAT WAT WAT WAT WAT WAT WAT WAT WAT WAT WAT WAT WAT WAT WAT WAT WAT 
WAT WAT WAT WAT WAT WAT WAT WAT WAT WAT WAT WAT WAT WAT WAT WAT WAT WAT WAT WAT 
WAT WAT WAT WAT WAT WAT WAT WAT WAT WAT WAT WAT WAT WAT WAT WAT WAT WAT WAT WAT 
WAT WAT WAT WAT WAT WAT WAT WAT WAT WAT WAT WAT WAT WAT WAT WAT WAT WAT WAT WAT 
WAT WAT WAT WAT WAT WAT WAT WAT WAT WAT WAT WAT WAT WAT WAT WAT WAT WAT WAT WAT 
WAT WAT WAT WAT WAT WAT WAT WAT WAT WAT WAT WAT WAT WAT WAT WAT WAT WAT WAT WAT 
WAT WAT WAT WAT WAT WAT WAT WAT WAT WAT WAT WAT WAT WAT WAT WAT WAT WAT WAT WAT 
WAT WAT WAT WAT WAT WAT WAT WAT WAT WAT WAT WAT WAT WAT WAT WAT WAT WAT WAT WAT 
WAT WAT WAT WAT WAT WAT WAT WAT WAT WAT WAT WAT WAT WAT WAT WAT WAT WAT WAT WAT 
WAT WAT WAT WAT WAT WAT WAT WAT WAT WAT WAT WAT WAT WAT WAT WAT WAT WAT WAT WAT 
WAT WAT WAT WAT WAT WAT WAT WAT WAT WAT WAT WAT WAT WAT WAT WAT WAT WAT WAT WAT 
WAT WAT WAT WAT WAT WAT WAT WAT WAT WAT WAT WAT WAT WAT WAT WAT WAT WAT WAT WAT 
WAT WAT WAT WAT WAT WAT WAT WAT WAT WAT WAT WAT WAT WAT WAT WAT WAT WAT WAT WAT 
WAT WAT WAT WAT WAT WAT WAT WAT WAT WAT WAT WAT WAT WAT WAT WAT WAT WAT WAT WAT 
WAT WAT WAT WAT WAT WAT WAT WAT WAT WAT WAT WAT WAT WAT WAT WAT WAT WAT WAT WAT 
WAT WAT WAT WAT WAT WAT WAT WAT WAT WAT WAT WAT WAT WAT WAT WAT WAT WAT WAT WAT 
WAT WAT WAT WAT WAT WAT WAT WAT WAT WAT WAT WAT WAT WAT WAT WAT WAT WAT WAT WAT 
WAT WAT WAT WAT WAT WAT WAT WAT WAT WAT WAT WAT WAT WAT WAT WAT WAT WAT WAT WAT 
WAT WAT WAT WAT WAT WAT WAT WAT WAT WAT WAT WAT WAT WAT WAT WAT WAT WAT WAT WAT 
WAT WAT WAT WAT WAT WAT WAT WAT WAT WAT WAT WAT WAT WAT WAT WAT WAT WAT WAT WAT 
WAT WAT WAT WAT WAT WAT WAT WAT WAT WAT WAT WAT WAT WAT WAT WAT WAT WAT WAT WAT 
WAT WAT WAT WAT WAT WAT WAT WAT WAT WAT WAT WAT WAT WAT WAT WAT WAT WAT WAT WAT 
WAT WAT WAT WAT WAT WAT WAT WAT WAT WAT WAT WAT WAT WAT WAT WAT WAT WAT WAT WAT 
WAT WAT WAT WAT WAT WAT WAT WAT WAT WAT WAT WAT WAT WAT WAT WAT WAT WAT WAT WAT 
WAT WAT WAT WAT WAT WAT WAT WAT WAT WAT WAT WAT WAT WAT WAT WAT WAT WAT WAT WAT 
WAT WAT WAT WAT WAT WAT WAT WAT WAT WAT WAT WAT WAT WAT WAT WAT WAT WAT WAT WAT 
WAT WAT WAT WAT WAT WAT WAT WAT WAT WAT WAT WAT WAT WAT WAT WAT WAT WAT WAT WAT 
WAT WAT WAT WAT WAT WAT WAT WAT WAT WAT WAT WAT WAT WAT WAT WAT WAT WAT WAT WAT 
WAT WAT WAT WAT WAT WAT WAT WAT WAT WAT WAT WAT WAT WAT WAT WAT WAT WAT WAT WAT 
WAT WAT WAT WAT WAT WAT WAT WAT WAT WAT WAT 
%FLAG RESIDUE_POINTER
%FORMAT(10I8)
       1      10      29      45      64      81      91     101     115     126
     145     155     166     185     206     223     242     261     275     296
     306     321     343     359     373     390     408     427     437     444
     455     473     492     508     527     537     556     577     596     612
     622     629     648     672     679     699     719     740     754     768
     790     801     804     807     810     813     816     819     822     825
     828     831     834     837     840     843     846     849     852     855
     858     861     864     867     870     873     876     879     882     885
     888     891     894     897     900     903     906     909     912     915
     918     921     924     927     930     933     936     939     942     945
     948     951     954     957     960     963     966     969     972     975
     978     981     984     987     990     993     996     999    1002    1005
    1008    1011    1014    1017    1020    1023    1026    1029    1032    1035
    1038    1041    1044    1047    1050    1053    1056    1059    1062    1065
    1068    1071    1074    1077    1080    1083    1086    1089    1092    1095
    1098    1101    1104    1107    1110    1113    1116    1119    1122    1125
    1128    1131    1134    1137    1140    1143    1146    1149    1152    1155
    1158    1161    1164    1167    1170    1173    1176    1179    1182    1185
    1188    1191    1194    1197    1200    1203    1206    1209    1212    1215
    1218    1221    1224    1227    1230    1233    1236    1239    1242    1245
    1248    1251    1254    1257    1260    1263    1266    1269    1272    1275
    1278    1281    1284    1287    1290    1293    1296    1299    1302    1305
    1308    1311    1314    1317    1320    1323    1326    1329    1332    1335
    1338    1341    1344    1347    1350    1353    1356    1359    1362    1365
    1368    1371    1374    1377    1380    1383    1386    1389    1392    1395
    1398    1401    1404    1407    1410    1413    1416    1419    1422    1425
    1428    1431    1434    1437    1440    1443    1446    1449    1452    1455
    1458    1461    1464    1467    1470    1473    1476    1479    1482    1485
    1488    1491    1494    1497    1500    1503    1506    1509    1512    1515
    1518    1521    1524    1527    1530    1533    1536    1539    1542    1545
    1548    1551    1554    1557    1560    1563    1566    1569    1572    1575
    1578    1581    1584    1587    1590    1593    1596    1599    1602    1605
    1608    1611    1614    1617    1620    1623    1626    1629    1632    1635
    1638    1641    1644    1647    1650    1653    1656    1659    1662    1665
    1668    1671    1674    1677    1680    1683    1686    1689    1692    1695
    1698    1701    1704    1707    1710    1713    1716    1719    1722    1725
    1728    1731    1734    1737    1740    1743    1746    1749    1752    1755
    1758    1761    1764    1767    1770    1773    1776    1779    1782    1785
    1788    1791    1794    1797    1800    1803    1806    1809    1812    1815
    1818    1821    1824    1827    1830    1833    1836    1839    1842    1845
    1848    1851    1854    1857    1860    1863    1866    1869    1872    1875
    1878    1881    1884    1887    1890    1893    1896    1899    1902    1905
    1908    1911    1914    1917    1920    1923    1926    1929    1932    1935
    1938    1941    1944    1947    1950    1953    1956    1959    1962    1965
    1968    1971    1974    1977    1980    1983    1986    1989    1992    1995
    1998    2001    2004    2007    2010    2013    2016    2019    2022    2025
    2028    2031    2034    2037    2040    2043    2046    2049    2052    2055
    2058    2061    2064    2067    2070    2073    2076    2079    2082    2085
    2088    2091    2094    2097    2100    2103    2106    2109    2112    2115
    2118    2121    2124    2127    2130    2133    2136    2139    2142    2145
    2148    2151    2154    2157    2160    2163    2166    2169    2172    2175
    2178    2181    2184    2187    2190    2193    2196    2199    2202    2205
    2208    2211    2214    2217    2220    2223    2226    2229    2232    2235
    2238    2241    2244    2247    2250    2253    2256    2259    2262    2265
    2268    2271    2274    2277    2280    2283    2286    2289    2292    2295
    2298    2301    2304    2307    2310    2313    2316    2319    2322    2325
    2328    2331    2334    2337    2340    2343    2346    2349    2352    2355
    2358    2361    2364    2367    2370    2373    2376    2379    2382    2385
    2388    2391    2394    2397    2400    2403    2406    2409    2412    2415
    2418    2421    2424    2427    2430    2433    2436    2439    2442    2445
    2448    2451    2454    2457    2460    2463    2466    2469    2472    2475
    2478    2481    2484    2487    2490    2493    2496    2499    2502    2505
    2508    2511    2514    2517    2520    2523    2526    2529    2532    2535
    2538    2541    2544    2547    2550    2553    2556    2559    2562    2565
    2568    2571    2574    2577    2580    2583    2586    2589    2592    2595
    2598    2601    2604    2607    2610    2613    2616    2619    2622    2625
    2628    2631    2634    2637    2640    2643    2646    2649    2652    2655
    2658    2661    2664    2667    2670    2673    2676    2679    2682    2685
    2688    2691    2694    2697    2700    2703    2706    2709    2712    2715
    2718    2721    2724    2727    2730    2733    2736    2739    2742    2745
    2748    2751    2754    2757    2760    2763    2766    2769    2772    2775
    2778    2781    2784    2787    2790    2793    2796    2799    2802    2805
    2808    2811    2814    2817    2820    2823    2826    2829    2832    2835
    2838    2841    2844    2847    2850    2853    2856    2859    2862    2865
    2868    2871    2874    2877    2880    2883    2886    2889    2892    2895
    2898    2901    2904    2907    2910    2913    2916    2919    2922    2925
    2928    2931    2934    2937    2940    2943    2946    2949    2952    2955
    2958    2961    2964    2967    2970    2973    2976    2979    2982    2985
    2988    2991    2994    2997    3000    3003    3006    3009    3012    3015
    3018    3021    3024    3027    3030    3033    3036    3039    3042    3045
    3048    3051    3054    3057    3060    3063    3066    3069    3072    3075
    3078    3081    3084    3087    3090    3093    3096    3099    3102    3105
    3108    3111    3114    3117    3120    3123    3126    3129    3132    3135
    3138    3141    3144    3147    3150    3153    3156    3159    3162    3165
    3168    3171    3174    3177    3180    3183    3186    3189    3192    3195
    3198    3201    3204    3207    3210    3213    3216    3219    3222    3225
    3228    3231    3234    3237    3240    3243    3246    3249    3252    3255
    3258    3261    3264    3267    3270    3273    3276    3279    3282    3285
    3288    3291    3294    3297    3300    3303    3306    3309    3312    3315
    3318    3321    3324    3327    3330    3333    3336    3339    3342    3345
    3348    3351    3354    3357    3360    3363    3366    3369    3372    3375
    3378    3381    3384    3387    3390    3393    3396    3399    3402    3405
    3408    3411    3414    3417    3420    3423    3426    3429    3432    3435
    3438    3441    3444    3447    3450    3453    3456    3459    3462    3465
    3468    3471    3474    3477    3480    3483    3486    3489    3492    3495
    3498    3501    3504    3507    3510    3513    3516    3519    3522    3525
    3528    3531    3534    3537    3540    3543    3546    3549    3552    3555
    3558    3561    3564    3567    3570    3573    3576    3579    3582    3585
    3588    3591    3594    3597    3600    3603    3606    3609    3612    3615
    3618    3621    3624    3627    3630    3633    3636    3639    3642    3645
    3648    3651    3654    3657    3660    3663    3666    3669    3672    3675
    3678    3681    3684    3687    3690    3693    3696    3699    3702    3705
    3708    3711    3714    3717    3720    3723    3726    3729    3732    3735
    3738    3741    3744    3747    3750    3753    3756    3759    3762    3765
    3768    3771    3774    3777    3780    3783    3786    3789    3792    3795
    3798    3801    3804    3807    3810    3813    3816    3819    3822    3825
    3828    3831    3834    3837    3840    3843    3846    3849    3852    3855
    3858    3861    3864    3867    3870    3873    3876    3879    3882    3885
    3888    3891    3894    3897    3900    3903    3906    3909    3912    3915
    3918    3921    3924    3927    3930    3933    3936    3939    3942    3945
    3948    3951    3954    3957    3960    3963    3966    3969    3972    3975
    3978    3981    3984    3987    3990    3993    3996    3999    4002    4005
    4008    4011    4014    4017    4020    4023    4026    4029    4032    4035
    4038    4041    4044    4047    4050    4053    4056    4059    4062    4065
    4068    4071    4074    4077    4080    4083    4086    4089    4092    4095
    4098    4101    4104    4107    4110    4113    4116    4119    4122    4125
    4128    4131    4134    4137    4140    4143    4146    4149    4152    4155
    4158    4161    4164    4167    4170    4173    4176    4179    4182    4185
    4188    4191    4194    4197    4200    4203    4206    4209    4212    4215
    4218    4221    4224    4227    4230    4233    4236    4239    4242    4245
    4248    4251    4254    4257    4260    4263    4266    4269    4272    4275
    4278    4281    4284    4287    4290    4293    4296    4299    4302    4305
    4308    4311    4314    4317    4320    4323    4326    4329    4332    4335
    4338    4341    4344    4347    4350    4353    4356    4359    4362    4365
    4368    4371    4374    4377    4380    4383    4386    4389    4392    4395
    4398    4401    4404    4407    4410    4413    4416    4419    4422    4425
    4428    4431    4434    4437    4440    4443    4446    4449    4452    4455
    4458    4461    4464    4467    4470    4473    4476    4479    4482    4485
    4488    4491    4494    4497    4500    4503    4506    4509    4512    4515
    4518    4521    4524    4527    4530    4533    4536    4539    4542    4545
    4548    4551    4554    4557    4560    4563    4566    4569    4572    4575
    4578    4581    4584    4587    4590    4593    4596    4599    4602    4605
    4608    4611    4614    4617    4620    4623    4626    4629    4632    4635
    4638    4641    4644    4647    4650    4653    4656    4659    4662    4665
    4668    4671    4674    4677    4680    4683    4686    4689    4692    4695
    4698    4701    4704    4707    4710    4713    4716    4719    4722    4725
    4728    4731    4734    4737    4740    4743    4746    4749    4752    4755
    4758    4761    4764    4767    4770    4773    4776    4779    4782    4785
    4788    4791    4794    4797    4800    4803    4806    4809    4812    4815
    4818    4821    4824    4827    4830    4833    4836    4839    4842    4845
    4848    4851    4854    4857    4860    4863    4866    4869    4872    4875
    4878    4881    4884    4887    4890    4893    4896    4899    4902    4905
    4908    4911    4914    4917    4920    4923    4926    4929    4932    4935
    4938    4941    4944    4947    4950    4953    4956    4959    4962    4965
    4968    4971    4974    4977    4980    4983    4986    4989    4992    4995
    4998    5001    5004    5007    5010    5013    5016    5019    5022    5025
    5028    5031    5034    5037    5040    5043    5046    5049    5052    5055
    5058    5061    5064    5067    5070    5073    5076    5079    5082    5085
    5088    5091    5094    5097    5100    5103    5106    5109    5112    5115
    5118    5121    5124    5127    5130    5133    5136    5139    5142    5145
    5148    5151    5154    5157    5160    5163    5166    5169    5172    5175
    5178    5181    5184    5187    5190    5193    5196    5199    5202    5205
    5208    5211    5214    5217    5220    5223    5226    5229    5232    5235
    5238    5241    5244    5247    5250    5253    5256    5259    5262    5265
    5268    5271    5274    5277    5280    5283    5286    5289    5292    5295
    5298    5301    5304    5307    5310    5313    5316    5319    5322    5325
    5328    5331    5334    5337    5340    5343    5346    5349    5352    5355
    5358    5361    5364    5367    5370    5373    5376    5379    5382    5385
    5388    5391    5394    5397    5400    5403    5406    5409    5412    5415
    5418    5421    5424    5427    5430    5433    5436    5439    5442    5445
    5448    5451    5454    5457    5460    5463    5466    5469    5472    5475
    5478    5481    5484    5487    5490    5493    5496    5499    5502    5505
    5508    5511    5514    5517    5520    5523    5526    5529    5532    5535
    5538    5541    5544    5547    5550    5553    5556    5559    5562    5565
    5568    5571    5574    5577    5580    5583    5586    5589    5592    5595
    5598    5601    5604    5607    5610    5613    5616    5619    5622    5625
    5628    5631    5634    5637    5640    5643    5646    5649    5652    5655
    5658    5661    5664    5667    5670    5673    5676    5679    5682    5685
    5688    5691    5694    5697    5700    5703    5706    5709    5712    5715
    5718    5721    5724    5727    5730    5733    5736    5739    5742    5745
    5748    5751    5754    5757    5760    5763    5766    5769    5772    5775
    5778    5781    5784    5787    5790    5793    5796    5799    5802    5805
    5808    5811    5814    5817    5820    5823    5826    5829    5832    5835
    5838    5841    5844    5847    5850    5853    5856    5859    5862    5865
    5868    5871    5874    5877    5880    5883    5886    5889    5892    5895
    5898    5901    5904    5907    5910    5913    5916    5919    5922    5925
    5928    5931    5934    5937    5940    5943    5946    5949    5952    5955
    5958    5961    5964    5967    5970    5973    5976    5979    5982    5985
    5988    5991    5994    5997    6000    6003    6006    6009    6012    6015
    6018    6021    6024    6027    6030    6033    6036    6039    6042    6045
    6048    6051    6054    6057    6060    6063    6066    6069    6072    6075
    6078    6081    6084    6087    6090    6093    6096    6099    6102    6105
    6108    6111    6114    6117    6120    6123    6126    6129    6132    6135
    6138    6141    6144    6147    6150    6153    6156    6159    6162    6165
    6168    6171    6174    6177    6180    6183    6186    6189    6192    6195
    6198    6201    6204    6207    6210    6213    6216    6219    6222    6225
    6228    6231    6234    6237    6240    6243    6246    6249    6252    6255
    6258    6261    6264    6267    6270    6273    6276    6279    6282    6285
    6288    6291    6294    6297    6300    6303    6306    6309    6312    6315
    6318    6321    6324    6327    6330    6333    6336    6339    6342    6345
    6348    6351    6354    6357    6360    6363    6366    6369    6372    6375
    6378    6381    6384    6387    6390    6393    6396    6399    6402    6405
    6408    6411    6414    6417    6420    6423    6426    6429    6432    6435
    6438    6441    6444    6447    6450    6453    6456    6459    6462    6465
    6468    6471    6474    6477    6480    6483    6486    6489    6492    6495
    6498    6501    6504    6507    6510    6513    6516    6519    6522    6525
    6528    6531    6534    6537    6540    6543    6546    6549    6552    6555
    6558    6561    6564    6567    6570    6573    6576    6579    6582    6585
    6588    6591    6594    6597    6600    6603    6606    6609    6612    6615
    6618    6621    6624    6627    6630    6633    6636    6639    6642    6645
    6648    6651    6654    6657    6660    6663    6666    6669    6672    6675
    6678    6681    6684    6687    6690    6693    6696    6699    6702    6705
    6708    6711    6714    6717    6720    6723    6726    6729    6732    6735
    6738    6741    6744    6747    6750    6753    6756    6759    6762    6765
    6768    6771    6774    6777    6780    6783    6786    6789    6792    6795
    6798    6801    6804    6807    6810    6813    6816    6819    6822    6825
    6828    6831    6834    6837    6840    6843    6846    6849    6852    6855
    6858    6861    6864    6867    6870    6873    6876    6879    6882    6885
    6888    6891    6894    6897    6900    6903    6906    6909    6912    6915
    6918    6921    6924    6927    6930    6933    6936    6939    6942    6945
    6948    6951    6954    6957    6960    6963    6966    6969    6972    6975
    6978    6981    6984    6987    6990    6993    6996    6999    7002    7005
    7008    7011    7014    7017    7020    7023    7026    7029    7032    7035
    7038    7041    7044    7047    7050    7053    7056    7059    7062    7065
    7068    7071    7074    7077    7080    7083    7086    7089    7092    7095
    7098    7101    7104    7107    7110    7113    7116    7119    7122    7125
    7128    7131    7134    7137    7140    7143    7146    7149    7152    7155
    7158    7161    7164    7167    7170    7173    7176    7179    7182    7185
    7188    7191    7194    7197    7200    7203    7206    7209    7212    7215
    7218    7221    7224    7227    7230    7233    7236    7239    7242    7245
    7248    7251    7254    7257    7260    7263    7266    7269    7272    7275
    7278    7281    7284    7287    7290    7293    7296    7299    7302    7305
    7308    7311    7314    7317    7320    7323    7326    7329    7332    7335
    7338    7341    7344    7347    7350    7353    7356    7359    7362    7365
    7368    7371    7374    7377    7380    7383    7386    7389    7392    7395
    7398    7401    7404    7407    7410    7413    7416    7419    7422    7425
    7428    7431    7434    7437    7440    7443    7446    7449    7452    7455
    7458    7461    7464    7467    7470    7473    7476    7479    7482    7485
    7488    7491    7494    7497    7500    7503    7506    7509    7512    7515
    7518    7521    7524    7527    7530    7533    7536    7539    7542    7545
    7548    7551    7554    7557    7560    7563    7566    7569    7572    7575
    7578    7581    7584    7587    7590    7593    7596    7599    7602    7605
    7608    7611    7614    7617    7620    7623    7626    7629    7632    7635
    7638    7641    7644    7647    7650    7653    7656    7659    7662    7665
    7668    7671    7674    7677    7680    7683    7686    7689    7692    7695
    7698    7701    7704    7707    7710    7713    7716    7719    7722    7725
    7728    7731    7734    7737    7740    7743    7746    7749    7752    7755
    7758    7761    7764    7767    7770    7773    7776    7779    7782    7785
    7788    7791    7794    7797    7800    7803    7806    7809    7812    7815
    7818    7821    7824    7827    7830    7833    7836    7839    7842    7845
    7848    7851    7854    7857    7860    7863    7866    7869    7872    7875
    7878    7881    7884    7887    7890    7893    7896    7899    7902    7905
    7908    7911    7914    7917    7920    7923    7926    7929    7932    7935
    7938    7941    7944    7947    7950    7953    7956    7959    7962    7965
    7968    7971    7974    7977    7980    7983    7986    7989    7992    7995
    7998    8001    8004    8007    8010    8013    8016    8019    8022    8025
    8028    8031    8034    8037    8040    8043    8046    8049    8052    8055
    8058    8061    8064    8067    8070    8073    8076    8079    8082    8085
    8088    8091    8094    8097    8100    8103    8106    8109    8112    8115
    8118    8121    8124    8127    8130    8133    8136    8139    8142    8145
    8148    8151    8154    8157    8160    8163    8166    8169    8172    8175
    8178    8181    8184    8187    8190    8193    8196    8199    8202    8205
    8208    8211    8214    8217    8220    8223    8226    8229    8232    8235
    8238    8241    8244    8247    8250    8253    8256    8259    8262    8265
    8268    8271    8274    8277    8280    8283    8286    8289    8292    8295
    8298    8301    8304    8307    8310    8313    8316    8319    8322    8325
    8328    8331    8334    8337    8340    8343    8346    8349    8352    8355
    8358    8361    8364    8367    8370    8373    8376    8379    8382    8385
    8388    8391    8394    8397    8400    8403    8406    8409    8412    8415
    8418    8421    8424    8427    8430    8433    8436    8439    8442    8445
    8448    8451    8454    8457    8460    8463    8466    8469    8472    8475
    8478    8481    8484    8487    8490    8493    8496    8499    8502    8505
    8508    8511    8514    8517    8520    8523    8526    8529    8532    8535
    8538    8541    8544    8547    8550    8553    8556    8559    8562    8565
    8568    8571    8574    8577    8580    8583    8586    8589    8592    8595
    8598    8601    8604    8607    8610    8613    8616    8619    8622    8625
    8628    8631    8634    8637    8640    8643    8646    8649    8652    8655
    8658    8661    8664    8667    8670    8673    8676    8679    8682    8685
    8688    8691    8694    8697    8700    8703    8706    8709    8712    8715
    8718    8721    8724    8727    8730    8733    8736    8739    8742    8745
    8748    8751    8754    8757    8760    8763    8766    8769    8772    8775
    8778    8781    8784    8787    8790    8793    8796    8799    8802    8805
    8808    8811    8814    8817    8820    8823    8826    8829    8832    8835
    8838    8841    8844    8847    8850    8853    8856    8859    8862    8865
    8868    8871    8874    8877    8880    8883    8886    8889    8892    8895
    8898    8901    8904    8907    8910    8913    8916    8919    8922    8925
    8928    8931    8934    8937    8940    8943    8946    8949    8952    8955
    8958    8961    8964    8967    8970    8973    8976    8979    8982    8985
    8988    8991    8994    8997    9000    9003    9006    9009    9012    9015
    9018    9021    9024    9027    9030    9033    9036    9039    9042    9045
    9048    9051    9054    9057    9060    9063    9066    9069    9072    9075
    9078    9081    9084    9087    9090    9093    9096    9099    9102    9105
    9108    9111    9114    9117    9120    9123    9126    9129    9132    9135
    9138    9141    9144    9147    9150    9153    9156    9159    9162    9165
    9168    9171    9174    9177    9180    9183    9186    9189    9192    9195
    9198    9201    9204    9207    9210    9213    9216    9219    9222    9225
    9228    9231    9234    9237    9240    9243    9246    9249    9252    9255
    9258    9261    9264    9267    9270    9273    9276    9279    9282    9285
    9288    9291    9294    9297    9300    9303    9306    9309    9312    9315
    9318    9321    9324    9327    9330    9333    9336    9339    9342    9345
    9348    9351    9354    9357    9360    9363    9366    9369    9372    9375
    9378    9381    9384    9387    9390    9393    9396    9399    9402    9405
    9408    9411    9414    9417    9420    9423    9426    9429    9432    9435
    9438    9441    9444    9447    9450    9453    9456    9459    9462    9465
    9468    9471    9474    9477    9480    9483    9486    9489    9492    9495
    9498    9501    9504    9507    9510    9513    9516    9519    9522    9525
    9528    9531    9534    9537    9540    9543    9546    9549    9552    9555
    9558    9561    9564    9567    9570    9573    9576    9579    9582    9585
    9588    9591    9594    9597    9600    9603    9606    9609    9612    9615
    9618    9621    9624    9627    9630    9633    9636    9639    9642    9645
    9648    9651    9654    9657    9660    9663    9666    9669    9672    9675
    9678    9681    9684    9687    9690    9693    9696    9699    9702    9705
    9708    9711    9714    9717    9720    9723    9726    9729    9732    9735
    9738    9741    9744    9747    9750    9753    9756    9759    9762    9765
    9768    9771    9774    9777    9780    9783    9786    9789    9792    9795
    9798    9801    9804    9807    9810    9813    9816    9819    9822    9825
    9828    9831    9834    9837    9840    9843    9846    9849    9852    9855
    9858    9861    9864    9867    9870    9873    9876    9879    9882    9885
    9888    9891    9894    9897    9900    9903    9906    9909    9912    9915
    9918    9921    9924    9927    9930    9933    9936    9939    9942    9945
    9948    9951    9954    9957    9960    9963    9966    9969    9972    9975
    9978    9981    9984    9987    9990    9993    9996    9999   10002   10005
   10008   10011   10014   10017   10020   10023   10026   10029   10032   10035
   10038   10041   10044   10047   10050   10053   10056   10059   10062   10065
   10068   10071   10074   10077   10080   10083   10086   10089   10092   10095
   10098   10101   10104   10107   10110   10113   10116   10119   10122   10125
   10128   10131   10134   10137   10140   10143   10146   10149   10152   10155
   10158   10161   10164   10167   10170   10173   10176   10179   10182   10185
   10188   10191   10194   10197   10200   10203   10206   10209   10212   10215
   10218   10221   10224   10227   10230   10233   10236   10239   10242   10245
   10248   10251   10254   10257   10260   10263   10266   10269   10272   10275
   10278   10281   10284   10287   10290   10293   10296   10299   10302   10305
   10308   10311   10314   10317   10320   10323   10326   10329   10332   10335
   10338   10341   10344   10347   10350   10353   10356   10359   10362   10365
   10368   10371   10374   10377   10380   10383   10386   10389   10392   10395
   10398   10401   10404   10407   10410   10413   10416   10419   10422   10425
   10428   10431   10434   10437   10440   10443   10446   10449   10452   10455
   10458   10461   10464   10467   10470   10473   10476   10479   10482   10485
   10488   10491   10494   10497   10500   10503   10506   10509   10512   10515
   10518   10521   10524   10527   10530   10533   10536   10539   10542   10545
   10548   10551   10554   10557   10560   10563   10566   10569   10572   10575
   10578   10581   10584   10587   10590   10593   10596   10599   10602   10605
   10608   10611   10614   10617   10620   10623   10626   10629   10632   10635
   10638   10641   10644   10647   10650   10653   10656   10659   10662   10665
   10668   10671   10674   10677   10680   10683   10686   10689   10692   10695
   10698   10701   10704   10707   10710   10713   10716   10719   10722   10725
   10728   10731   10734   10737   10740   10743   10746   10749   10752   10755
   10758   10761   10764   10767   10770   10773   10776   10779   10782   10785
   10788   10791   10794   10797   10800   10803   10806   10809   10812   10815
   10818   10821   10824   10827   10830   10833   10836   10839   10842   10845
   10848   10851   10854   10857   10860   10863   10866   10869   10872   10875
   10878   10881   10884   10887   10890   10893   10896   10899   10902   10905
   10908   10911   10914   10917   10920   10923   10926   10929   10932   10935
   10938   10941   10944   10947   10950   10953   10956   10959   10962   10965
   10968   10971   10974   10977   10980   10983   10986   10989   10992   10995
   10998   11001   11004   11007   11010   11013   11016   11019   11022   11025
   11028   11031   11034   11037   11040   11043   11046   11049   11052   11055
   11058   11061   11064   11067   11070   11073   11076   11079   11082   11085
   11088   11091   11094   11097   11100   11103   11106   11109   11112   11115
   11118   11121   11124   11127   11130   11133   11136   11139   11142   11145
   11148   11151   11154   11157   11160   11163   11166   11169   11172   11175
   11178   11181   11184   11187   11190   11193   11196   11199   11202   11205
   11208   11211   11214   11217   11220   11223   11226   11229   11232   11235
   11238   11241   11244   11247   11250   11253   11256   11259   11262   11265
   11268   11271   11274   11277   11280   11283   11286   11289   11292   11295
   11298   11301   11304   11307   11310   11313   11316   11319   11322   11325
   11328   11331   11334   11337   11340   11343   11346   11349   11352   11355
   11358   11361   11364   11367   11370   11373   11376   11379   11382   11385
   11388   11391   11394   11397   11400   11403   11406   11409   11412   11415
   11418   11421   11424   11427   11430   11433   11436   11439   11442   11445
   11448   11451   11454   11457   11460   11463   11466   11469   11472   11475
   11478   11481   11484   11487   11490   11493   11496   11499   11502   11505
   11508   11511   11514   11517   11520   11523   11526   11529   11532   11535
   11538   11541   11544   11547   11550   11553   11556   11559   11562   11565
   11568   11571   11574   11577   11580   11583   11586   11589   11592   11595
   11598   11601   11604   11607   11610   11613   11616   11619   11622   11625
   11628   11631   11634   11637   11640   11643   11646   11649   11652   11655
   11658   11661   11664   11667   11670   11673   11676   11679   11682   11685
   11688   11691   11694   11697   11700   11703   11706   11709   11712   11715
   11718   11721   11724   11727   11730   11733   11736   11739   11742   11745
   11748   11751   11754   11757   11760   11763   11766   11769   11772   11775
   11778   11781   11784   11787   11790   11793   11796   11799   11802   11805
   11808   11811   11814   11817   11820   11823   11826   11829   11832   11835
   11838   11841   11844   11847   11850   11853   11856   11859   11862   11865
   11868   11871   11874   11877   11880   11883   11886   11889   11892   11895
   11898   11901   11904   11907   11910   11913   11916   11919   11922   11925
   11928   11931   11934   11937   11940   11943   11946   11949   11952   11955
   11958   11961   11964   11967   11970   11973   11976   11979   11982   11985
   11988   11991   11994   11997   12000   12003   12006   12009   12012   12015
   12018   12021   12024   12027   12030   12033   12036   12039   12042   12045
   12048   12051   12054   12057   12060   12063   12066   12069   12072   12075
   12078   12081   12084   12087   12090   12093   12096   12099   12102   12105
   12108   12111   12114   12117   12120   12123   12126   12129   12132   12135
   12138   12141   12144   12147   12150   12153   12156   12159   12162   12165
   12168   12171   12174   12177   12180   12183   12186   12189   12192   12195
   12198   12201   12204   12207   12210   12213   12216   12219   12222   12225
   12228   12231   12234   12237   12240   12243   12246   12249   12252   12255
   12258   12261   12264   12267   12270   12273   12276   12279   12282   12285
   12288   12291   12294   12297   12300   12303   12306   12309   12312   12315
   12318   12321   12324   12327   12330   12333   12336   12339   12342   12345
   12348   12351   12354   12357   12360   12363   12366   12369   12372   12375
   12378   12381   12384   12387   12390   12393   12396   12399   12402   12405
   12408   12411   12414   12417   12420   12423   12426   12429   12432   12435
   12438   12441   12444   12447   12450   12453   12456   12459   12462   12465
   12468   12471   12474   12477   12480   12483   12486   12489   12492   12495
   12498   12501   12504   12507   12510   12513   12516   12519   12522   12525
   12528   12531   12534   12537   12540   12543   12546   12549   12552   12555
   12558   12561   12564   12567   12570   12573   12576   12579   12582   12585
   12588   12591   12594   12597   12600   12603   12606   12609   12612   12615
   12618   12621   12624   12627   12630   12633   12636   12639   12642   12645
   12648   12651   12654   12657   12660   12663   12666   12669   12672   12675
   12678   12681   12684   12687   12690   12693   12696   12699   12702   12705
   12708   12711   12714   12717   12720   12723   12726   12729   12732   12735
   12738   12741   12744   12747   12750   12753   12756   12759   12762   12765
   12768   12771   12774   12777   12780   12783   12786   12789   12792   12795
   12798   12801   12804   12807   12810   12813   12816   12819   12822   12825
   12828   12831   12834   12837   12840   12843   12846   12849   12852   12855
   12858   12861   12864   12867   12870   12873   12876   12879   12882   12885
   12888   12891   12894   12897   12900   12903   12906   12909   12912   12915
   12918   12921   12924   12927   12930   12933   12936   12939   12942   12945
   12948   12951   12954   12957   12960   12963   12966   12969   12972   12975
   12978   12981   12984   12987   12990   12993   12996   12999   13002   13005
   13008   13011   13014   13017   13020   13023   13026   13029   13032   13035
   13038   13041   13044   13047   13050   13053   13056   13059   13062   13065
   13068   13071   13074   13077   13080   13083   13086   13089   13092   13095
   13098   13101   13104   13107   13110   13113   13116   13119   13122   13125
   13128   13131   13134   13137   13140   13143   13146   13149   13152   13155
   13158   13161   13164   13167   13170   13173   13176   13179   13182   13185
   13188   13191   13194   13197   13200   13203   13206   13209   13212   13215
   13218   13221   13224   13227   13230   13233   13236   13239   13242   13245
   13248   13251   13254   13257   13260   13263   13266   13269   13272   13275
   13278   13281   13284   13287   13290   13293   13296   13299   13302   13305
   13308   13311   13314   13317   13320   13323   13326   13329   13332   13335
   13338   13341   13344   13347   13350   13353   13356   13359   13362   13365
   13368   13371   13374   13377   13380   13383   13386   13389   13392   13395
   13398   13401   13404   13407   13410   13413   13416   13419   13422   13425
   13428   13431   13434   13437   13440   13443   13446   13449   13452   13455
   13458   13461   13464   13467   13470   13473   13476   13479   13482   13485
   13488   13491   13494   13497   13500   13503   13506   13509   13512   13515
   13518   13521   13524   13527   13530   13533   13536   13539   13542   13545
   13548   13551   13554   13557   13560   13563   13566   13569   13572   13575
   13578   13581   13584   13587   13590   13593   13596   13599   13602   13605
   13608   13611   13614   13617   13620   13623   13626   13629   13632   13635
   13638   13641   13644   13647   13650   13653   13656   13659   13662   13665
   13668   13671   13674   13677   13680   13683   13686   13689   13692   13695
   13698   13701   13704   13707   13710   13713   13716   13719   13722   13725
   13728   13731   13734   13737   13740   13743   13746   13749   13752   13755
   13758   13761   13764   13767   13770   13773   13776   13779   13782   13785
   13788   13791   13794   13797   13800   13803   13806   13809   13812   13815
   13818   13821   13824   13827   13830   13833   13836   13839   13842   13845
   13848   13851   13854   13857   13860   13863   13866   13869   13872   13875
   13878   13881   13884   13887   13890   13893   13896   13899   13902   13905
   13908   13911   13914   13917   13920   13923   13926   13929   13932   13935
   13938   13941   13944   13947   13950   13953   13956   13959   13962   13965
   13968   13971   13974   13977   13980   13983   13986   13989   13992   13995
   13998   14001   14004   14007   14010   14013   14016   14019   14022   14025
   14028   14031   14034   14037   14040   14043   14046   14049   14052   14055
   14058   14061   14064   14067   14070   14073   14076   14079   14082   14085
   14088   14091   14094   14097   14100   14103   14106   14109   14112   14115
   14118   14121   14124   14127   14130   14133   14136   14139   14142   14145
   14148   14151   14154   14157   14160   14163   14166   14169   14172   14175
   14178   14181   14184   14187   14190   14193   14196   14199   14202   14205
   14208   14211   14214   14217   14220   14223   14226   14229   14232   14235
   14238   14241   14244   14247   14250   14253   14256   14259   14262   14265
   14268   14271   14274   14277   14280   14283   14286   14289   14292   14295
   14298   14301   14304   14307   14310   14313   14316   14319   14322   14325
   14328   14331   14334   14337   14340   14343   14346   14349   14352   14355
   14358   14361   14364   14367   14370   14373   14376   14379   14382   14385
   14388   14391   14394   14397   14400   14403   14406   14409   14412   14415
   14418   14421   14424   14427   14430   14433   14436   14439   14442   14445
   14448   14451   14454   14457   14460   14463   14466   14469   14472   14475
   14478   14481   14484   14487   14490   14493   14496   14499   14502   14505
   14508   14511   14514   14517   14520   14523   14526   14529   14532   14535
   14538   14541   14544   14547   14550   14553   14556   14559   14562   14565
   14568   14571   14574   14577   14580   14583   14586   14589   14592   14595
   14598   14601   14604   14607   14610   14613   14616   14619   14622   14625
   14628   14631   14634   14637   14640   14643   14646   14649   14652   14655
   14658   14661   14664   14667   14670   14673   14676   14679   14682   14685
   14688   14691   14694   14697   14700   14703   14706   14709   14712   14715
   14718   14721   14724   14727   14730   14733   14736   14739   14742   14745
   14748   14751   14754   14757   14760   14763   14766   14769   14772   14775
   14778   14781   14784   14787   14790   14793   14796   14799   14802   14805
   14808   14811   14814   14817   14820   14823   14826   14829   14832   14835
   14838   14841   14844   14847   14850   14853   14856   14859   14862   14865
   14868   14871   14874   14877   14880   14883   14886   14889   14892   14895
   14898   14901   14904   14907   14910   14913   14916   14919   14922   14925
   14928   14931   14934   14937   14940   14943   14946   14949   14952   14955
   14958   14961   14964   14967   14970   14973   14976   14979   14982   14985
   14988   14991   14994   14997   15000   15003   15006   15009   15012   15015
   15018   15021   15024   15027   15030   15033   15036   15039   15042   15045
   15048   15051   15054   15057   15060   15063   15066   15069   15072   15075
   15078   15081   15084   15087   15090   15093   15096   15099   15102   15105
   15108   15111   15114   15117   15120   15123   15126   15129   15132   15135
   15138   15141   15144   15147   15150   15153   15156   15159   15162   15165
   15168   15171   15174   15177   15180   15183   15186   15189   15192   15195
   15198   15201   15204   15207   15210   15213   15216   15219   15222   15225
   15228   15231   15234   15237   15240   15243   15246   15249   15252   15255
   15258   15261   15264   15267   15270   15273   15276   15279   15282   15285
   15288   15291   15294   15297   15300   15303   15306   15309   15312   15315
   15318   15321   15324   15327   15330   15333   15336   15339   15342   15345
   15348   15351   15354   15357   15360   15363   15366   15369   15372   15375
   15378   15381   15384   15387   15390   15393   15396   15399   15402   15405
   15408   15411   15414   15417   15420   15423   15426   15429   15432   15435
   15438   15441   15444   15447   15450   15453   15456   15459   15462   15465
   15468   15471   15474   15477   15480   15483   15486   15489   15492   15495
   15498   15501   15504   15507   15510   15513   15516   15519   15522   15525
   15528   15531   15534   15537   15540   15543   15546   15549   15552   15555
   15558   15561   15564   15567   15570   15573   15576   15579   15582   15585
   15588   15591   15594   15597   15600   15603   15606   15609   15612   15615
   15618   15621   15624   15627   15630   15633   15636   15639   15642   15645
   15648   15651   15654   15657   15660   15663   15666   15669   15672   15675
   15678   15681   15684   15687   15690   15693   15696   15699   15702   15705
   15708   15711   15714   15717   15720   15723   15726   15729   15732   15735
   15738   15741   15744   15747   15750   15753   15756   15759   15762   15765
   15768   15771   15774   15777   15780   15783   15786   15789   15792   15795
   15798   15801   15804   15807   15810   15813   15816   15819   15822   15825
   15828   15831   15834   15837   15840   15843   15846   15849   15852   15855
   15858   15861   15864   15867   15870   15873   15876   15879   15882   15885
   15888   15891   15894   15897   15900   15903   15906   15909   15912   15915
   15918   15921   15924   15927   15930   15933   15936   15939   15942   15945
   15948   15951   15954   15957   15960   15963   15966   15969   15972   15975
   15978   15981   15984   15987   15990   15993   15996   15999   16002   16005
   16008   16011   16014   16017   16020   16023   16026   16029   16032   16035
   16038   16041   16044   16047   16050   16053   16056   16059   16062   16065
   16068   16071   16074   16077   16080   16083   16086   16089   16092   16095
   16098   16101   16104   16107   16110   16113   16116   16119   16122   16125
   16128   16131   16134   16137   16140   16143   16146   16149   16152   16155
   16158   16161   16164   16167   16170   16173   16176   16179   16182   16185
   16188   16191   16194   16197   16200   16203   16206   16209   16212   16215
   16218   16221   16224   16227   16230   16233   16236   16239   16242   16245
   16248   16251   16254   16257   16260   16263   16266   16269   16272   16275
   16278   16281   16284   16287   16290   16293   16296   16299   16302   16305
   16308   16311   16314   16317   16320   16323   16326   16329   16332   16335
   16338   16341   16344   16347   16350   16353   16356   16359   16362   16365
   16368   16371   16374   16377   16380   16383   16386   16389   16392   16395
   16398   16401   16404   16407   16410   16413   16416   16419   16422   16425
   16428   16431   16434   16437   16440   16443   16446   16449   16452   16455
   16458   16461   16464   16467   16470   16473   16476   16479   16482   16485
   16488   16491   16494   16497   16500   16503   16506   16509   16512   16515
   16518   16521   16524   16527   16530   16533   16536   16539   16542   16545
   16548   16551   16554   16557   16560   16563   16566   16569   16572   16575
   16578   16581   16584   16587   16590   16593   16596   16599   16602   16605
   16608   16611   16614   16617   16620   16623   16626   16629   16632   16635
   16638   16641   16644   16647   16650   16653   16656   16659   16662   16665
   16668   16671   16674   16677   16680   16683   16686   16689   16692   16695
   16698   16701   16704   16707   16710   16713   16716   16719   16722   16725
   16728   16731   16734   16737   16740   16743   16746   16749   16752   16755
   16758   16761   16764   16767   16770   16773   16776   16779   16782   16785
   16788   16791   16794   16797   16800   16803   16806   16809   16812   16815
   16818   16821   16824   16827   16830   16833   16836   16839   16842   16845
   16848   16851   16854   16857   16860   16863   16866   16869   16872   16875
   16878   16881   16884   16887   16890   16893   16896   16899   16902   16905
   16908   16911   16914   16917   16920   16923   16926   16929   16932   16935
   16938   16941   16944   16947   16950   16953   16956   16959   16962   16965
   16968   16971   16974   16977   16980   16983   16986   16989   16992   16995
   16998   17001   17004   17007   17010   17013   17016   17019   17022   17025
   17028   17031   17034   17037   17040   17043   17046   17049   17052   17055
   17058   17061   17064   17067   17070   17073   17076   17079   17082   17085
   17088   17091   17094   17097   17100   17103   17106   17109   17112   17115
   17118   17121   17124   17127   17130   17133   17136   17139   17142   17145
   17148   17151   17154   17157   17160   17163   17166   17169   17172   17175
   17178   17181   17184   17187   17190   17193   17196   17199   17202   17205
   17208   17211   17214   17217   17220   17223   17226   17229   17232   17235
   17238   17241   17244   17247   17250   17253   17256   17259   17262   17265
   17268   17271   17274   17277   17280   17283   17286   17289   17292   17295
   17298   17301   17304   17307   17310   17313   17316   17319   17322   17325
   17328   17331   17334   17337   17340   17343   17346   17349   17352   17355
   17358   17361   17364   17367   17370   17373   17376   17379   17382   17385
   17388   17391   17394   17397   17400   17403   17406   17409   17412   17415
   17418   17421   17424   17427   17430   17433   17436   17439   17442   17445
   17448   17451   17454   17457   17460   17463   17466   17469   17472   17475
   17478   17481   17484   17487   17490   17493   17496   17499   17502   17505
   17508   17511   17514   17517   17520   17523   17526   17529   17532   17535
   17538   17541   17544   17547   17550   17553   17556   17559   17562   17565
   17568   17571   17574   17577   17580   17583   17586   17589   17592   17595
   17598   17601   17604   17607   17610   17613   17616   17619   17622   17625
   17628   17631   17634   17637   17640   17643   17646   17649   17652   17655
   17658   17661   17664   17667   17670   17673   17676   17679   17682   17685
   17688   17691   17694   17697   17700   17703   17706   17709   17712   17715
   17718   17721   17724   17727   17730   17733   17736   17739   17742   17745
   17748   17751   17754   17757   17760   17763   17766   17769   17772   17775
   17778   17781   17784   17787   17790   17793   17796   17799   17802   17805
   17808   17811   17814   17817   17820   17823   17826   17829   17832   17835
   17838   17841   17844   17847   17850   17853   17856   17859   17862   17865
   17868   17871   17874   17877   17880   17883   17886   17889   17892   17895
   17898   17901   17904   17907   17910   17913   17916   17919   17922   17925
   17928   17931   17934   17937   17940   17943   17946   17949   17952   17955
   17958   17961   17964   17967   17970   17973   17976   17979   17982   17985
   17988   17991   17994   17997   18000   18003   18006   18009   18012   18015
   18018   18021   18024   18027   18030   18033   18036   18039   18042   18045
   18048   18051   18054   18057   18060   18063   18066   18069   18072   18075
   18078   18081   18084   18087   18090   18093   18096   18099   18102   18105
   18108   18111   18114   18117   18120   18123   18126   18129   18132   18135
   18138   18141   18144   18147   18150   18153   18156   18159   18162   18165
   18168   18171   18174   18177   18180   18183   18186   18189   18192   18195
   18198   18201   18204   18207   18210   18213   18216   18219   18222   18225
   18228   18231   18234   18237   18240   18243   18246   18249   18252   18255
   18258   18261   18264   18267   18270   18273   18276   18279   18282   18285
   18288   18291   18294   18297   18300   18303   18306   18309   18312   18315
   18318   18321   18324   18327   18330   18333   18336   18339   18342   18345
   18348   18351   18354   18357   18360   18363   18366   18369   18372   18375
   18378   18381   18384   18387   18390   18393   18396   18399   18402   18405
   18408   18411   18414   18417   18420   18423   18426   18429   18432   18435
   18438   18441   18444   18447   18450   18453   18456   18459   18462   18465
   18468   18471   18474   18477   18480   18483   18486   18489   18492   18495
   18498   18501   18504   18507   18510   18513   18516   18519   18522   18525
   18528   18531   18534   18537   18540   18543   18546   18549   18552   18555
   18558   18561   18564   18567   18570   18573   18576   18579   18582   18585
   18588   18591   18594   18597   18600   18603   18606   18609   18612   18615
   18618   18621   18624   18627   18630   18633   18636   18639   18642   18645
   18648   18651   18654   18657   18660   18663   18666   18669   18672   18675
   18678   18681   18684   18687   18690   18693   18696   18699   18702   18705
   18708   18711   18714   18717   18720   18723   18726   18729   18732   18735
   18738   18741   18744   18747   18750   18753   18756   18759   18762   18765
   18768   18771   18774   18777   18780   18783   18786   18789   18792   18795
   18798   18801   18804   18807   18810   18813   18816   18819   18822   18825
   18828   18831   18834   18837   18840   18843   18846   18849   18852   18855
   18858   18861   18864   18867   18870   18873   18876   18879   18882   18885
   18888   18891   18894   18897   18900   18903   18906   18909   18912   18915
   18918   18921   18924   18927   18930   18933   18936   18939   18942   18945
   18948   18951   18954   18957   18960   18963   18966   18969   18972   18975
   18978   18981   18984   18987   18990   18993   18996   18999   19002   19005
   19008   19011   19014   19017   19020   19023   19026   19029   19032   19035
   19038   19041   19044   19047   19050   19053   19056   19059   19062   19065
   19068   19071   19074   19077   19080   19083   19086   19089   19092   19095
   19098   19101   19104   19107   19110   19113   19116   19119   19122   19125
   19128   19131   19134   19137   19140   19143   19146   19149   19152   19155
   19158   19161   19164   19167   19170   19173   19176   19179   19182   19185
   19188   19191   19194   19197   19200   19203   19206   19209   19212   19215
   19218   19221   19224   19227   19230   19233   19236   19239   19242   19245
   19248   19251   19254   19257   19260   19263   19266   19269   19272   19275
   19278   19281   19284   19287   19290   19293   19296   19299   19302   19305
   19308   19311   19314   19317   19320   19323   19326   19329   19332   19335
   19338   19341   19344   19347   19350   19353   19356   19359   19362   19365
   19368   19371   19374   19377   19380   19383   19386   19389   19392   19395
   19398   19401   19404   19407   19410   19413   19416   19419   19422   19425
   19428   19431   19434   19437   19440   19443   19446   19449   19452   19455
   19458   19461   19464   19467   19470   19473   19476   19479   19482   19485
   19488   19491   19494   19497   19500   19503   19506   19509   19512   19515
   19518   19521   19524   19527   19530   19533   19536   19539   19542   19545
   19548   19551   19554   19557   19560   19563   19566   19569   19572   19575
   19578   19581   19584   19587   19590   19593   19596   19599   19602   19605
   19608   19611   19614   19617   19620   19623   19626   19629   19632   19635
   19638   19641   19644   19647   19650   19653   19656   19659   19662   19665
   19668   19671   19674   19677   19680   19683   19686   19689   19692   19695
   19698   19701   19704   19707   19710   19713   19716   19719   19722   19725
   19728   19731   19734   19737   19740   19743   19746   19749   19752   19755
   19758   19761   19764   19767   19770   19773   19776   19779   19782   19785
   19788   19791   19794   19797   19800   19803   19806   19809   19812   19815
   19818   19821   19824   19827   19830   19833   19836   19839   19842   19845
   19848   19851   19854   19857   19860   19863   19866   19869   19872   19875
   19878   19881   19884   19887   19890   19893   19896   19899   19902   19905
   19908   19911   19914   19917   19920   19923   19926   19929   19932   19935
   19938   19941   19944   19947   19950   19953   19956   19959   19962   19965
   19968   19971   19974   19977   19980   19983   19986   19989   19992   19995
   19998   20001   20004   20007   20010   20013   20016   20019   20022   20025
   20028   20031   20034   20037   20040   20043   20046   20049   20052   20055
   20058   20061   20064   20067   20070   20073   20076   20079   20082   20085
   20088   20091   20094   20097   20100   20103   20106   20109   20112   20115
   20118   20121   20124   20127   20130   20133   20136   20139   20142   20145
   20148   20151   20154   20157   20160   20163   20166   20169   20172   20175
   20178   20181   20184   20187   20190   20193   20196   20199   20202   20205
   20208   20211   20214   20217   20220   20223   20226   20229   20232   20235
   20238   20241   20244   20247   20250   20253   20256   20259   20262   20265
   20268   20271   20274   20277   20280   20283   20286   20289   20292   20295
   20298   20301   20304   20307   20310   20313   20316   20319   20322   20325
   20328   20331   20334   20337   20340   20343   20346   20349   20352   20355
   20358   20361   20364   20367   20370   20373   20376   20379   20382   20385
   20388   20391   20394   20397   20400   20403   20406   20409   20412   20415
   20418   20421   20424   20427   20430   20433   20436   20439   20442   20445
   20448   20451   20454   20457   20460   20463   20466   20469   20472   20475
   20478   20481   20484   20487   20490   20493   20496   20499   20502   20505
   20508   20511   20514   20517   20520   20523   20526   20529   20532   20535
   20538   20541   20544   20547   20550   20553   20556   20559   20562   20565
   20568   20571   20574   20577   20580   20583   20586   20589   20592   20595
   20598   20601   20604   20607   20610   20613   20616   20619   20622   20625
   20628   20631   20634   20637   20640   20643   20646   20649   20652   20655
   20658   20661   20664   20667   20670   20673   20676   20679   20682   20685
   20688   20691   20694   20697   20700   20703   20706   20709   20712   20715
   20718   20721   20724   20727   20730   20733   20736   20739   20742   20745
   20748   20751   20754   20757   20760   20763   20766   20769   20772   20775
   20778   20781   20784   20787   20790   20793   20796   20799   20802   20805
   20808   20811   20814   20817   20820   20823   20826   20829   20832   20835
   20838   20841   20844   20847   20850   20853   20856   20859   20862   20865
   20868   20871   20874   20877   20880   20883   20886   20889   20892   20895
   20898   20901   20904   20907   20910   20913   20916   20919   20922   20925
   20928   20931   20934   20937   20940   20943   20946   20949   20952   20955
   20958   20961   20964   20967   20970   20973   20976   20979   20982   20985
   20988   20991   20994   20997   21000   21003   21006   21009   21012   21015
   21018   21021   21024   21027   21030   21033   21036   21039   21042   21045
   21048   21051   21054   21057   21060   21063   21066   21069   21072   21075
   21078   21081   21084   21087   21090   21093   21096   21099   21102   21105
   21108   21111   21114   21117   21120   21123   21126   21129   21132   21135
   21138   21141   21144   21147   21150   21153   21156   21159   21162   21165
   21168   21171   21174   21177   21180   21183   21186   21189   21192   21195
   21198   21201   21204   21207   21210   21213   21216   21219   21222   21225
   21228   21231   21234   21237   21240   21243   21246   21249   21252   21255
   21258   21261   21264   21267   21270   21273   21276   21279   21282   21285
   21288   21291   21294   21297   21300   21303   21306   21309   21312   21315
   21318   21321   21324   21327   21330   21333   21336   21339   21342   21345
   21348   21351   21354   21357   21360   21363   21366   21369   21372   21375
   21378   21381   21384   21387   21390   21393   21396   21399   21402   21405
   21408   21411   21414   21417   21420   21423   21426   21429   21432   21435
   21438   21441   21444   21447   21450   21453   21456   21459   21462   21465
   21468   21471   21474   21477   21480   21483   21486   21489   21492   21495
   21498   21501   21504   21507   21510   21513   21516   21519   21522   21525
   21528   21531   21534   21537   21540   21543   21546   21549   21552   21555
   21558   21561   21564   21567   21570   21573   21576   21579   21582   21585
   21588   21591   21594   21597   21600   21603   21606   21609   21612   21615
   21618   21621   21624   21627   21630   21633   21636   21639   21642   21645
   21648   21651   21654   21657   21660   21663   21666   21669   21672   21675
   21678   21681   21684   21687   21690   21693   21696   21699   21702   21705
   21708   21711   21714   21717   21720   21723   21726   21729   21732   21735
   21738   21741   21744   21747   21750   21753   21756   21759   21762   21765
   21768   21771   21774   21777   21780   21783   21786   21789   21792   21795
   21798   21801   21804   21807   21810   21813   21816   21819   21822   21825
   21828   21831   21834   21837   21840   21843   21846   21849   21852   21855
   21858   21861   21864   21867   21870   21873   21876   21879   21882   21885
   21888   21891   21894   21897   21900   21903   21906   21909   21912   21915
   21918   21921   21924   21927   21930   21933   21936   21939   21942   21945
   21948   21951   21954   21957   21960   21963   21966   21969   21972   21975
   21978   21981   21984   21987   21990   21993   21996   21999   22002   22005
   22008   22011   22014   22017   22020   22023   22026   22029   22032   22035
   22038   22041   22044   22047   22050   22053   22056   22059   22062   22065
   22068   22071   22074   22077   22080   22083   22086   22089   22092   22095
   22098   22101   22104   22107   22110   22113   22116   22119   22122   22125
   22128   22131   22134   22137   22140   22143   22146   22149   22152   22155
   22158   22161   22164   22167   22170   22173   22176   22179   22182   22185
   22188   22191   22194   22197   22200   22203   22206   22209   22212   22215
   22218   22221   22224   22227   22230   22233   22236   22239   22242   22245
   22248   22251   22254   22257   22260   22263   22266   22269   22272   22275
   22278   22281   22284   22287   22290   22293   22296   22299   22302   22305
   22308   22311   22314   22317   22320   22323   22326   22329   22332   22335
   22338   22341   22344   22347   22350   22353   22356   22359   22362   22365
   22368   22371   22374   22377   22380   22383   22386   22389   22392   22395
   22398   22401   22404   22407   22410   22413   22416   22419   22422   22425
   22428   22431   22434   22437   22440   22443   22446   22449   22452   22455
   22458   22461   22464   22467   22470   22473   22476   22479   22482   22485
   22488   22491   22494   22497   22500   22503   22506   22509   22512   22515
   22518   22521   22524   22527   22530   22533   22536   22539   22542   22545
   22548   22551   22554   22557   22560   22563   22566   22569   22572   22575
   22578   22581   22584   22587   22590   22593   22596   22599   22602   22605
   22608   22611   22614   22617   22620   22623   22626   22629   22632   22635
   22638   22641   22644   22647   22650   22653   22656   22659   22662   22665
   22668   22671   22674   22677   22680   22683   22686   22689   22692   22695
   22698   22701   22704   22707   22710   22713   22716   22719   22722   22725
   22728   22731   22734   22737   22740   22743   22746   22749   22752   22755
   22758   22761   22764   22767   22770   22773   22776   22779   22782   22785
   22788   22791   22794   22797   22800   22803   22806   22809   22812   22815
   22818   22821   22824   22827   22830   22833   22836   22839   22842   22845
   22848   22851   22854   22857   22860   22863   22866   22869   22872   22875
   22878   22881   22884   22887   22890   22893   22896   22899   22902   22905
   22908   22911   22914   22917   22920   22923   22926   22929   22932   22935
   22938   22941   22944   22947   22950   22953   22956   22959   22962   22965
   22968   22971   22974   22977   22980   22983   22986   22989   22992   22995
   22998   23001   23004   23007   23010   23013   23016   23019   23022   23025
   23028   23031   23034   23037   23040   23043   23046   23049   23052   23055
   23058   23061   23064   23067   23070   23073   23076   23079   23082   23085
   23088   23091   23094   23097   23100   23103   23106   23109   23112   23115
   23118   23121   23124   23127   23130   23133   23136   23139   23142   23145
   23148   23151   23154   23157   23160   23163   23166   23169   23172   23175
   23178   23181   23184   23187   23190   23193   23196   23199   23202   23205
   23208   23211   23214   23217   23220   23223   23226   23229   23232   23235
   23238   23241   23244   23247   23250   23253   23256   23259   23262   23265
   23268   23271   23274   23277   23280   23283   23286   23289   23292   23295
   23298   23301   23304   23307   23310   23313   23316   23319   23322   23325
   23328   23331   23334   23337   23340   23343   23346   23349   23352   23355
   23358   23361   23364   23367   23370   23373   23376   23379   23382   23385
   23388   23391   23394   23397   23400   23403   23406   23409   23412   23415
   23418   23421   23424   23427   23430   23433   23436   23439   23442   23445
   23448   23451   23454   23457   23460   23463   23466   23469   23472   23475
   23478   23481   23484   23487   23490   23493   23496   23499   23502   23505
   23508   23511   23514   23517   23520   23523   23526   23529   23532   23535
   23538   23541   23544   23547   23550   23553   23556   23559   23562   23565
   23568   23571   23574   23577   23580   23583   23586   23589   23592   23595
   23598   23601   23604   23607   23610   23613   23616   23619   23622   23625
   23628   23631   23634   23637   23640   23643   23646   23649   23652   23655
   23658   23661   23664   23667   23670   23673   23676   23679   23682   23685
   23688   23691   23694   23697   23700   23703   23706   23709   23712   23715
   23718   23721   23724   23727   23730   23733   23736   23739   23742   23745
   23748   23751   23754   23757   23760   23763   23766   23769   23772   23775
   23778   23781   23784   23787   23790   23793   23796   23799   23802   23805
   23808   23811   23814   23817   23820   23823   23826   23829   23832   23835
   23838   23841   23844   23847   23850   23853   23856   23859   23862   23865
   23868   23871   23874   23877   23880   23883   23886   23889   23892   23895
   23898   23901   23904   23907   23910   23913   23916   23919   23922   23925
   23928   23931   23934   23937   23940   23943   23946   23949   23952   23955
   23958   23961   23964   23967   23970   23973   23976   23979   23982   23985
   23988   23991   23994   23997   24000   24003   24006   24009   24012   24015
   24018   24021   24024   24027   24030   24033   24036   24039   24042   24045
   24048   24051   24054   24057   24060   24063   24066   24069   24072   24075
   24078   24081   24084   24087   24090   24093   24096   24099   24102   24105
   24108   24111   24114   24117   24120   24123   24126   24129   24132   24135
   24138   24141   24144   24147   24150   24153   24156   24159   24162   24165
   24168   24171   24174   24177   24180   24183   24186   24189   24192   24195
   24198   24201   24204   24207   24210   24213   24216   24219   24222   24225
   24228   24231   24234   24237   24240   24243   24246   24249   24252   24255
   24258   24261   24264   24267   24270   24273   24276   24279   24282   24285
   24288   24291   24294   24297   24300   24303   24306   24309   24312   24315
   24318   24321   24324   24327   24330   24333   24336   24339   24342   24345
   24348   24351   24354   24357   24360   24363   24366   24369   24372   24375
   24378   24381   24384   24387   24390   24393   24396   24399   24402   24405
   24408   24411   24414   24417   24420   24423   24426   24429   24432   24435
   24438   24441   24444   24447   24450   24453   24456   24459   24462   24465
   24468   24471   24474   24477   24480   24483   24486   24489   24492   24495
   24498   24501   24504   24507   24510   24513   24516   24519   24522   24525
   24528   24531   24534   24537   24540   24543   24546   24549   24552   24555
   24558   24561   24564   24567   24570   24573   24576   24579   24582   24585
   24588   24591   24594   24597   24600   24603   24606   24609   24612   24615
   24618   24621   24624   24627   24630   24633   24636   24639   24642   24645
   24648   24651   24654   24657   24660   24663   24666   24669   24672   24675
   24678   24681   24684   24687   24690   24693   24696   24699   24702   24705
   24708   24711   24714   24717   24720   24723   24726   24729   24732   24735
   24738   24741   24744   24747   24750   24753   24756   24759   24762   24765
   24768   24771   24774   24777   24780   24783   24786   24789   24792   24795
   24798   24801   24804   24807   24810   24813   24816   24819   24822   24825
   24828   24831   24834   24837   24840   24843   24846   24849   24852   24855
   24858   24861   24864   24867   24870   24873   24876   24879   24882   24885
   24888   24891   24894   24897   24900   24903   24906   24909   24912   24915
   24918   24921   24924   24927   24930   24933   24936   24939   24942   24945
   24948   24951   24954   24957   24960   24963   24966   24969   24972   24975
   24978   24981   24984   24987   24990   24993   24996   24999   25002   25005
   25008   25011   25014   25017   25020   25023   25026   25029   25032   25035
   25038   25041   25044   25047   25050   25053   25056   25059   25062   25065
   25068   25071   25074   25077   25080   25083   25086   25089   25092   25095
   25098   25101   25104   25107   25110   25113   25116   25119   25122   25125
   25128   25131   25134   25137   25140   25143   25146   25149   25152   25155
   25158   25161   25164   25167   25170   25173   25176   25179   25182   25185
   25188   25191   25194   25197   25200   25203   25206   25209   25212   25215
   25218   25221   25224   25227   25230   25233   25236   25239   25242   25245
   25248   25251   25254   25257   25260   25263   25266   25269   25272   25275
   25278   25281   25284   25287   25290   25293   25296   25299   25302   25305
   25308   25311   25314   25317   25320   25323   25326   25329   25332   25335
   25338   25341   25344   25347   25350   25353   25356   25359   25362   25365
   25368   25371   25374   25377   25380   25383   25386   25389   25392   25395
   25398   25401   25404   25407   25410   25413   25416   25419   25422   25425
   25428   25431   25434   25437   25440   25443   25446   25449   25452   25455
   25458   25461   25464   25467   25470   25473   25476   25479   25482   25485
   25488   25491   25494   25497   25500   25503   25506   25509   25512   25515
   25518   25521   25524   25527   25530   25533   25536   25539   25542   25545
   25548   25551   25554   25557   25560   25563   25566   25569   25572   25575
   25578   25581   25584   25587   25590   25593   25596   25599   25602   25605
   25608   25611   25614   25617   25620   25623   25626   25629   25632   25635
   25638   25641   25644   25647   25650   25653   25656   25659   25662   25665
   25668   25671   25674   25677   25680   25683   25686   25689   25692   25695
   25698   25701   25704   25707   25710   25713   25716   25719   25722   25725
   25728   25731   25734   25737   25740   25743   25746   25749   25752   25755
   25758   25761   25764   25767   25770   25773   25776   25779   25782   25785
   25788   25791   25794   25797   25800   25803   25806   25809   25812   25815
   25818   25821   25824   25827   25830   25833   25836   25839   25842   25845
   25848   25851   25854   25857   25860   25863   25866   25869   25872   25875
   25878   25881   25884   25887   25890   25893   25896   25899   25902   25905
   25908   25911   25914   25917   25920   25923   25926   25929   25932   25935
   25938   25941   25944   25947   25950   25953   25956   25959   25962   25965
   25968   25971   25974   25977   25980   25983   25986   25989   25992   25995
   25998   26001   26004   26007   26010   26013   26016   26019   26022   26025
   26028   26031   26034   26037   26040   26043   26046   26049   26052   26055
   26058   26061   26064   26067   26070   26073   26076   26079   26082   26085
   26088   26091   26094   26097   26100   26103   26106   26109   26112   26115
   26118   26121   26124   26127   26130   26133   26136   26139   26142   26145
   26148   26151   26154   26157   26160   26163   26166   26169   26172   26175
   26178   26181   26184   26187   26190   26193   26196   26199   26202   26205
   26208   26211   26214   26217   26220   26223   26226   26229   26232   26235
   26238   26241   26244   26247   26250   26253   26256   26259   26262   26265
   26268   26271   26274   26277   26280   26283   26286   26289   26292   26295
   26298   26301   26304   26307   26310   26313   26316   26319   26322   26325
   26328   26331   26334   26337   26340   26343   26346   26349   26352   26355
   26358   26361   26364   26367   26370   26373   26376   26379   26382   26385
   26388   26391   26394   26397   26400   26403   26406   26409   26412   26415
   26418   26421   26424   26427   26430   26433   26436   26439   26442   26445
   26448   26451   26454   26457   26460   26463   26466   26469   26472   26475
   26478   26481   26484   26487   26490   26493   26496   26499   26502   26505
   26508   26511   26514   26517   26520   26523   26526   26529   26532   26535
   26538   26541   26544   26547   26550   26553   26556   26559   26562   26565
   26568   26571   26574   26577   26580   26583   26586   26589   26592   26595
   26598   26601   26604   26607   26610   26613   26616   26619   26622   26625
   26628   26631   26634   26637   26640   26643   26646   26649   26652   26655
   26658   26661   26664   26667   26670   26673   26676   26679   26682   26685
   26688   26691   26694   26697   26700   26703   26706   26709   26712   26715
   26718   26721   26724   26727   26730   26733   26736   26739   26742   26745
   26748   26751   26754   26757   26760   26763   26766   26769   26772   26775
   26778   26781   26784   26787   26790   26793   26796   26799   26802   26805
   26808   26811   26814   26817   26820   26823   26826   26829   26832   26835
   26838   26841   26844   26847   26850   26853   26856   26859   26862   26865
   26868   26871   26874   26877   26880   26883   26886   26889   26892   26895
   26898   26901   26904   26907   26910   26913   26916   26919   26922   26925
   26928   26931   26934   26937   26940   26943   26946   26949   26952   26955
   26958   26961   26964   26967   26970   26973   26976   26979   26982   26985
   26988   26991   26994   26997   27000   27003   27006   27009   27012   27015
   27018   27021   27024   27027   27030   27033   27036   27039   27042   27045
   27048   27051   27054   27057   27060   27063   27066   27069   27072   27075
   27078   27081   27084   27087   27090   27093   27096   27099   27102   27105
   27108   27111   27114   27117   27120   27123   27126   27129   27132   27135
   27138   27141   27144   27147   27150   27153   27156   27159   27162   27165
   27168   27171   27174   27177   27180   27183   27186   27189   27192   27195
   27198   27201   27204   27207   27210   27213   27216   27219   27222   27225
   27228   27231   27234   27237   27240   27243   27246   27249   27252   27255
   27258   27261   27264   27267   27270   27273   27276   27279   27282   27285
   27288   27291   27294   27297   27300   27303   27306   27309   27312   27315
   27318   27321   27324   27327   27330   27333   27336   27339   27342   27345
   27348   27351   27354   27357   27360   27363   27366   27369   27372   27375
   27378   27381   27384   27387   27390   27393   27396   27399   27402   27405
   27408   27411   27414   27417   27420   27423   27426   27429   27432   27435
   27438   27441   27444   27447   27450   27453   27456   27459   27462   27465
   27468   27471   27474   27477   27480   27483   27486   27489   27492   27495
   27498   27501   27504   27507   27510   27513   27516   27519   27522   27525
   27528   27531   27534   27537   27540   27543   27546   27549   27552   27555
   27558   27561   27564   27567   27570   27573   27576   27579   27582   27585
   27588   27591   27594   27597   27600   27603   27606   27609   27612   27615
   27618   27621   27624   27627   27630   27633   27636   27639   27642   27645
   27648   27651   27654   27657   27660   27663   27666   27669   27672   27675
   27678   27681   27684   27687   27690   27693   27696   27699   27702   27705
   27708   27711   27714   27717   27720   27723   27726   27729   27732   27735
   27738   27741   27744   27747   27750   27753   27756   27759   27762   27765
   27768   27771   27774   27777   27780   27783   27786   27789   27792   27795
   27798   27801   27804   27807   27810   27813   27816   27819   27822   27825
   27828   27831   27834   27837   27840   27843   27846   27849   27852   27855
   27858   27861   27864   27867   27870   27873   27876   27879   27882   27885
   27888   27891   27894   27897   27900   27903   27906   27909   27912   27915
   27918   27921   27924   27927   27930   27933   27936   27939   27942   27945
   27948   27951   27954   27957   27960   27963   27966   27969   27972   27975
   27978   27981   27984   27987   27990   27993   27996   27999   28002   28005
   28008   28011   28014   28017   28020   28023   28026   28029   28032   28035
   28038   28041   28044   28047   28050   28053   28056   28059   28062   28065
   28068   28071   28074   28077   28080   28083   28086   28089   28092   28095
   28098   28101   28104   28107   28110   28113   28116   28119   28122   28125
   28128   28131   28134   28137   28140   28143   28146   28149   28152   28155
   28158   28161   28164   28167   28170   28173   28176   28179   28182   28185
   28188   28191   28194   28197   28200   28203   28206   28209   28212   28215
   28218   28221   28224   28227   28230   28233   28236   28239   28242   28245
   28248   28251   28254   28257   28260   28263   28266   28269   28272   28275
   28278   28281   28284   28287   28290   28293   28296   28299   28302   28305
   28308   28311   28314   28317   28320   28323   28326   28329   28332   28335
   28338   28341   28344   28347   28350   28353   28356   28359   28362   28365
   28368   28371   28374   28377   28380   28383   28386   28389   28392   28395
   28398   28401   28404   28407   28410   28413   28416   28419   28422   28425
   28428   28431   28434   28437   28440   28443   28446   28449   28452   28455
   28458   28461   28464   28467   28470   28473   28476   28479   28482   28485
   28488   28491   28494   28497   28500   28503   28506   28509   28512   28515
   28518   28521   28524   28527   28530   28533   28536   28539   28542   28545
   28548   28551   28554   28557   28560   28563   28566   28569   28572   28575
   28578   28581   28584   28587   28590   28593   28596   28599   28602   28605
   28608   28611   28614   28617   28620   28623   28626   28629   28632   28635
   28638   28641   28644   28647   28650   28653   28656   28659   28662   28665
   28668   28671   28674   28677   28680   28683   28686   28689   28692   28695
   28698   28701   28704   28707   28710   28713   28716   28719   28722   28725
   28728   28731   28734   28737   28740   28743   28746   28749   28752   28755
   28758   28761   28764   28767   28770   28773   28776   28779   28782   28785
   28788   28791   28794   28797   28800   28803   28806   28809   28812   28815
   28818   28821   28824   28827   28830   28833   28836   28839   28842   28845
   28848   28851   28854   28857   28860   28863   28866   28869   28872   28875
   28878   28881   28884   28887   28890   28893   28896   28899   28902   28905
   28908   28911   28914   28917   28920   28923   28926   28929   28932   28935
   28938   28941   28944   28947   28950   28953   28956   28959   28962   28965
   28968   28971   28974   28977   28980   28983   28986   28989   28992   28995
   28998   29001   29004   29007   29010   29013   29016   29019   29022   29025
   29028   29031   29034   29037   29040   29043   29046   29049   29052   29055
   29058   29061   29064   29067   29070   29073   29076   29079   29082   29085
   29088   29091   29094   29097   29100   29103   29106   29109   29112   29115
   29118   29121   29124   29127   29130   29133   29136   29139   29142   29145
   29148   29151   29154   29157   29160   29163   29166   29169   29172   29175
   29178   29181   29184   29187   29190   29193   29196   29199   29202   29205
   29208   29211   29214   29217   29220   29223   29226   29229   29232   29235
   29238   29241   29244   29247   29250   29253   29256   29259   29262   29265
   29268   29271   29274   29277   29280   29283   29286   29289   29292   29295
   29298   29301   29304   29307   29310   29313   29316   29319   29322   29325
   29328   29331   29334   29337   29340   29343   29346   29349   29352   29355
   29358   29361   29364   29367   29370   29373   29376   29379   29382   29385
   29388   29391   29394   29397   29400   29403   29406   29409   29412   29415
   29418   29421   29424   29427   29430   29433   29436   29439   29442   29445
   29448   29451   29454   29457   29460   29463   29466   29469   29472   29475
   29478   29481   29484   29487   29490   29493   29496   29499   29502   29505
   29508   29511   29514   29517   29520   29523   29526   29529   29532   29535
   29538   29541   29544   29547   29550   29553   29556   29559   29562   29565
   29568   29571   29574   29577   29580   29583   29586   29589   29592   29595
   29598   29601   29604   29607   29610   29613   29616   29619   29622   29625
   29628   29631   29634   29637   29640   29643   29646   29649   29652   29655
   29658   29661   29664   29667   29670   29673   29676   29679   29682   29685
   29688   29691   29694   29697   29700   29703   29706   29709   29712   29715
   29718   29721   29724   29727   29730   29733   29736   29739   29742   29745
   29748   29751   29754   29757   29760   29763   29766   29769   29772   29775
   29778   29781   29784   29787   29790   29793   29796   29799   29802   29805
   29808   29811   29814   29817   29820   29823   29826   29829   29832   29835
   29838   29841   29844   29847   29850   29853   29856   29859   29862   29865
   29868   29871   29874   29877   29880   29883   29886   29889   29892   29895
   29898   29901   29904   29907   29910   29913   29916   29919   29922   29925
   29928   29931   29934   29937   29940   29943   29946   29949   29952   29955
   29958   29961   29964   29967   29970   29973   29976   29979   29982   29985
   29988   29991   29994   29997   30000   30003   30006   30009   30012   30015
   30018   30021   30024   30027   30030   30033   30036   30039   30042   30045
   30048   30051   30054   30057   30060   30063   30066   30069   30072   30075
   30078   30081   30084   30087   30090   30093   30096   30099   30102   30105
   30108   30111   30114   30117   30120   30123   30126   30129   30132   30135
   30138   30141   30144   30147   30150   30153   30156   30159   30162   30165
   30168   30171   30174   30177   30180   30183   30186   30189   30192   30195
   30198   30201   30204   30207   30210   30213   30216   30219   30222   30225
   30228   30231   30234   30237   30240   30243   30246   30249   30252   30255
   30258   30261   30264   30267   30270   30273   30276   30279   30282   30285
   30288   30291   30294   30297   30300   30303   30306   30309   30312   30315
   30318   30321   30324   30327   30330   30333   30336   30339   30342   30345
   30348   30351   30354   30357   30360   30363   30366   30369   30372   30375
   30378   30381   30384   30387   30390   30393   30396   30399   30402   30405
   30408   30411   30414   30417   30420   30423   30426   30429   30432   30435
   30438   30441   30444   30447   30450   30453   30456   30459   30462   30465
   30468   30471   30474   30477   30480   30483   30486   30489   30492   30495
   30498   30501   30504   30507   30510   30513   30516   30519   30522   30525
   30528   30531   30534   30537   30540   30543   30546   30549   30552   30555
   30558   30561   30564   30567   30570   30573   30576   30579   30582   30585
   30588   30591   30594   30597   30600   30603   30606   30609   30612   30615
   30618   30621   30624   30627   30630   30633   30636   30639   30642   30645
   30648   30651   30654   30657   30660   30663   30666   30669   30672   30675
   30678
%FLAG BOND_FORCE_CONSTANT
%FORMAT(5E16.8)
  5.70000000E+02  4.90000000E+02  3.40000000E+02  3.17000000E+02  4.34000000E+02
  3.67000000E+02  3.40000000E+02  3.10000000E+02  3.40000000E+02  3.10000000E+02
  4.34000000E+02  3.37000000E+02  5.53000000E+02  4.50000000E+02  3.17000000E+02
  1.66000000E+02  3.40000000E+02  2.27000000E+02  3.20000000E+02  3.67000000E+02
  4.69000000E+02  4.69000000E+02  3.17000000E+02  6.56000000E+02  3.67000000E+02
  4.34000000E+02  4.27000000E+02  3.67000000E+02  4.77000000E+02  4.22000000E+02
  5.18000000E+02  3.17000000E+02  4.34000000E+02  4.81000000E+02  3.37000000E+02
  3.37000000E+02  3.40000000E+02  3.67000000E+02  5.53000000E+02  5.53000000E+02
%FLAG BOND_EQUIL_VALUE
%FORMAT(5E16.8)
  1.22900000E+00  1.33500000E+00  1.09000000E+00  1.52200000E+00  1.01000000E+00
  1.47100000E+00  1.09000000E+00  1.52600000E+00  1.09000000E+00  1.52600000E+00
  1.01000000E+00  1.44900000E+00  9.60000000E-01  1.36400000E+00  1.52200000E+00
  2.03800000E+00  1.09000000E+00  1.81000000E+00  1.41000000E+00  1.08000000E+00
  1.40000000E+00  1.40900000E+00  1.51000000E+00  1.25000000E+00  1.08000000E+00
  1.01000000E+00  1.38100000E+00  1.08000000E+00  1.34300000E+00  1.38500000E+00
  1.37100000E+00  1.50400000E+00  1.01000000E+00  1.34000000E+00  1.46300000E+00
  1.44900000E+00  1.09000000E+00  1.47100000E+00  9.57200000E-01  1.51360000E+00
%FLAG ANGLE_FORCE_CONSTANT
%FORMAT(5E16.8)
  8.00000000E+01  5.00000000E+01  5.00000000E+01  5.00000000E+01  3.50000000E+01
  8.00000000E+01  7.00000000E+01  5.00000000E+01  3.50000000E+01  5.00000000E+01
  8.00000000E+01  3.50000000E+01  5.00000000E+01  4.00000000E+01  6.30000000E+01
  5.00000000E+01  5.00000000E+01  5.00000000E+01  4.00000000E+01  5.00000000E+01
  5.00000000E+01  8.00000000E+01  6.30000000E+01  6.00000000E+01  8.00000000E+01
  5.00000000E+01  5.00000000E+01  8.00000000E+01  6.30000000E+01  3.50000000E+01
  8.00000000E+01  7.00000000E+01  6.80000000E+01  5.00000000E+01  3.50000000E+01
  5.00000000E+01  5.00000000E+01  5.00000000E+01  5.00000000E+01  5.00000000E+01
  5.50000000E+01  5.00000000E+01  5.00000000E+01  7.00000000E+01  5.00000000E+01
  6.30000000E+01  6.30000000E+01  6.30000000E+01  5.00000000E+01  7.00000000E+01
  6.30000000E+01  6.30000000E+01  8.00000000E+01  7.00000000E+01  5.00000000E+01
  8.00000000E+01  5.00000000E+01  5.00000000E+01  5.00000000E+01  5.00000000E+01
  7.00000000E+01  7.00000000E+01  7.00000000E+01  5.00000000E+01  7.00000000E+01
  7.00000000E+01  5.00000000E+01  5.00000000E+01  7.00000000E+01  7.00000000E+01
  6.30000000E+01  3.50000000E+01  3.50000000E+01  7.00000000E+01  5.00000000E+01
  5.00000000E+01  5.00000000E+01  5.00000000E+01  8.00000000E+01  5.00000000E+01
  5.00000000E+01  5.00000000E+01  8.00000000E+01  5.00000000E+01  3.50000000E+01
  5.00000000E+01  5.00000000E+01  8.00000000E+01
%FLAG ANGLE_EQUIL_VALUE
%FORMAT(5E16.8)
  2.14501057E+00  2.09439600E+00  2.12755727E+00  1.91113635E+00  1.91113635E+00
  2.10137732E+00  2.03505478E+00  1.91113635E+00  1.91113635E+00  1.91113635E+00
  1.94080696E+00  1.91113635E+00  1.91113635E+00  1.91113635E+00  1.93906163E+00
  1.91113635E+00  1.91113635E+00  1.91113635E+00  1.91113635E+00  2.06018753E+00
  1.91113635E+00  1.91462701E+00  1.92160833E+00  2.33874220E+00  2.09439600E+00
  1.97222290E+00  1.91113635E+00  1.91986300E+00  1.93906163E+00  2.09439600E+00
  2.10137732E+00  2.03505478E+00  1.80990721E+00  1.91113635E+00  1.91113635E+00
  1.91113635E+00  2.00189351E+00  1.91113635E+00  1.91113635E+00  1.91113635E+00
  1.89368305E+00  1.91113635E+00  2.09439600E+00  2.09439600E+00  2.09439600E+00
  2.09439600E+00  2.09439600E+00  2.09439600E+00  1.91113635E+00  2.09439600E+00
  1.98967620E+00  1.93906163E+00  2.19911580E+00  2.04203610E+00  1.91113635E+00
  1.94080696E+00  2.09439600E+00  2.09439600E+00  2.09439600E+00  2.09439600E+00
  2.09439600E+00  2.09439600E+00  2.09439600E+00  2.09439600E+00  2.09439600E+00
  2.09439600E+00  2.09439600E+00  1.91113635E+00  2.09439600E+00  2.09439600E+00
  1.97396823E+00  1.91113635E+00  2.09439600E+00  2.09439600E+00  2.09439600E+00
  1.91113635E+00  2.06647072E+00  2.15024656E+00  1.94080696E+00  2.12755727E+00
  2.05948940E+00  1.91113635E+00  1.91462701E+00  1.91113635E+00  1.91113635E+00
  1.91113635E+00  1.91113635E+00  1.94080696E+00
%FLAG DIHEDRAL_FORCE_CONSTANT
%FORMAT(5E16.8)
  2.00000000E+00  2.50000000E+00  0.00000000E+00  2.00000000E+00  4.00000000E-01
  0.00000000E+00  0.00000000E+00  2.70000000E-01  4.20000000E-01  1.55555556E-01
  1.50000000E-01  1.60000000E-01  2.00000000E-01  2.50000000E-01  1.80000000E-01
  2.00000000E-01  2.00000000E-01  8.00000000E-01  8.00000000E-02  4.50000000E-01
  1.58000000E+00  5.50000000E-01  2.30000000E+00  3.33333333E-01  3.50000000E+00
  6.00000000E-01  2.50000000E-01  0.00000000E+00  1.66666667E-01  3.62500000E+00
  1.50000000E+00  2.32500000E+00  1.40000000E+00  5.37500000E+00  2.40000000E+00
  1.05000000E+01  1.10000000E+00  1.00000000E+00
%FLAG DIHEDRAL_PERIODICITY
%FORMAT(5E16.8)
  1.00000000E+00  2.00000000E+00  2.00000000E+00  2.00000000E+00  3.00000000E+00
  4.00000000E+00  1.00000000E+00  2.00000000E+00  3.00000000E+00  3.00000000E+00
  3.00000000E+00  3.00000000E+00  1.00000000E+00  2.00000000E+00  3.00000000E+00
  1.00000000E+00  2.00000000E+00  1.00000000E+00  3.00000000E+00  1.00000000E+00
  2.00000000E+00  3.00000000E+00  2.00000000E+00  3.00000000E+00  2.00000000E+00
  3.00000000E+00  1.00000000E+00  3.00000000E+00  3.00000000E+00  2.00000000E+00
  2.00000000E+00  2.00000000E+00  2.00000000E+00  2.00000000E+00  2.00000000E+00
  2.00000000E+00  2.00000000E+00  2.00000000E+00
%FLAG DIHEDRAL_PHASE
%FORMAT(5E16.8)
  0.00000000E+00  3.14159400E+00  0.00000000E+00  0.00000000E+00  0.00000000E+00
  0.00000000E+00  0.00000000E+00  0.00000000E+00  0.00000000E+00  0.00000000E+00
  0.00000000E+00  0.00000000E+00  3.14159400E+00  3.14159400E+00  0.00000000E+00
  0.00000000E+00  0.00000000E+00  0.00000000E+00  3.14159400E+00  3.14159400E+00
  3.14159400E+00  3.14159400E+00  3.14159400E+00  0.00000000E+00  0.00000000E+00
  0.00000000E+00  0.00000000E+00  0.00000000E+00  0.00000000E+00  3.14159400E+00
  3.14159400E+00  3.14159400E+00  3.14159400E+00  3.14159400E+00  3.14159400E+00
  3.14159400E+00  3.14159400E+00  3.14159400E+00
%FLAG SCEE_SCALE_FACTOR
%FORMAT(5E16.8)
  1.20000000E+00  1.20000000E+00  1.20000000E+00  1.20000000E+00  1.20000000E+00
  1.20000000E+00  1.20000000E+00  1.20000000E+00  1.20000000E+00  1.20000000E+00
  1.20000000E+00  1.20000000E+00  1.20000000E+00  1.20000000E+00  1.20000000E+00
  1.20000000E+00  1.20000000E+00  1.20000000E+00  1.20000000E+00  1.20000000E+00
  1.20000000E+00  1.20000000E+00  1.20000000E+00  1.20000000E+00  1.20000000E+00
  1.20000000E+00  1.20000000E+00  1.20000000E+00  1.20000000E+00  1.20000000E+00
  1.20000000E+00  1.20000000E+00  1.20000000E+00  1.20000000E+00  1.20000000E+00
  0.00000000E+00  0.00000000E+00  0.00000000E+00
%FLAG SCNB_SCALE_FACTOR
%FORMAT(5E16.8)
  2.00000000E+00  2.00000000E+00  2.00000000E+00  2.00000000E+00  2.00000000E+00
  2.00000000E+00  2.00000000E+00  2.00000000E+00  2.00000000E+00  2.00000000E+00
  2.00000000E+00  2.00000000E+00  2.00000000E+00  2.00000000E+00  2.00000000E+00
  2.00000000E+00  2.00000000E+00  2.00000000E+00  2.00000000E+00  2.00000000E+00
  2.00000000E+00  2.00000000E+00  2.00000000E+00  2.00000000E+00  2.00000000E+00
  2.00000000E+00  2.00000000E+00  2.00000000E+00  2.00000000E+00  2.00000000E+00
  2.00000000E+00  2.00000000E+00  2.00000000E+00  2.00000000E+00  2.00000000E+00
  0.00000000E+00  0.00000000E+00  0.00000000E+00
%FLAG SOLTY
%FORMAT(5E16.8)
  0.00000000E+00  0.00000000E+00  0.00000000E+00  0.00000000E+00  0.00000000E+00
  0.00000000E+00  0.00000000E+00  0.00000000E+00  0.00000000E+00  0.00000000E+00
  0.00000000E+00  0.00000000E+00  0.00000000E+00  0.00000000E+00  0.00000000E+00
  0.00000000E+00  0.00000000E+00  0.00000000E+00  0.00000000E+00  0.00000000E+00
  0.00000000E+00  0.00000000E+00  0.00000000E+00  0.00000000E+00  0.00000000E+00
%FLAG LENNARD_JONES_ACOEF
%FORMAT(5E16.8)
  9.44293233E+05  2.12601181E+03  1.39982777E-01  9.95480466E+05  2.56678134E+03
  1.04308023E+06  2.01791425E+04  9.14716912E+00  2.27401052E+04  2.01823541E+02
  8.82619071E+05  2.27577561E+03  9.24822270E+05  2.01619733E+04  8.19971662E+05
  6.06829342E+05  1.02595236E+03  6.47841731E+05  1.12780457E+04  5.74393458E+05
  3.79876399E+05  6.20665997E+04  5.94667300E+01  6.78771368E+04  8.79040886E+02
  6.01816484E+04  3.69471530E+04  3.25969625E+03  8.96776989E+04  1.07193646E+02
  9.71708117E+04  1.41077189E+03  8.61541883E+04  5.44261042E+04  4.98586848E+03
  7.51607703E+03  7.44975864E+05  1.40467023E+03  7.91544157E+05  1.45985502E+04
  7.01803794E+05  4.71003287E+05  4.66922514E+04  6.82786631E+04  5.81803229E+05
  0.00000000E+00  0.00000000E+00  0.00000000E+00  0.00000000E+00  0.00000000E+00
  0.00000000E+00  0.00000000E+00  0.00000000E+00  0.00000000E+00  0.00000000E+00
  2.01562190E+06  5.97860700E+03  2.09861767E+06  4.93469320E+04  1.86068943E+06
  1.32911052E+06  1.42791446E+05  2.02461849E+05  1.61587928E+06  0.00000000E+00
  4.19430400E+06  7.91627154E+04  8.90987508E+01  8.59947003E+04  1.21014911E+03
  7.62451550E+04  4.77908183E+04  4.33325458E+03  6.55825601E+03  6.00750218E+04
  0.00000000E+00  1.79647996E+05  5.71629601E+03  5.46147253E+04  4.90239937E+01
  5.98885646E+04  7.50063100E+02  5.30987710E+04  3.23283631E+04  2.82099197E+03
  4.33325458E+03  4.09427581E+04  0.00000000E+00  1.26338489E+05  3.76169105E+03
  2.43828624E+03  6.58473870E+04  6.63368273E+01  7.18621074E+04  9.55000044E+02
  6.37148278E+04  3.93690817E+04  3.50301067E+03  5.34045360E+03  4.96707306E+04
  0.00000000E+00  1.50848032E+05  4.64559155E+03  3.03448006E+03  3.76169105E+03
  7.42364908E+05  1.52094041E+03  7.85890042E+05  1.51483906E+04  6.96790708E+05
  4.72934643E+05  4.75728872E+04  6.91773368E+04  5.82511344E+05  0.00000000E+00
  1.59822324E+06  6.09592309E+04  4.17832254E+04  5.05435913E+04  5.81935564E+05
%FLAG LENNARD_JONES_BCOEF
%FORMAT(5E16.8)
  8.01323529E+02  2.09604198E+01  9.37598976E-02  7.36907417E+02  2.06278363E+01
  6.75612247E+02  6.45756063E+01  7.57919667E-01  6.13981767E+01  3.56012899E+00
  6.53361429E+02  1.82891803E+01  5.99015525E+02  5.44372326E+01  5.31102864E+02
  6.77220874E+02  1.53505284E+01  6.26720080E+02  5.08951803E+01  5.55666448E+02
  5.64885984E+02  1.13252061E+02  1.93248820E+00  1.06076943E+02  7.42992380E+00
  9.40505980E+01  9.21192136E+01  1.43076527E+01  1.36131731E+02  2.59456373E+00
  1.26919150E+02  9.41257003E+00  1.12529845E+02  1.11805549E+02  1.76949863E+01
  2.17257828E+01  7.50714425E+02  1.79702257E+01  6.93079947E+02  5.79323581E+01
  6.14502845E+02  6.29300710E+02  1.03606917E+02  1.25287818E+02  6.99746810E+02
  0.00000000E+00  0.00000000E+00  0.00000000E+00  0.00000000E+00  0.00000000E+00
  0.00000000E+00  0.00000000E+00  0.00000000E+00  0.00000000E+00  0.00000000E+00
  1.28923404E+03  3.87070358E+01  1.17824605E+03  1.11203892E+02  1.04466382E+03
  1.10369829E+03  1.89165096E+02  2.25248294E+02  1.21753341E+03  0.00000000E+00
  2.04800000E+03  1.26451907E+02  2.33864085E+00  1.18043746E+02  8.61880722E+00
  1.04660679E+02  1.03580945E+02  1.63092814E+01  2.00642027E+01  1.16187983E+02
  0.00000000E+00  2.09772716E+02  1.85196588E+01  1.05031585E+02  1.73473071E+00
  9.85097219E+01  6.78541827E+00  8.73413012E+01  8.51921330E+01  1.31591746E+01
  1.63092814E+01  9.59185913E+01  0.00000000E+00  1.75916126E+02  1.50233639E+01
  1.20953369E+01  1.15327881E+02  2.01792524E+00  1.07908863E+02  7.65648470E+00
  9.56748258E+01  9.40124296E+01  1.46638650E+01  1.81057616E+01  1.05648788E+02
  0.00000000E+00  1.92224012E+02  1.66953734E+01  1.34932874E+01  1.50233639E+01
  6.90894667E+02  1.72393904E+01  6.36687196E+02  5.44062826E+01  5.64503554E+02
  5.81361517E+02  9.64152120E+01  1.16264660E+02  6.45512297E+02  0.00000000E+00
  1.11633519E+03  1.07902982E+02  8.93335697E+01  9.82532117E+01  5.94825035E+02
%FLAG BONDS_INC_HYDROGEN
%FORMAT(10I8)
      12      15       3      12      18       3       0       3       5       0
       6       5       0       9       5      66      69       7      66      72
       7      66      75       7      57      60       7      57      63       7
      45      48       7      45      51       7      45      54       7      39
      42       7      33      36       9      27      30      11     114     117
       7     114     120       7     114     123       7     102     105       7
     102     108       7     102     111       7      96      99       7      90
      93       9      84      87      11     168     171      13     168     180
      13     165     183      13     165     186      13     153     156       7
     153     159       7     144     147       7     144     150       7     138
     141       9     132     135      11     225     228      11     225     231
      11     210     213       7     210     216       7     201     204       7
     201     207       7     195     198       9     189     192      11     252
     255      17     252     258      17     246     249       9     240     243
      11     282     285      17     282     288      17     276     279       9
     270     273      11     330     333      13     318     321       7     318
     324       7     318     327       7     312     315      17     306     309
       9     300     303      11     363     366      13     354     357      17
     354     360      17     348     351       9     342     345      11     414
     417       7     414     420       7     414     423       7     405     408
       7     405     411       7     393     396       7     393     399       7
     393     402       7     387     390       7     381     384       9     375
     378      11     444     447      17     444     450      17     438     441
       9     432     435      11     483     486      13     474     477      17
     474     480      17     468     471       9     462     465      11     534
     537       7     534     540       7     534     543       7     522     525
       7     522     528       7     522     531       7     516     519       7
     507     510       7     507     513       7     501     504       9     495
     498      11     603     606      20     597     600      20     591     594
      13     582     585      20     576     579      20     564     567       7
     564     570       7     558     561       9     552     555      11     651
     654      11     651     657      11     636     639       7     636     642
       7     627     630       7     627     633       7     621     624       9
     615     618      11     705     708       7     705     711       7     705
     714       7     693     696       7     693     699       7     693     702
       7     687     690       7     678     681       7     678     684       7
     672     675       9     666     669      11     759     762      13     759
     771      13     756     774      13     756     777      13     744     747
       7     744     750       7     735     738       7     735     741       7
     729     732       9     723     726      11     807     810      11     807
     813      11     792     795       7     792     798       7     786     789
       9     780     783      11     873     876      20     867     870      20
     861     864      13     852     855      20     846     849      20     834
     837       7     834     840       7     828     831       9     822     825
      11     897     900      17     897     903      17     891     894       9
     885     888      11     942     945      11     942     948      11     927
     930       7     927     933       7     921     924       9     915     918
      11    1014    1017      20    1008    1011      20    1002    1005      20
     996     999      20     990     993      20     978     981       7     978
     984       7     972     975       3     960     963       5     960     966
       5     960     969       5    1056    1059       7    1056    1062       7
    1056    1065       7    1044    1047       7    1044    1050       7    1044
    1053       7    1038    1041       7    1032    1035       9    1026    1029
      11    1101    1104      11    1101    1107      11    1086    1089       7
    1086    1092       7    1080    1083       9    1074    1077      11    1152
    1155      11    1152    1158      11    1137    1140       7    1137    1143
       7    1128    1131       7    1128    1134       7    1122    1125       9
    1116    1119      11    1209    1212      25    1203    1206      26    1197
    1200      28    1191    1194      26    1179    1182       7    1179    1185
       7    1173    1176       9    1167    1170      11    1260    1263       7
    1260    1266       7    1260    1269       7    1248    1251       7    1248
    1254       7    1248    1257       7    1242    1245       7    1233    1236
       7    1233    1239       7    1227    1230       9    1221    1224      11
    1290    1293      17    1290    1296      17    1284    1287       9    1278
    1281      11    1314    1317       9    1314    1320       9    1308    1311
      11    1350    1353      13    1341    1344      17    1341    1347      17
    1335    1338       9    1329    1332      11    1404    1407      25    1398
    1401      26    1392    1395      28    1386    1389      26    1374    1377
       7    1374    1380       7    1368    1371       9    1362    1365      11
    1455    1458       7    1455    1461       7    1455    1464       7    1443
    1446       7    1443    1449       7    1443    1452       7    1437    1440
       7    1428    1431       7    1428    1434       7    1422    1425       9
    1416    1419      11    1503    1506       7    1503    1509       7    1503
    1512       7    1491    1494       7    1491    1497       7    1491    1500
       7    1485    1488       7    1479    1482       9    1473    1476      11
    1557    1560      13    1557    1569      13    1554    1572      13    1554
    1575      13    1542    1545       7    1542    1548       7    1533    1536
       7    1533    1539       7    1527    1530       9    1521    1524      11
    1590    1593       7    1590    1596       7    1590    1599       7    1584
    1587       9    1578    1581      11    1647    1650       7    1647    1653
       7    1647    1656       7    1635    1638       7    1635    1641       7
    1635    1644       7    1629    1632       7    1620    1623       7    1620
    1626       7    1614    1617       9    1608    1611      11    1716    1719
      20    1710    1713      20    1704    1707      13    1695    1698      20
    1689    1692      20    1677    1680       7    1677    1683       7    1671
    1674       9    1665    1668      11    1767    1770       7    1767    1773
       7    1767    1776       7    1755    1758       7    1755    1761       7
    1755    1764       7    1749    1752       7    1740    1743       7    1740
    1746       7    1734    1737       9    1728    1731      11    1815    1818
       7    1815    1821       7    1815    1824       7    1803    1806       7
    1803    1809       7    1803    1812       7    1797    1800       7    1791
    1794       9    1785    1788      11    1845    1848      17    1845    1851
      17    1839    1842       9    1833    1836      11    1869    1872       9
    1869    1875       9    1863    1866      11    1920    1923      13    1920
    1932      13    1917    1935      13    1917    1938      13    1905    1908
       7    1905    1911       7    1896    1899       7    1896    1902       7
    1890    1893       9    1884    1887      11    1998    2001      33    1998
    2004      33    1989    1992      33    1989    1995      33    1980    1983
      33    1971    1974      17    1971    1977      17    1962    1965       7
    1962    1968       7    1953    1956       7    1953    1959       7    1947
    1950       9    1941    1944      11    2019    2022       9    2019    2025
       9    2013    2016      11    2082    2085      20    2076    2079      20
    2070    2073      20    2064    2067      20    2058    2061      20    2046
    2049       7    2046    2052       7    2040    2043       9    2034    2037
      11    2142    2145      20    2136    2139      20    2130    2133      20
    2124    2127      20    2118    2121      20    2106    2109       7    2106
    2112       7    2100    2103       9    2094    2097      11    2205    2208
      20    2199    2202      20    2193    2196      13    2184    2187      20
    2178    2181      20    2166    2169       7    2166    2172       7    2160
    2163       9    2154    2157      11    2247    2250      13    2235    2238
       7    2235    2241       7    2235    2244       7    2229    2232      17
    2223    2226       9    2217    2220      11    2289    2292       9    2280
    2283       7    2280    2286       7    2271    2274       7    2271    2277
       7    2262    2265      17    2262    2268      17    2349    2352       5
    2349    2355       5    2349    2358       5    2340    2343      37    2340
    2346      37    2331    2334       7    2331    2337       7    2322    2325
       7    2322    2328       7    2313    2316       7    2313    2319       7
    2307    2310       9    2301    2304      11    2379    2382       7    2379
    2385       7    2379    2388       7    2373    2376       9    2367    2370
      11    2403    2400      39    2406    2400      39    2406    2403      40
    2412    2409      39    2415    2409      39    2415    2412      40    2421
    2418      39    2424    2418      39    2424    2421      40    2430    2427
      39    2433    2427      39    2433    2430      40    2439    2436      39
    2442    2436      39    2442    2439      40    2448    2445      39    2451
    2445      39    2451    2448      40    2457    2454      39    2460    2454
      39    2460    2457      40    2466    2463      39    2469    2463      39
    2469    2466      40    2475    2472      39    2478    2472      39    2478
    2475      40    2484    2481      39    2487    2481      39    2487    2484
      40    2493    2490      39    2496    2490      39    2496    2493      40
    2502    2499      39    2505    2499      39    2505    2502      40    2511
    2508      39    2514    2508      39    2514    2511      40    2520    2517
      39    2523    2517      39    2523    2520      40    2529    2526      39
    2532    2526      39    2532    2529      40    2538    2535      39    2541
    2535      39    2541    2538      40    2547    2544      39    2550    2544
      39    2550    2547      40    2556    2553      39    2559    2553      39
    2559    2556      40    2565    2562      39    2568    2562      39    2568
    2565      40    2574    2571      39    2577    2571      39    2577    2574
      40    2583    2580      39    2586    2580      39    2586    2583      40
    2592    2589      39    2595    2589      39    2595    2592      40    2601
    2598      39    2604    2598      39    2604    2601      40    2610    2607
      39    2613    2607      39    2613    2610      40    2619    2616      39
    2622    2616      39    2622    2619      40    2628    2625      39    2631
    2625      39    2631    2628      40    2637    2634      39    2640    2634
      39    2640    2637      40    2646    2643      39    2649    2643      39
    2649    2646      40    2655    2652      39    2658    2652      39    2658
    2655      40    2664    2661      39    2667    2661      39    2667    2664
      40    2673    2670      39    2676    2670      39    2676    2673      40
    2682    2679      39    2685    2679      39    2685    2682      40    2691
    2688      39    2694    2688      39    2694    2691      40    2700    2697
      39    2703    2697      39    2703    2700      40    2709    2706      39
    2712    2706      39    2712    2709      40    2718    2715      39    2721
    2715      39    2721    2718      40    2727    2724      39    2730    2724
      39    2730    2727      40    2736    2733      39    2739    2733      39
    2739    2736      40    2745    2742      39    2748    2742      39    2748
    2745      40    2754    2751      39    2757    2751      39    2757    2754
      40    2763    2760      39    2766    2760      39    2766    2763      40
    2772    2769      39    2775    2769      39    2775    2772      40    2781
    2778      39    2784    2778      39    2784    2781      40    2790    2787
      39    2793    2787      39    2793    2790      40    2799    2796      39
    2802    2796      39    2802    2799      40    2808    2805      39    2811
    2805      39    2811    2808      40    2817    2814      39    2820    2814
      39    2820    2817      40    2826    2823      39    2829    2823      39
    2829    2826      40    2835    2832      39    2838    2832      39    2838
    2835      40    2844    2841      39    2847    2841      39    2847    2844
      40    2853    2850      39    2856    2850      39    2856    2853      40
    2862    2859      39    2865    2859      39    2865    2862      40    2871
    2868      39    2874    2868      39    2874    2871      40    2880    2877
      39    2883    2877      39    2883    2880      40    2889    2886      39
    2892    2886      39    2892    2889      40    2898    2895      39    2901
    2895      39    2901    2898      40    2907    2904      39    2910    2904
      39    2910    2907      40    2916    2913      39    2919    2913      39
    2919    2916      40    2925    2922      39    2928    2922      39    2928
    2925      40    2934    2931      39    2937    2931      39    2937    2934
      40    2943    2940      39    2946    2940      39    2946    2943      40
    2952    2949      39    2955    2949      39    2955    2952      40    2961
    2958      39    2964    2958      39    2964    2961      40    2970    2967
      39    2973    2967      39    2973    2970      40    2979    2976      39
    2982    2976      39    2982    2979      40    2988    2985      39    2991
    2985      39    2991    2988      40    2997    2994      39    3000    2994
      39    3000    2997      40    3006    3003      39    3009    3003      39
    3009    3006      40    3015    3012      39    3018    3012      39    3018
    3015      40    3024    3021      39    3027    3021      39    3027    3024
      40    3033    3030      39    3036    3030      39    3036    3033      40
    3042    3039      39    3045    3039      39    3045    3042      40    3051
    3048      39    3054    3048      39    3054    3051      40    3060    3057
      39    3063    3057      39    3063    3060      40    3069    3066      39
    3072    3066      39    3072    3069      40    3078    3075      39    3081
    3075      39    3081    3078      40    3087    3084      39    3090    3084
      39    3090    3087      40    3096    3093      39    3099    3093      39
    3099    3096      40    3105    3102      39    3108    3102      39    3108
    3105      40    3114    3111      39    3117    3111      39    3117    3114
      40    3123    3120      39    3126    3120      39    3126    3123      40
    3132    3129      39    3135    3129      39    3135    3132      40    3141
    3138      39    3144    3138      39    3144    3141      40    3150    3147
      39    3153    3147      39    3153    3150      40    3159    3156      39
    3162    3156      39    3162    3159      40    3168    3165      39    3171
    3165      39    3171    3168      40    3177    3174      39    3180    3174
      39    3180    3177      40    3186    3183      39    3189    3183      39
    3189    3186      40    3195    3192      39    3198    3192      39    3198
    3195      40    3204    3201      39    3207    3201      39    3207    3204
      40    3213    3210      39    3216    3210      39    3216    3213      40
    3222    3219      39    3225    3219      39    3225    3222      40    3231
    3228      39    3234    3228      39    3234    3231      40    3240    3237
      39    3243    3237      39    3243    3240      40    3249    3246      39
    3252    3246      39    3252    3249      40    3258    3255      39    3261
    3255      39    3261    3258      40    3267    3264      39    3270    3264
      39    3270    3267      40    3276    3273      39    3279    3273      39
    3279    3276      40    3285    3282      39    3288    3282      39    3288
    3285      40    3294    3291      39    3297    3291      39    3297    3294
      40    3303    3300      39    3306    3300      39    3306    3303      40
    3312    3309      39    3315    3309      39    3315    3312      40    3321
    3318      39    3324    3318      39    3324    3321      40    3330    3327
      39    3333    3327      39    3333    3330      40    3339    3336      39
    3342    3336      39    3342    3339      40    3348    3345      39    3351
    3345      39    3351    3348      40    3357    3354      39    3360    3354
      39    3360    3357      40    3366    3363      39    3369    3363      39
    3369    3366      40    3375    3372      39    3378    3372      39    3378
    3375      40    3384    3381      39    3387    3381      39    3387    3384
      40    3393    3390      39    3396    3390      39    3396    3393      40
    3402    3399      39    3405    3399      39    3405    3402      40    3411
    3408      39    3414    3408      39    3414    3411      40    3420    3417
      39    3423    3417      39    3423    3420      40    3429    3426      39
    3432    3426      39    3432    3429      40    3438    3435      39    3441
    3435      39    3441    3438      40    3447    3444      39    3450    3444
      39    3450    3447      40    3456    3453      39    3459    3453      39
    3459    3456      40    3465    3462      39    3468    3462      39    3468
    3465      40    3474    3471      39    3477    3471      39    3477    3474
      40    3483    3480      39    3486    3480      39    3486    3483      40
    3492    3489      39    3495    3489      39    3495    3492      40    3501
    3498      39    3504    3498      39    3504    3501      40    3510    3507
      39    3513    3507      39    3513    3510      40    3519    3516      39
    3522    3516      39    3522    3519      40    3528    3525      39    3531
    3525      39    3531    3528      40    3537    3534      39    3540    3534
      39    3540    3537      40    3546    3543      39    3549    3543      39
    3549    3546      40    3555    3552      39    3558    3552      39    3558
    3555      40    3564    3561      39    3567    3561      39    3567    3564
      40    3573    3570      39    3576    3570      39    3576    3573      40
    3582    3579      39    3585    3579      39    3585    3582      40    3591
    3588      39    3594    3588      39    3594    3591      40    3600    3597
      39    3603    3597      39    3603    3600      40    3609    3606      39
    3612    3606      39    3612    3609      40    3618    3615      39    3621
    3615      39    3621    3618      40    3627    3624      39    3630    3624
      39    3630    3627      40    3636    3633      39    3639    3633      39
    3639    3636      40    3645    3642      39    3648    3642      39    3648
    3645      40    3654    3651      39    3657    3651      39    3657    3654
      40    3663    3660      39    3666    3660      39    3666    3663      40
    3672    3669      39    3675    3669      39    3675    3672      40    3681
    3678      39    3684    3678      39    3684    3681      40    3690    3687
      39    3693    3687      39    3693    3690      40    3699    3696      39
    3702    3696      39    3702    3699      40    3708    3705      39    3711
    3705      39    3711    3708      40    3717    3714      39    3720    3714
      39    3720    3717      40    3726    3723      39    3729    3723      39
    3729    3726      40    3735    3732      39    3738    3732      39    3738
    3735      40    3744    3741      39    3747    3741      39    3747    3744
      40    3753    3750      39    3756    3750      39    3756    3753      40
    3762    3759      39    3765    3759      39    3765    3762      40    3771
    3768      39    3774    3768      39    3774    3771      40    3780    3777
      39    3783    3777      39    3783    3780      40    3789    3786      39
    3792    3786      39    3792    3789      40    3798    3795      39    3801
    3795      39    3801    3798      40    3807    3804      39    3810    3804
      39    3810    3807      40    3816    3813      39    3819    3813      39
    3819    3816      40    3825    3822      39    3828    3822      39    3828
    3825      40    3834    3831      39    3837    3831      39    3837    3834
      40    3843    3840      39    3846    3840      39    3846    3843      40
    3852    3849      39    3855    3849      39    3855    3852      40    3861
    3858      39    3864    3858      39    3864    3861      40    3870    3867
      39    3873    3867      39    3873    3870      40    3879    3876      39
    3882    3876      39    3882    3879      40    3888    3885      39    3891
    3885      39    3891    3888      40    3897    3894      39    3900    3894
      39    3900    3897      40    3906    3903      39    3909    3903      39
    3909    3906      40    3915    3912      39    3918    3912      39    3918
    3915      40    3924    3921      39    3927    3921      39    3927    3924
      40    3933    3930      39    3936    3930      39    3936    3933      40
    3942    3939      39    3945    3939      39    3945    3942      40    3951
    3948      39    3954    3948      39    3954    3951      40    3960    3957
      39    3963    3957      39    3963    3960      40    3969    3966      39
    3972    3966      39    3972    3969      40    3978    3975      39    3981
    3975      39    3981    3978      40    3987    3984      39    3990    3984
      39    3990    3987      40    3996    3993      39    3999    3993      39
    3999    3996      40    4005    4002      39    4008    4002      39    4008
    4005      40    4014    4011      39    4017    4011      39    4017    4014
      40    4023    4020      39    4026    4020      39    4026    4023      40
    4032    4029      39    4035    4029      39    4035    4032      40    4041
    4038      39    4044    4038      39    4044    4041      40    4050    4047
      39    4053    4047      39    4053    4050      40    4059    4056      39
    4062    4056      39    4062    4059      40    4068    4065      39    4071
    4065      39    4071    4068      40    4077    4074      39    4080    4074
      39    4080    4077      40    4086    4083      39    4089    4083      39
    4089    4086      40    4095    4092      39    4098    4092      39    4098
    4095      40    4104    4101      39    4107    4101      39    4107    4104
      40    4113    4110      39    4116    4110      39    4116    4113      40
    4122    4119      39    4125    4119      39    4125    4122      40    4131
    4128      39    4134    4128      39    4134    4131      40    4140    4137
      39    4143    4137      39    4143    4140      40    4149    4146      39
    4152    4146      39    4152    4149      40    4158    4155      39    4161
    4155      39    4161    4158      40    4167    4164      39    4170    4164
      39    4170    4167      40    4176    4173      39    4179    4173      39
    4179    4176      40    4185    4182      39    4188    4182      39    4188
    4185      40    4194    4191      39    4197    4191      39    4197    4194
      40    4203    4200      39    4206    4200      39    4206    4203      40
    4212    4209      39    4215    4209      39    4215    4212      40    4221
    4218      39    4224    4218      39    4224    4221      40    4230    4227
      39    4233    4227      39    4233    4230      40    4239    4236      39
    4242    4236      39    4242    4239      40    4248    4245      39    4251
    4245      39    4251    4248      40    4257    4254      39    4260    4254
      39    4260    4257      40    4266    4263      39    4269    4263      39
    4269    4266      40    4275    4272      39    4278    4272      39    4278
    4275      40    4284    4281      39    4287    4281      39    4287    4284
      40    4293    4290      39    4296    4290      39    4296    4293      40
    4302    4299      39    4305    4299      39    4305    4302      40    4311
    4308      39    4314    4308      39    4314    4311      40    4320    4317
      39    4323    4317      39    4323    4320      40    4329    4326      39
    4332    4326      39    4332    4329      40    4338    4335      39    4341
    4335      39    4341    4338      40    4347    4344      39    4350    4344
      39    4350    4347      40    4356    4353      39    4359    4353      39
    4359    4356      40    4365    4362      39    4368    4362      39    4368
    4365      40    4374    4371      39    4377    4371      39    4377    4374
      40    4383    4380      39    4386    4380      39    4386    4383      40
    4392    4389      39    4395    4389      39    4395    4392      40    4401
    4398      39    4404    4398      39    4404    4401      40    4410    4407
      39    4413    4407      39    4413    4410      40    4419    4416      39
    4422    4416      39    4422    4419      40    4428    4425      39    4431
    4425      39    4431    4428      40    4437    4434      39    4440    4434
      39    4440    4437      40    4446    4443      39    4449    4443      39
    4449    4446      40    4455    4452      39    4458    4452      39    4458
    4455      40    4464    4461      39    4467    4461      39    4467    4464
      40    4473    4470      39    4476    4470      39    4476    4473      40
    4482    4479      39    4485    4479      39    4485    4482      40    4491
    4488      39    4494    4488      39    4494    4491      40    4500    4497
      39    4503    4497      39    4503    4500      40    4509    4506      39
    4512    4506      39    4512    4509      40    4518    4515      39    4521
    4515      39    4521    4518      40    4527    4524      39    4530    4524
      39    4530    4527      40    4536    4533      39    4539    4533      39
    4539    4536      40    4545    4542      39    4548    4542      39    4548
    4545      40    4554    4551      39    4557    4551      39    4557    4554
      40    4563    4560      39    4566    4560      39    4566    4563      40
    4572    4569      39    4575    4569      39    4575    4572      40    4581
    4578      39    4584    4578      39    4584    4581      40    4590    4587
      39    4593    4587      39    4593    4590      40    4599    4596      39
    4602    4596      39    4602    4599      40    4608    4605      39    4611
    4605      39    4611    4608      40    4617    4614      39    4620    4614
      39    4620    4617      40    4626    4623      39    4629    4623      39
    4629    4626      40    4635    4632      39    4638    4632      39    4638
    4635      40    4644    4641      39    4647    4641      39    4647    4644
      40    4653    4650      39    4656    4650      39    4656    4653      40
    4662    4659      39    4665    4659      39    4665    4662      40    4671
    4668      39    4674    4668      39    4674    4671      40    4680    4677
      39    4683    4677      39    4683    4680      40    4689    4686      39
    4692    4686      39    4692    4689      40    4698    4695      39    4701
    4695      39    4701    4698      40    4707    4704      39    4710    4704
      39    4710    4707      40    4716    4713      39    4719    4713      39
    4719    4716      40    4725    4722      39    4728    4722      39    4728
    4725      40    4734    4731      39    4737    4731      39    4737    4734
      40    4743    4740      39    4746    4740      39    4746    4743      40
    4752    4749      39    4755    4749      39    4755    4752      40    4761
    4758      39    4764    4758      39    4764    4761      40    4770    4767
      39    4773    4767      39    4773    4770      40    4779    4776      39
    4782    4776      39    4782    4779      40    4788    4785      39    4791
    4785      39    4791    4788      40    4797    4794      39    4800    4794
      39    4800    4797      40    4806    4803      39    4809    4803      39
    4809    4806      40    4815    4812      39    4818    4812      39    4818
    4815      40    4824    4821      39    4827    4821      39    4827    4824
      40    4833    4830      39    4836    4830      39    4836    4833      40
    4842    4839      39    4845    4839      39    4845    4842      40    4851
    4848      39    4854    4848      39    4854    4851      40    4860    4857
      39    4863    4857      39    4863    4860      40    4869    4866      39
    4872    4866      39    4872    4869      40    4878    4875      39    4881
    4875      39    4881    4878      40    4887    4884      39    4890    4884
      39    4890    4887      40    4896    4893      39    4899    4893      39
    4899    4896      40    4905    4902      39    4908    4902      39    4908
    4905      40    4914    4911      39    4917    4911      39    4917    4914
      40    4923    4920      39    4926    4920      39    4926    4923      40
    4932    4929      39    4935    4929      39    4935    4932      40    4941
    4938      39    4944    4938      39    4944    4941      40    4950    4947
      39    4953    4947      39    4953    4950      40    4959    4956      39
    4962    4956      39    4962    4959      40    4968    4965      39    4971
    4965      39    4971    4968      40    4977    4974      39    4980    4974
      39    4980    4977      40    4986    4983      39    4989    4983      39
    4989    4986      40    4995    4992      39    4998    4992      39    4998
    4995      40    5004    5001      39    5007    5001      39    5007    5004
      40    5013    5010      39    5016    5010      39    5016    5013      40
    5022    5019      39    5025    5019      39    5025    5022      40    5031
    5028      39    5034    5028      39    5034    5031      40    5040    5037
      39    5043    5037      39    5043    5040      40    5049    5046      39
    5052    5046      39    5052    5049      40    5058    5055      39    5061
    5055      39    5061    5058      40    5067    5064      39    5070    5064
      39    5070    5067      40    5076    5073      39    5079    5073      39
    5079    5076      40    5085    5082      39    5088    5082      39    5088
    5085      40    5094    5091      39    5097    5091      39    5097    5094
      40    5103    5100      39    5106    5100      39    5106    5103      40
    5112    5109      39    5115    5109      39    5115    5112      40    5121
    5118      39    5124    5118      39    5124    5121      40    5130    5127
      39    5133    5127      39    5133    5130      40    5139    5136      39
    5142    5136      39    5142    5139      40    5148    5145      39    5151
    5145      39    5151    5148      40    5157    5154      39    5160    5154
      39    5160    5157      40    5166    5163      39    5169    5163      39
    5169    5166      40    5175    5172      39    5178    5172      39    5178
    5175      40    5184    5181      39    5187    5181      39    5187    5184
      40    5193    5190      39    5196    5190      39    5196    5193      40
    5202    5199      39    5205    5199      39    5205    5202      40    5211
    5208      39    5214    5208      39    5214    5211      40    5220    5217
      39    5223    5217      39    5223    5220      40    5229    5226      39
    5232    5226      39    5232    5229      40    5238    5235      39    5241
    5235      39    5241    5238      40    5247    5244      39    5250    5244
      39    5250    5247      40    5256    5253      39    5259    5253      39
    5259    5256      40    5265    5262      39    5268    5262      39    5268
    5265      40    5274    5271      39    5277    5271      39    5277    5274
      40    5283    5280      39    5286    5280      39    5286    5283      40
    5292    5289      39    5295    5289      39    5295    5292      40    5301
    5298      39    5304    5298      39    5304    5301      40    5310    5307
      39    5313    5307      39    5313    5310      40    5319    5316      39
    5322    5316      39    5322    5319      40    5328    5325      39    5331
    5325      39    5331    5328      40    5337    5334      39    5340    5334
      39    5340    5337      40    5346    5343      39    5349    5343      39
    5349    5346      40    5355    5352      39    5358    5352      39    5358
    5355      40    5364    5361      39    5367    5361      39    5367    5364
      40    5373    5370      39    5376    5370      39    5376    5373      40
    5382    5379      39    5385    5379      39    5385    5382      40    5391
    5388      39    5394    5388      39    5394    5391      40    5400    5397
      39    5403    5397      39    5403    5400      40    5409    5406      39
    5412    5406      39    5412    5409      40    5418    5415      39    5421
    5415      39    5421    5418      40    5427    5424      39    5430    5424
      39    5430    5427      40    5436    5433      39    5439    5433      39
    5439    5436      40    5445    5442      39    5448    5442      39    5448
    5445      40    5454    5451      39    5457    5451      39    5457    5454
      40    5463    5460      39    5466    5460      39    5466    5463      40
    5472    5469      39    5475    5469      39    5475    5472      40    5481
    5478      39    5484    5478      39    5484    5481      40    5490    5487
      39    5493    5487      39    5493    5490      40    5499    5496      39
    5502    5496      39    5502    5499      40    5508    5505      39    5511
    5505      39    5511    5508      40    5517    5514      39    5520    5514
      39    5520    5517      40    5526    5523      39    5529    5523      39
    5529    5526      40    5535    5532      39    5538    5532      39    5538
    5535      40    5544    5541      39    5547    5541      39    5547    5544
      40    5553    5550      39    5556    5550      39    5556    5553      40
    5562    5559      39    5565    5559      39    5565    5562      40    5571
    5568      39    5574    5568      39    5574    5571      40    5580    5577
      39    5583    5577      39    5583    5580      40    5589    5586      39
    5592    5586      39    5592    5589      40    5598    5595      39    5601
    5595      39    5601    5598      40    5607    5604      39    5610    5604
      39    5610    5607      40    5616    5613      39    5619    5613      39
    5619    5616      40    5625    5622      39    5628    5622      39    5628
    5625      40    5634    5631      39    5637    5631      39    5637    5634
      40    5643    5640      39    5646    5640      39    5646    5643      40
    5652    5649      39    5655    5649      39    5655    5652      40    5661
    5658      39    5664    5658      39    5664    5661      40    5670    5667
      39    5673    5667      39    5673    5670      40    5679    5676      39
    5682    5676      39    5682    5679      40    5688    5685      39    5691
    5685      39    5691    5688      40    5697    5694      39    5700    5694
      39    5700    5697      40    5706    5703      39    5709    5703      39
    5709    5706      40    5715    5712      39    5718    5712      39    5718
    5715      40    5724    5721      39    5727    5721      39    5727    5724
      40    5733    5730      39    5736    5730      39    5736    5733      40
    5742    5739      39    5745    5739      39    5745    5742      40    5751
    5748      39    5754    5748      39    5754    5751      40    5760    5757
      39    5763    5757      39    5763    5760      40    5769    5766      39
    5772    5766      39    5772    5769      40    5778    5775      39    5781
    5775      39    5781    5778      40    5787    5784      39    5790    5784
      39    5790    5787      40    5796    5793      39    5799    5793      39
    5799    5796      40    5805    5802      39    5808    5802      39    5808
    5805      40    5814    5811      39    5817    5811      39    5817    5814
      40    5823    5820      39    5826    5820      39    5826    5823      40
    5832    5829      39    5835    5829      39    5835    5832      40    5841
    5838      39    5844    5838      39    5844    5841      40    5850    5847
      39    5853    5847      39    5853    5850      40    5859    5856      39
    5862    5856      39    5862    5859      40    5868    5865      39    5871
    5865      39    5871    5868      40    5877    5874      39    5880    5874
      39    5880    5877      40    5886    5883      39    5889    5883      39
    5889    5886      40    5895    5892      39    5898    5892      39    5898
    5895      40    5904    5901      39    5907    5901      39    5907    5904
      40    5913    5910      39    5916    5910      39    5916    5913      40
    5922    5919      39    5925    5919      39    5925    5922      40    5931
    5928      39    5934    5928      39    5934    5931      40    5940    5937
      39    5943    5937      39    5943    5940      40    5949    5946      39
    5952    5946      39    5952    5949      40    5958    5955      39    5961
    5955      39    5961    5958      40    5967    5964      39    5970    5964
      39    5970    5967      40    5976    5973      39    5979    5973      39
    5979    5976      40    5985    5982      39    5988    5982      39    5988
    5985      40    5994    5991      39    5997    5991      39    5997    5994
      40    6003    6000      39    6006    6000      39    6006    6003      40
    6012    6009      39    6015    6009      39    6015    6012      40    6021
    6018      39    6024    6018      39    6024    6021      40    6030    6027
      39    6033    6027      39    6033    6030      40    6039    6036      39
    6042    6036      39    6042    6039      40    6048    6045      39    6051
    6045      39    6051    6048      40    6057    6054      39    6060    6054
      39    6060    6057      40    6066    6063      39    6069    6063      39
    6069    6066      40    6075    6072      39    6078    6072      39    6078
    6075      40    6084    6081      39    6087    6081      39    6087    6084
      40    6093    6090      39    6096    6090      39    6096    6093      40
    6102    6099      39    6105    6099      39    6105    6102      40    6111
    6108      39    6114    6108      39    6114    6111      40    6120    6117
      39    6123    6117      39    6123    6120      40    6129    6126      39
    6132    6126      39    6132    6129      40    6138    6135      39    6141
    6135      39    6141    6138      40    6147    6144      39    6150    6144
      39    6150    6147      40    6156    6153      39    6159    6153      39
    6159    6156      40    6165    6162      39    6168    6162      39    6168
    6165      40    6174    6171      39    6177    6171      39    6177    6174
      40    6183    6180      39    6186    6180      39    6186    6183      40
    6192    6189      39    6195    6189      39    6195    6192      40    6201
    6198      39    6204    6198      39    6204    6201      40    6210    6207
      39    6213    6207      39    6213    6210      40    6219    6216      39
    6222    6216      39    6222    6219      40    6228    6225      39    6231
    6225      39    6231    6228      40    6237    6234      39    6240    6234
      39    6240    6237      40    6246    6243      39    6249    6243      39
    6249    6246      40    6255    6252      39    6258    6252      39    6258
    6255      40    6264    6261      39    6267    6261      39    6267    6264
      40    6273    6270      39    6276    6270      39    6276    6273      40
    6282    6279      39    6285    6279      39    6285    6282      40    6291
    6288      39    6294    6288      39    6294    6291      40    6300    6297
      39    6303    6297      39    6303    6300      40    6309    6306      39
    6312    6306      39    6312    6309      40    6318    6315      39    6321
    6315      39    6321    6318      40    6327    6324      39    6330    6324
      39    6330    6327      40    6336    6333      39    6339    6333      39
    6339    6336      40    6345    6342      39    6348    6342      39    6348
    6345      40    6354    6351      39    6357    6351      39    6357    6354
      40    6363    6360      39    6366    6360      39    6366    6363      40
    6372    6369      39    6375    6369      39    6375    6372      40    6381
    6378      39    6384    6378      39    6384    6381      40    6390    6387
      39    6393    6387      39    6393    6390      40    6399    6396      39
    6402    6396      39    6402    6399      40    6408    6405      39    6411
    6405      39    6411    6408      40    6417    6414      39    6420    6414
      39    6420    6417      40    6426    6423      39    6429    6423      39
    6429    6426      40    6435    6432      39    6438    6432      39    6438
    6435      40    6444    6441      39    6447    6441      39    6447    6444
      40    6453    6450      39    6456    6450      39    6456    6453      40
    6462    6459      39    6465    6459      39    6465    6462      40    6471
    6468      39    6474    6468      39    6474    6471      40    6480    6477
      39    6483    6477      39    6483    6480      40    6489    6486      39
    6492    6486      39    6492    6489      40    6498    6495      39    6501
    6495      39    6501    6498      40    6507    6504      39    6510    6504
      39    6510    6507      40    6516    6513      39    6519    6513      39
    6519    6516      40    6525    6522      39    6528    6522      39    6528
    6525      40    6534    6531      39    6537    6531      39    6537    6534
      40    6543    6540      39    6546    6540      39    6546    6543      40
    6552    6549      39    6555    6549      39    6555    6552      40    6561
    6558      39    6564    6558      39    6564    6561      40    6570    6567
      39    6573    6567      39    6573    6570      40    6579    6576      39
    6582    6576      39    6582    6579      40    6588    6585      39    6591
    6585      39    6591    6588      40    6597    6594      39    6600    6594
      39    6600    6597      40    6606    6603      39    6609    6603      39
    6609    6606      40    6615    6612      39    6618    6612      39    6618
    6615      40    6624    6621      39    6627    6621      39    6627    6624
      40    6633    6630      39    6636    6630      39    6636    6633      40
    6642    6639      39    6645    6639      39    6645    6642      40    6651
    6648      39    6654    6648      39    6654    6651      40    6660    6657
      39    6663    6657      39    6663    6660      40    6669    6666      39
    6672    6666      39    6672    6669      40    6678    6675      39    6681
    6675      39    6681    6678      40    6687    6684      39    6690    6684
      39    6690    6687      40    6696    6693      39    6699    6693      39
    6699    6696      40    6705    6702      39    6708    6702      39    6708
    6705      40    6714    6711      39    6717    6711      39    6717    6714
      40    6723    6720      39    6726    6720      39    6726    6723      40
    6732    6729      39    6735    6729      39    6735    6732      40    6741
    6738      39    6744    6738      39    6744    6741      40    6750    6747
      39    6753    6747      39    6753    6750      40    6759    6756      39
    6762    6756      39    6762    6759      40    6768    6765      39    6771
    6765      39    6771    6768      40    6777    6774      39    6780    6774
      39    6780    6777      40    6786    6783      39    6789    6783      39
    6789    6786      40    6795    6792      39    6798    6792      39    6798
    6795      40    6804    6801      39    6807    6801      39    6807    6804
      40    6813    6810      39    6816    6810      39    6816    6813      40
    6822    6819      39    6825    6819      39    6825    6822      40    6831
    6828      39    6834    6828      39    6834    6831      40    6840    6837
      39    6843    6837      39    6843    6840      40    6849    6846      39
    6852    6846      39    6852    6849      40    6858    6855      39    6861
    6855      39    6861    6858      40    6867    6864      39    6870    6864
      39    6870    6867      40    6876    6873      39    6879    6873      39
    6879    6876      40    6885    6882      39    6888    6882      39    6888
    6885      40    6894    6891      39    6897    6891      39    6897    6894
      40    6903    6900      39    6906    6900      39    6906    6903      40
    6912    6909      39    6915    6909      39    6915    6912      40    6921
    6918      39    6924    6918      39    6924    6921      40    6930    6927
      39    6933    6927      39    6933    6930      40    6939    6936      39
    6942    6936      39    6942    6939      40    6948    6945      39    6951
    6945      39    6951    6948      40    6957    6954      39    6960    6954
      39    6960    6957      40    6966    6963      39    6969    6963      39
    6969    6966      40    6975    6972      39    6978    6972      39    6978
    6975      40    6984    6981      39    6987    6981      39    6987    6984
      40    6993    6990      39    6996    6990      39    6996    6993      40
    7002    6999      39    7005    6999      39    7005    7002      40    7011
    7008      39    7014    7008      39    7014    7011      40    7020    7017
      39    7023    7017      39    7023    7020      40    7029    7026      39
    7032    7026      39    7032    7029      40    7038    7035      39    7041
    7035      39    7041    7038      40    7047    7044      39    7050    7044
      39    7050    7047      40    7056    7053      39    7059    7053      39
    7059    7056      40    7065    7062      39    7068    7062      39    7068
    7065      40    7074    7071      39    7077    7071      39    7077    7074
      40    7083    7080      39    7086    7080      39    7086    7083      40
    7092    7089      39    7095    7089      39    7095    7092      40    7101
    7098      39    7104    7098      39    7104    7101      40    7110    7107
      39    7113    7107      39    7113    7110      40    7119    7116      39
    7122    7116      39    7122    7119      40    7128    7125      39    7131
    7125      39    7131    7128      40    7137    7134      39    7140    7134
      39    7140    7137      40    7146    7143      39    7149    7143      39
    7149    7146      40    7155    7152      39    7158    7152      39    7158
    7155      40    7164    7161      39    7167    7161      39    7167    7164
      40    7173    7170      39    7176    7170      39    7176    7173      40
    7182    7179      39    7185    7179      39    7185    7182      40    7191
    7188      39    7194    7188      39    7194    7191      40    7200    7197
      39    7203    7197      39    7203    7200      40    7209    7206      39
    7212    7206      39    7212    7209      40    7218    7215      39    7221
    7215      39    7221    7218      40    7227    7224      39    7230    7224
      39    7230    7227      40    7236    7233      39    7239    7233      39
    7239    7236      40    7245    7242      39    7248    7242      39    7248
    7245      40    7254    7251      39    7257    7251      39    7257    7254
      40    7263    7260      39    7266    7260      39    7266    7263      40
    7272    7269      39    7275    7269      39    7275    7272      40    7281
    7278      39    7284    7278      39    7284    7281      40    7290    7287
      39    7293    7287      39    7293    7290      40    7299    7296      39
    7302    7296      39    7302    7299      40    7308    7305      39    7311
    7305      39    7311    7308      40    7317    7314      39    7320    7314
      39    7320    7317      40    7326    7323      39    7329    7323      39
    7329    7326      40    7335    7332      39    7338    7332      39    7338
    7335      40    7344    7341      39    7347    7341      39    7347    7344
      40    7353    7350      39    7356    7350      39    7356    7353      40
    7362    7359      39    7365    7359      39    7365    7362      40    7371
    7368      39    7374    7368      39    7374    7371      40    7380    7377
      39    7383    7377      39    7383    7380      40    7389    7386      39
    7392    7386      39    7392    7389      40    7398    7395      39    7401
    7395      39    7401    7398      40    7407    7404      39    7410    7404
      39    7410    7407      40    7416    7413      39    7419    7413      39
    7419    7416      40    7425    7422      39    7428    7422      39    7428
    7425      40    7434    7431      39    7437    7431      39    7437    7434
      40    7443    7440      39    7446    7440      39    7446    7443      40
    7452    7449      39    7455    7449      39    7455    7452      40    7461
    7458      39    7464    7458      39    7464    7461      40    7470    7467
      39    7473    7467      39    7473    7470      40    7479    7476      39
    7482    7476      39    7482    7479      40    7488    7485      39    7491
    7485      39    7491    7488      40    7497    7494      39    7500    7494
      39    7500    7497      40    7506    7503      39    7509    7503      39
    7509    7506      40    7515    7512      39    7518    7512      39    7518
    7515      40    7524    7521      39    7527    7521      39    7527    7524
      40    7533    7530      39    7536    7530      39    7536    7533      40
    7542    7539      39    7545    7539      39    7545    7542      40    7551
    7548      39    7554    7548      39    7554    7551      40    7560    7557
      39    7563    7557      39    7563    7560      40    7569    7566      39
    7572    7566      39    7572    7569      40    7578    7575      39    7581
    7575      39    7581    7578      40    7587    7584      39    7590    7584
      39    7590    7587      40    7596    7593      39    7599    7593      39
    7599    7596      40    7605    7602      39    7608    7602      39    7608
    7605      40    7614    7611      39    7617    7611      39    7617    7614
      40    7623    7620      39    7626    7620      39    7626    7623      40
    7632    7629      39    7635    7629      39    7635    7632      40    7641
    7638      39    7644    7638      39    7644    7641      40    7650    7647
      39    7653    7647      39    7653    7650      40    7659    7656      39
    7662    7656      39    7662    7659      40    7668    7665      39    7671
    7665      39    7671    7668      40    7677    7674      39    7680    7674
      39    7680    7677      40    7686    7683      39    7689    7683      39
    7689    7686      40    7695    7692      39    7698    7692      39    7698
    7695      40    7704    7701      39    7707    7701      39    7707    7704
      40    7713    7710      39    7716    7710      39    7716    7713      40
    7722    7719      39    7725    7719      39    7725    7722      40    7731
    7728      39    7734    7728      39    7734    7731      40    7740    7737
      39    7743    7737      39    7743    7740      40    7749    7746      39
    7752    7746      39    7752    7749      40    7758    7755      39    7761
    7755      39    7761    7758      40    7767    7764      39    7770    7764
      39    7770    7767      40    7776    7773      39    7779    7773      39
    7779    7776      40    7785    7782      39    7788    7782      39    7788
    7785      40    7794    7791      39    7797    7791      39    7797    7794
      40    7803    7800      39    7806    7800      39    7806    7803      40
    7812    7809      39    7815    7809      39    7815    7812      40    7821
    7818      39    7824    7818      39    7824    7821      40    7830    7827
      39    7833    7827      39    7833    7830      40    7839    7836      39
    7842    7836      39    7842    7839      40    7848    7845      39    7851
    7845      39    7851    7848      40    7857    7854      39    7860    7854
      39    7860    7857      40    7866    7863      39    7869    7863      39
    7869    7866      40    7875    7872      39    7878    7872      39    7878
    7875      40    7884    7881      39    7887    7881      39    7887    7884
      40    7893    7890      39    7896    7890      39    7896    7893      40
    7902    7899      39    7905    7899      39    7905    7902      40    7911
    7908      39    7914    7908      39    7914    7911      40    7920    7917
      39    7923    7917      39    7923    7920      40    7929    7926      39
    7932    7926      39    7932    7929      40    7938    7935      39    7941
    7935      39    7941    7938      40    7947    7944      39    7950    7944
      39    7950    7947      40    7956    7953      39    7959    7953      39
    7959    7956      40    7965    7962      39    7968    7962      39    7968
    7965      40    7974    7971      39    7977    7971      39    7977    7974
      40    7983    7980      39    7986    7980      39    7986    7983      40
    7992    7989      39    7995    7989      39    7995    7992      40    8001
    7998      39    8004    7998      39    8004    8001      40    8010    8007
      39    8013    8007      39    8013    8010      40    8019    8016      39
    8022    8016      39    8022    8019      40    8028    8025      39    8031
    8025      39    8031    8028      40    8037    8034      39    8040    8034
      39    8040    8037      40    8046    8043      39    8049    8043      39
    8049    8046      40    8055    8052      39    8058    8052      39    8058
    8055      40    8064    8061      39    8067    8061      39    8067    8064
      40    8073    8070      39    8076    8070      39    8076    8073      40
    8082    8079      39    8085    8079      39    8085    8082      40    8091
    8088      39    8094    8088      39    8094    8091      40    8100    8097
      39    8103    8097      39    8103    8100      40    8109    8106      39
    8112    8106      39    8112    8109      40    8118    8115      39    8121
    8115      39    8121    8118      40    8127    8124      39    8130    8124
      39    8130    8127      40    8136    8133      39    8139    8133      39
    8139    8136      40    8145    8142      39    8148    8142      39    8148
    8145      40    8154    8151      39    8157    8151      39    8157    8154
      40    8163    8160      39    8166    8160      39    8166    8163      40
    8172    8169      39    8175    8169      39    8175    8172      40    8181
    8178      39    8184    8178      39    8184    8181      40    8190    8187
      39    8193    8187      39    8193    8190      40    8199    8196      39
    8202    8196      39    8202    8199      40    8208    8205      39    8211
    8205      39    8211    8208      40    8217    8214      39    8220    8214
      39    8220    8217      40    8226    8223      39    8229    8223      39
    8229    8226      40    8235    8232      39    8238    8232      39    8238
    8235      40    8244    8241      39    8247    8241      39    8247    8244
      40    8253    8250      39    8256    8250      39    8256    8253      40
    8262    8259      39    8265    8259      39    8265    8262      40    8271
    8268      39    8274    8268      39    8274    8271      40    8280    8277
      39    8283    8277      39    8283    8280      40    8289    8286      39
    8292    8286      39    8292    8289      40    8298    8295      39    8301
    8295      39    8301    8298      40    8307    8304      39    8310    8304
      39    8310    8307      40    8316    8313      39    8319    8313      39
    8319    8316      40    8325    8322      39    8328    8322      39    8328
    8325      40    8334    8331      39    8337    8331      39    8337    8334
      40    8343    8340      39    8346    8340      39    8346    8343      40
    8352    8349      39    8355    8349      39    8355    8352      40    8361
    8358      39    8364    8358      39    8364    8361      40    8370    8367
      39    8373    8367      39    8373    8370      40    8379    8376      39
    8382    8376      39    8382    8379      40    8388    8385      39    8391
    8385      39    8391    8388      40    8397    8394      39    8400    8394
      39    8400    8397      40    8406    8403      39    8409    8403      39
    8409    8406      40    8415    8412      39    8418    8412      39    8418
    8415      40    8424    8421      39    8427    8421      39    8427    8424
      40    8433    8430      39    8436    8430      39    8436    8433      40
    8442    8439      39    8445    8439      39    8445    8442      40    8451
    8448      39    8454    8448      39    8454    8451      40    8460    8457
      39    8463    8457      39    8463    8460      40    8469    8466      39
    8472    8466      39    8472    8469      40    8478    8475      39    8481
    8475      39    8481    8478      40    8487    8484      39    8490    8484
      39    8490    8487      40    8496    8493      39    8499    8493      39
    8499    8496      40    8505    8502      39    8508    8502      39    8508
    8505      40    8514    8511      39    8517    8511      39    8517    8514
      40    8523    8520      39    8526    8520      39    8526    8523      40
    8532    8529      39    8535    8529      39    8535    8532      40    8541
    8538      39    8544    8538      39    8544    8541      40    8550    8547
      39    8553    8547      39    8553    8550      40    8559    8556      39
    8562    8556      39    8562    8559      40    8568    8565      39    8571
    8565      39    8571    8568      40    8577    8574      39    8580    8574
      39    8580    8577      40    8586    8583      39    8589    8583      39
    8589    8586      40    8595    8592      39    8598    8592      39    8598
    8595      40    8604    8601      39    8607    8601      39    8607    8604
      40    8613    8610      39    8616    8610      39    8616    8613      40
    8622    8619      39    8625    8619      39    8625    8622      40    8631
    8628      39    8634    8628      39    8634    8631      40    8640    8637
      39    8643    8637      39    8643    8640      40    8649    8646      39
    8652    8646      39    8652    8649      40    8658    8655      39    8661
    8655      39    8661    8658      40    8667    8664      39    8670    8664
      39    8670    8667      40    8676    8673      39    8679    8673      39
    8679    8676      40    8685    8682      39    8688    8682      39    8688
    8685      40    8694    8691      39    8697    8691      39    8697    8694
      40    8703    8700      39    8706    8700      39    8706    8703      40
    8712    8709      39    8715    8709      39    8715    8712      40    8721
    8718      39    8724    8718      39    8724    8721      40    8730    8727
      39    8733    8727      39    8733    8730      40    8739    8736      39
    8742    8736      39    8742    8739      40    8748    8745      39    8751
    8745      39    8751    8748      40    8757    8754      39    8760    8754
      39    8760    8757      40    8766    8763      39    8769    8763      39
    8769    8766      40    8775    8772      39    8778    8772      39    8778
    8775      40    8784    8781      39    8787    8781      39    8787    8784
      40    8793    8790      39    8796    8790      39    8796    8793      40
    8802    8799      39    8805    8799      39    8805    8802      40    8811
    8808      39    8814    8808      39    8814    8811      40    8820    8817
      39    8823    8817      39    8823    8820      40    8829    8826      39
    8832    8826      39    8832    8829      40    8838    8835      39    8841
    8835      39    8841    8838      40    8847    8844      39    8850    8844
      39    8850    8847      40    8856    8853      39    8859    8853      39
    8859    8856      40    8865    8862      39    8868    8862      39    8868
    8865      40    8874    8871      39    8877    8871      39    8877    8874
      40    8883    8880      39    8886    8880      39    8886    8883      40
    8892    8889      39    8895    8889      39    8895    8892      40    8901
    8898      39    8904    8898      39    8904    8901      40    8910    8907
      39    8913    8907      39    8913    8910      40    8919    8916      39
    8922    8916      39    8922    8919      40    8928    8925      39    8931
    8925      39    8931    8928      40    8937    8934      39    8940    8934
      39    8940    8937      40    8946    8943      39    8949    8943      39
    8949    8946      40    8955    8952      39    8958    8952      39    8958
    8955      40    8964    8961      39    8967    8961      39    8967    8964
      40    8973    8970      39    8976    8970      39    8976    8973      40
    8982    8979      39    8985    8979      39    8985    8982      40    8991
    8988      39    8994    8988      39    8994    8991      40    9000    8997
      39    9003    8997      39    9003    9000      40    9009    9006      39
    9012    9006      39    9012    9009      40    9018    9015      39    9021
    9015      39    9021    9018      40    9027    9024      39    9030    9024
      39    9030    9027      40    9036    9033      39    9039    9033      39
    9039    9036      40    9045    9042      39    9048    9042      39    9048
    9045      40    9054    9051      39    9057    9051      39    9057    9054
      40    9063    9060      39    9066    9060      39    9066    9063      40
    9072    9069      39    9075    9069      39    9075    9072      40    9081
    9078      39    9084    9078      39    9084    9081      40    9090    9087
      39    9093    9087      39    9093    9090      40    9099    9096      39
    9102    9096      39    9102    9099      40    9108    9105      39    9111
    9105      39    9111    9108      40    9117    9114      39    9120    9114
      39    9120    9117      40    9126    9123      39    9129    9123      39
    9129    9126      40    9135    9132      39    9138    9132      39    9138
    9135      40    9144    9141      39    9147    9141      39    9147    9144
      40    9153    9150      39    9156    9150      39    9156    9153      40
    9162    9159      39    9165    9159      39    9165    9162      40    9171
    9168      39    9174    9168      39    9174    9171      40    9180    9177
      39    9183    9177      39    9183    9180      40    9189    9186      39
    9192    9186      39    9192    9189      40    9198    9195      39    9201
    9195      39    9201    9198      40    9207    9204      39    9210    9204
      39    9210    9207      40    9216    9213      39    9219    9213      39
    9219    9216      40    9225    9222      39    9228    9222      39    9228
    9225      40    9234    9231      39    9237    9231      39    9237    9234
      40    9243    9240      39    9246    9240      39    9246    9243      40
    9252    9249      39    9255    9249      39    9255    9252      40    9261
    9258      39    9264    9258      39    9264    9261      40    9270    9267
      39    9273    9267      39    9273    9270      40    9279    9276      39
    9282    9276      39    9282    9279      40    9288    9285      39    9291
    9285      39    9291    9288      40    9297    9294      39    9300    9294
      39    9300    9297      40    9306    9303      39    9309    9303      39
    9309    9306      40    9315    9312      39    9318    9312      39    9318
    9315      40    9324    9321      39    9327    9321      39    9327    9324
      40    9333    9330      39    9336    9330      39    9336    9333      40
    9342    9339      39    9345    9339      39    9345    9342      40    9351
    9348      39    9354    9348      39    9354    9351      40    9360    9357
      39    9363    9357      39    9363    9360      40    9369    9366      39
    9372    9366      39    9372    9369      40    9378    9375      39    9381
    9375      39    9381    9378      40    9387    9384      39    9390    9384
      39    9390    9387      40    9396    9393      39    9399    9393      39
    9399    9396      40    9405    9402      39    9408    9402      39    9408
    9405      40    9414    9411      39    9417    9411      39    9417    9414
      40    9423    9420      39    9426    9420      39    9426    9423      40
    9432    9429      39    9435    9429      39    9435    9432      40    9441
    9438      39    9444    9438      39    9444    9441      40    9450    9447
      39    9453    9447      39    9453    9450      40    9459    9456      39
    9462    9456      39    9462    9459      40    9468    9465      39    9471
    9465      39    9471    9468      40    9477    9474      39    9480    9474
      39    9480    9477      40    9486    9483      39    9489    9483      39
    9489    9486      40    9495    9492      39    9498    9492      39    9498
    9495      40    9504    9501      39    9507    9501      39    9507    9504
      40    9513    9510      39    9516    9510      39    9516    9513      40
    9522    9519      39    9525    9519      39    9525    9522      40    9531
    9528      39    9534    9528      39    9534    9531      40    9540    9537
      39    9543    9537      39    9543    9540      40    9549    9546      39
    9552    9546      39    9552    9549      40    9558    9555      39    9561
    9555      39    9561    9558      40    9567    9564      39    9570    9564
      39    9570    9567      40    9576    9573      39    9579    9573      39
    9579    9576      40    9585    9582      39    9588    9582      39    9588
    9585      40    9594    9591      39    9597    9591      39    9597    9594
      40    9603    9600      39    9606    9600      39    9606    9603      40
    9612    9609      39    9615    9609      39    9615    9612      40    9621
    9618      39    9624    9618      39    9624    9621      40    9630    9627
      39    9633    9627      39    9633    9630      40    9639    9636      39
    9642    9636      39    9642    9639      40    9648    9645      39    9651
    9645      39    9651    9648      40    9657    9654      39    9660    9654
      39    9660    9657      40    9666    9663      39    9669    9663      39
    9669    9666      40    9675    9672      39    9678    9672      39    9678
    9675      40    9684    9681      39    9687    9681      39    9687    9684
      40    9693    9690      39    9696    9690      39    9696    9693      40
    9702    9699      39    9705    9699      39    9705    9702      40    9711
    9708      39    9714    9708      39    9714    9711      40    9720    9717
      39    9723    9717      39    9723    9720      40    9729    9726      39
    9732    9726      39    9732    9729      40    9738    9735      39    9741
    9735      39    9741    9738      40    9747    9744      39    9750    9744
      39    9750    9747      40    9756    9753      39    9759    9753      39
    9759    9756      40    9765    9762      39    9768    9762      39    9768
    9765      40    9774    9771      39    9777    9771      39    9777    9774
      40    9783    9780      39    9786    9780      39    9786    9783      40
    9792    9789      39    9795    9789      39    9795    9792      40    9801
    9798      39    9804    9798      39    9804    9801      40    9810    9807
      39    9813    9807      39    9813    9810      40    9819    9816      39
    9822    9816      39    9822    9819      40    9828    9825      39    9831
    9825      39    9831    9828      40    9837    9834      39    9840    9834
      39    9840    9837      40    9846    9843      39    9849    9843      39
    9849    9846      40    9855    9852      39    9858    9852      39    9858
    9855      40    9864    9861      39    9867    9861      39    9867    9864
      40    9873    9870      39    9876    9870      39    9876    9873      40
    9882    9879      39    9885    9879      39    9885    9882      40    9891
    9888      39    9894    9888      39    9894    9891      40    9900    9897
      39    9903    9897      39    9903    9900      40    9909    9906      39
    9912    9906      39    9912    9909      40    9918    9915      39    9921
    9915      39    9921    9918      40    9927    9924      39    9930    9924
      39    9930    9927      40    9936    9933      39    9939    9933      39
    9939    9936      40    9945    9942      39    9948    9942      39    9948
    9945      40    9954    9951      39    9957    9951      39    9957    9954
      40    9963    9960      39    9966    9960      39    9966    9963      40
    9972    9969      39    9975    9969      39    9975    9972      40    9981
    9978      39    9984    9978      39    9984    9981      40    9990    9987
      39    9993    9987      39    9993    9990      40    9999    9996      39
   10002    9996      39   10002    9999      40   10008   10005      39   10011
   10005      39   10011   10008      40   10017   10014      39   10020   10014
      39   10020   10017      40   10026   10023      39   10029   10023      39
   10029   10026      40   10035   10032      39   10038   10032      39   10038
   10035      40   10044   10041      39   10047   10041      39   10047   10044
      40   10053   10050      39   10056   10050      39   10056   10053      40
   10062   10059      39   10065   10059      39   10065   10062      40   10071
   10068      39   10074   10068      39   10074   10071      40   10080   10077
      39   10083   10077      39   10083   10080      40   10089   10086      39
   10092   10086      39   10092   10089      40   10098   10095      39   10101
   10095      39   10101   10098      40   10107   10104      39   10110   10104
      39   10110   10107      40   10116   10113      39   10119   10113      39
   10119   10116      40   10125   10122      39   10128   10122      39   10128
   10125      40   10134   10131      39   10137   10131      39   10137   10134
      40   10143   10140      39   10146   10140      39   10146   10143      40
   10152   10149      39   10155   10149      39   10155   10152      40   10161
   10158      39   10164   10158      39   10164   10161      40   10170   10167
      39   10173   10167      39   10173   10170      40   10179   10176      39
   10182   10176      39   10182   10179      40   10188   10185      39   10191
   10185      39   10191   10188      40   10197   10194      39   10200   10194
      39   10200   10197      40   10206   10203      39   10209   10203      39
   10209   10206      40   10215   10212      39   10218   10212      39   10218
   10215      40   10224   10221      39   10227   10221      39   10227   10224
      40   10233   10230      39   10236   10230      39   10236   10233      40
   10242   10239      39   10245   10239      39   10245   10242      40   10251
   10248      39   10254   10248      39   10254   10251      40   10260   10257
      39   10263   10257      39   10263   10260      40   10269   10266      39
   10272   10266      39   10272   10269      40   10278   10275      39   10281
   10275      39   10281   10278      40   10287   10284      39   10290   10284
      39   10290   10287      40   10296   10293      39   10299   10293      39
   10299   10296      40   10305   10302      39   10308   10302      39   10308
   10305      40   10314   10311      39   10317   10311      39   10317   10314
      40   10323   10320      39   10326   10320      39   10326   10323      40
   10332   10329      39   10335   10329      39   10335   10332      40   10341
   10338      39   10344   10338      39   10344   10341      40   10350   10347
      39   10353   10347      39   10353   10350      40   10359   10356      39
   10362   10356      39   10362   10359      40   10368   10365      39   10371
   10365      39   10371   10368      40   10377   10374      39   10380   10374
      39   10380   10377      40   10386   10383      39   10389   10383      39
   10389   10386      40   10395   10392      39   10398   10392      39   10398
   10395      40   10404   10401      39   10407   10401      39   10407   10404
      40   10413   10410      39   10416   10410      39   10416   10413      40
   10422   10419      39   10425   10419      39   10425   10422      40   10431
   10428      39   10434   10428      39   10434   10431      40   10440   10437
      39   10443   10437      39   10443   10440      40   10449   10446      39
   10452   10446      39   10452   10449      40   10458   10455      39   10461
   10455      39   10461   10458      40   10467   10464      39   10470   10464
      39   10470   10467      40   10476   10473      39   10479   10473      39
   10479   10476      40   10485   10482      39   10488   10482      39   10488
   10485      40   10494   10491      39   10497   10491      39   10497   10494
      40   10503   10500      39   10506   10500      39   10506   10503      40
   10512   10509      39   10515   10509      39   10515   10512      40   10521
   10518      39   10524   10518      39   10524   10521      40   10530   10527
      39   10533   10527      39   10533   10530      40   10539   10536      39
   10542   10536      39   10542   10539      40   10548   10545      39   10551
   10545      39   10551   10548      40   10557   10554      39   10560   10554
      39   10560   10557      40   10566   10563      39   10569   10563      39
   10569   10566      40   10575   10572      39   10578   10572      39   10578
   10575      40   10584   10581      39   10587   10581      39   10587   10584
      40   10593   10590      39   10596   10590      39   10596   10593      40
   10602   10599      39   10605   10599      39   10605   10602      40   10611
   10608      39   10614   10608      39   10614   10611      40   10620   10617
      39   10623   10617      39   10623   10620      40   10629   10626      39
   10632   10626      39   10632   10629      40   10638   10635      39   10641
   10635      39   10641   10638      40   10647   10644      39   10650   10644
      39   10650   10647      40   10656   10653      39   10659   10653      39
   10659   10656      40   10665   10662      39   10668   10662      39   10668
   10665      40   10674   10671      39   10677   10671      39   10677   10674
      40   10683   10680      39   10686   10680      39   10686   10683      40
   10692   10689      39   10695   10689      39   10695   10692      40   10701
   10698      39   10704   10698      39   10704   10701      40   10710   10707
      39   10713   10707      39   10713   10710      40   10719   10716      39
   10722   10716      39   10722   10719      40   10728   10725      39   10731
   10725      39   10731   10728      40   10737   10734      39   10740   10734
      39   10740   10737      40   10746   10743      39   10749   10743      39
   10749   10746      40   10755   10752      39   10758   10752      39   10758
   10755      40   10764   10761      39   10767   10761      39   10767   10764
      40   10773   10770      39   10776   10770      39   10776   10773      40
   10782   10779      39   10785   10779      39   10785   10782      40   10791
   10788      39   10794   10788      39   10794   10791      40   10800   10797
      39   10803   10797      39   10803   10800      40   10809   10806      39
   10812   10806      39   10812   10809      40   10818   10815      39   10821
   10815      39   10821   10818      40   10827   10824      39   10830   10824
      39   10830   10827      40   10836   10833      39   10839   10833      39
   10839   10836      40   10845   10842      39   10848   10842      39   10848
   10845      40   10854   10851      39   10857   10851      39   10857   10854
      40   10863   10860      39   10866   10860      39   10866   10863      40
   10872   10869      39   10875   10869      39   10875   10872      40   10881
   10878      39   10884   10878      39   10884   10881      40   10890   10887
      39   10893   10887      39   10893   10890      40   10899   10896      39
   10902   10896      39   10902   10899      40   10908   10905      39   10911
   10905      39   10911   10908      40   10917   10914      39   10920   10914
      39   10920   10917      40   10926   10923      39   10929   10923      39
   10929   10926      40   10935   10932      39   10938   10932      39   10938
   10935      40   10944   10941      39   10947   10941      39   10947   10944
      40   10953   10950      39   10956   10950      39   10956   10953      40
   10962   10959      39   10965   10959      39   10965   10962      40   10971
   10968      39   10974   10968      39   10974   10971      40   10980   10977
      39   10983   10977      39   10983   10980      40   10989   10986      39
   10992   10986      39   10992   10989      40   10998   10995      39   11001
   10995      39   11001   10998      40   11007   11004      39   11010   11004
      39   11010   11007      40   11016   11013      39   11019   11013      39
   11019   11016      40   11025   11022      39   11028   11022      39   11028
   11025      40   11034   11031      39   11037   11031      39   11037   11034
      40   11043   11040      39   11046   11040      39   11046   11043      40
   11052   11049      39   11055   11049      39   11055   11052      40   11061
   11058      39   11064   11058      39   11064   11061      40   11070   11067
      39   11073   11067      39   11073   11070      40   11079   11076      39
   11082   11076      39   11082   11079      40   11088   11085      39   11091
   11085      39   11091   11088      40   11097   11094      39   11100   11094
      39   11100   11097      40   11106   11103      39   11109   11103      39
   11109   11106      40   11115   11112      39   11118   11112      39   11118
   11115      40   11124   11121      39   11127   11121      39   11127   11124
      40   11133   11130      39   11136   11130      39   11136   11133      40
   11142   11139      39   11145   11139      39   11145   11142      40   11151
   11148      39   11154   11148      39   11154   11151      40   11160   11157
      39   11163   11157      39   11163   11160      40   11169   11166      39
   11172   11166      39   11172   11169      40   11178   11175      39   11181
   11175      39   11181   11178      40   11187   11184      39   11190   11184
      39   11190   11187      40   11196   11193      39   11199   11193      39
   11199   11196      40   11205   11202      39   11208   11202      39   11208
   11205      40   11214   11211      39   11217   11211      39   11217   11214
      40   11223   11220      39   11226   11220      39   11226   11223      40
   11232   11229      39   11235   11229      39   11235   11232      40   11241
   11238      39   11244   11238      39   11244   11241      40   11250   11247
      39   11253   11247      39   11253   11250      40   11259   11256      39
   11262   11256      39   11262   11259      40   11268   11265      39   11271
   11265      39   11271   11268      40   11277   11274      39   11280   11274
      39   11280   11277      40   11286   11283      39   11289   11283      39
   11289   11286      40   11295   11292      39   11298   11292      39   11298
   11295      40   11304   11301      39   11307   11301      39   11307   11304
      40   11313   11310      39   11316   11310      39   11316   11313      40
   11322   11319      39   11325   11319      39   11325   11322      40   11331
   11328      39   11334   11328      39   11334   11331      40   11340   11337
      39   11343   11337      39   11343   11340      40   11349   11346      39
   11352   11346      39   11352   11349      40   11358   11355      39   11361
   11355      39   11361   11358      40   11367   11364      39   11370   11364
      39   11370   11367      40   11376   11373      39   11379   11373      39
   11379   11376      40   11385   11382      39   11388   11382      39   11388
   11385      40   11394   11391      39   11397   11391      39   11397   11394
      40   11403   11400      39   11406   11400      39   11406   11403      40
   11412   11409      39   11415   11409      39   11415   11412      40   11421
   11418      39   11424   11418      39   11424   11421      40   11430   11427
      39   11433   11427      39   11433   11430      40   11439   11436      39
   11442   11436      39   11442   11439      40   11448   11445      39   11451
   11445      39   11451   11448      40   11457   11454      39   11460   11454
      39   11460   11457      40   11466   11463      39   11469   11463      39
   11469   11466      40   11475   11472      39   11478   11472      39   11478
   11475      40   11484   11481      39   11487   11481      39   11487   11484
      40   11493   11490      39   11496   11490      39   11496   11493      40
   11502   11499      39   11505   11499      39   11505   11502      40   11511
   11508      39   11514   11508      39   11514   11511      40   11520   11517
      39   11523   11517      39   11523   11520      40   11529   11526      39
   11532   11526      39   11532   11529      40   11538   11535      39   11541
   11535      39   11541   11538      40   11547   11544      39   11550   11544
      39   11550   11547      40   11556   11553      39   11559   11553      39
   11559   11556      40   11565   11562      39   11568   11562      39   11568
   11565      40   11574   11571      39   11577   11571      39   11577   11574
      40   11583   11580      39   11586   11580      39   11586   11583      40
   11592   11589      39   11595   11589      39   11595   11592      40   11601
   11598      39   11604   11598      39   11604   11601      40   11610   11607
      39   11613   11607      39   11613   11610      40   11619   11616      39
   11622   11616      39   11622   11619      40   11628   11625      39   11631
   11625      39   11631   11628      40   11637   11634      39   11640   11634
      39   11640   11637      40   11646   11643      39   11649   11643      39
   11649   11646      40   11655   11652      39   11658   11652      39   11658
   11655      40   11664   11661      39   11667   11661      39   11667   11664
      40   11673   11670      39   11676   11670      39   11676   11673      40
   11682   11679      39   11685   11679      39   11685   11682      40   11691
   11688      39   11694   11688      39   11694   11691      40   11700   11697
      39   11703   11697      39   11703   11700      40   11709   11706      39
   11712   11706      39   11712   11709      40   11718   11715      39   11721
   11715      39   11721   11718      40   11727   11724      39   11730   11724
      39   11730   11727      40   11736   11733      39   11739   11733      39
   11739   11736      40   11745   11742      39   11748   11742      39   11748
   11745      40   11754   11751      39   11757   11751      39   11757   11754
      40   11763   11760      39   11766   11760      39   11766   11763      40
   11772   11769      39   11775   11769      39   11775   11772      40   11781
   11778      39   11784   11778      39   11784   11781      40   11790   11787
      39   11793   11787      39   11793   11790      40   11799   11796      39
   11802   11796      39   11802   11799      40   11808   11805      39   11811
   11805      39   11811   11808      40   11817   11814      39   11820   11814
      39   11820   11817      40   11826   11823      39   11829   11823      39
   11829   11826      40   11835   11832      39   11838   11832      39   11838
   11835      40   11844   11841      39   11847   11841      39   11847   11844
      40   11853   11850      39   11856   11850      39   11856   11853      40
   11862   11859      39   11865   11859      39   11865   11862      40   11871
   11868      39   11874   11868      39   11874   11871      40   11880   11877
      39   11883   11877      39   11883   11880      40   11889   11886      39
   11892   11886      39   11892   11889      40   11898   11895      39   11901
   11895      39   11901   11898      40   11907   11904      39   11910   11904
      39   11910   11907      40   11916   11913      39   11919   11913      39
   11919   11916      40   11925   11922      39   11928   11922      39   11928
   11925      40   11934   11931      39   11937   11931      39   11937   11934
      40   11943   11940      39   11946   11940      39   11946   11943      40
   11952   11949      39   11955   11949      39   11955   11952      40   11961
   11958      39   11964   11958      39   11964   11961      40   11970   11967
      39   11973   11967      39   11973   11970      40   11979   11976      39
   11982   11976      39   11982   11979      40   11988   11985      39   11991
   11985      39   11991   11988      40   11997   11994      39   12000   11994
      39   12000   11997      40   12006   12003      39   12009   12003      39
   12009   12006      40   12015   12012      39   12018   12012      39   12018
   12015      40   12024   12021      39   12027   12021      39   12027   12024
      40   12033   12030      39   12036   12030      39   12036   12033      40
   12042   12039      39   12045   12039      39   12045   12042      40   12051
   12048      39   12054   12048      39   12054   12051      40   12060   12057
      39   12063   12057      39   12063   12060      40   12069   12066      39
   12072   12066      39   12072   12069      40   12078   12075      39   12081
   12075      39   12081   12078      40   12087   12084      39   12090   12084
      39   12090   12087      40   12096   12093      39   12099   12093      39
   12099   12096      40   12105   12102      39   12108   12102      39   12108
   12105      40   12114   12111      39   12117   12111      39   12117   12114
      40   12123   12120      39   12126   12120      39   12126   12123      40
   12132   12129      39   12135   12129      39   12135   12132      40   12141
   12138      39   12144   12138      39   12144   12141      40   12150   12147
      39   12153   12147      39   12153   12150      40   12159   12156      39
   12162   12156      39   12162   12159      40   12168   12165      39   12171
   12165      39   12171   12168      40   12177   12174      39   12180   12174
      39   12180   12177      40   12186   12183      39   12189   12183      39
   12189   12186      40   12195   12192      39   12198   12192      39   12198
   12195      40   12204   12201      39   12207   12201      39   12207   12204
      40   12213   12210      39   12216   12210      39   12216   12213      40
   12222   12219      39   12225   12219      39   12225   12222      40   12231
   12228      39   12234   12228      39   12234   12231      40   12240   12237
      39   12243   12237      39   12243   12240      40   12249   12246      39
   12252   12246      39   12252   12249      40   12258   12255      39   12261
   12255      39   12261   12258      40   12267   12264      39   12270   12264
      39   12270   12267      40   12276   12273      39   12279   12273      39
   12279   12276      40   12285   12282      39   12288   12282      39   12288
   12285      40   12294   12291      39   12297   12291      39   12297   12294
      40   12303   12300      39   12306   12300      39   12306   12303      40
   12312   12309      39   12315   12309      39   12315   12312      40   12321
   12318      39   12324   12318      39   12324   12321      40   12330   12327
      39   12333   12327      39   12333   12330      40   12339   12336      39
   12342   12336      39   12342   12339      40   12348   12345      39   12351
   12345      39   12351   12348      40   12357   12354      39   12360   12354
      39   12360   12357      40   12366   12363      39   12369   12363      39
   12369   12366      40   12375   12372      39   12378   12372      39   12378
   12375      40   12384   12381      39   12387   12381      39   12387   12384
      40   12393   12390      39   12396   12390      39   12396   12393      40
   12402   12399      39   12405   12399      39   12405   12402      40   12411
   12408      39   12414   12408      39   12414   12411      40   12420   12417
      39   12423   12417      39   12423   12420      40   12429   12426      39
   12432   12426      39   12432   12429      40   12438   12435      39   12441
   12435      39   12441   12438      40   12447   12444      39   12450   12444
      39   12450   12447      40   12456   12453      39   12459   12453      39
   12459   12456      40   12465   12462      39   12468   12462      39   12468
   12465      40   12474   12471      39   12477   12471      39   12477   12474
      40   12483   12480      39   12486   12480      39   12486   12483      40
   12492   12489      39   12495   12489      39   12495   12492      40   12501
   12498      39   12504   12498      39   12504   12501      40   12510   12507
      39   12513   12507      39   12513   12510      40   12519   12516      39
   12522   12516      39   12522   12519      40   12528   12525      39   12531
   12525      39   12531   12528      40   12537   12534      39   12540   12534
      39   12540   12537      40   12546   12543      39   12549   12543      39
   12549   12546      40   12555   12552      39   12558   12552      39   12558
   12555      40   12564   12561      39   12567   12561      39   12567   12564
      40   12573   12570      39   12576   12570      39   12576   12573      40
   12582   12579      39   12585   12579      39   12585   12582      40   12591
   12588      39   12594   12588      39   12594   12591      40   12600   12597
      39   12603   12597      39   12603   12600      40   12609   12606      39
   12612   12606      39   12612   12609      40   12618   12615      39   12621
   12615      39   12621   12618      40   12627   12624      39   12630   12624
      39   12630   12627      40   12636   12633      39   12639   12633      39
   12639   12636      40   12645   12642      39   12648   12642      39   12648
   12645      40   12654   12651      39   12657   12651      39   12657   12654
      40   12663   12660      39   12666   12660      39   12666   12663      40
   12672   12669      39   12675   12669      39   12675   12672      40   12681
   12678      39   12684   12678      39   12684   12681      40   12690   12687
      39   12693   12687      39   12693   12690      40   12699   12696      39
   12702   12696      39   12702   12699      40   12708   12705      39   12711
   12705      39   12711   12708      40   12717   12714      39   12720   12714
      39   12720   12717      40   12726   12723      39   12729   12723      39
   12729   12726      40   12735   12732      39   12738   12732      39   12738
   12735      40   12744   12741      39   12747   12741      39   12747   12744
      40   12753   12750      39   12756   12750      39   12756   12753      40
   12762   12759      39   12765   12759      39   12765   12762      40   12771
   12768      39   12774   12768      39   12774   12771      40   12780   12777
      39   12783   12777      39   12783   12780      40   12789   12786      39
   12792   12786      39   12792   12789      40   12798   12795      39   12801
   12795      39   12801   12798      40   12807   12804      39   12810   12804
      39   12810   12807      40   12816   12813      39   12819   12813      39
   12819   12816      40   12825   12822      39   12828   12822      39   12828
   12825      40   12834   12831      39   12837   12831      39   12837   12834
      40   12843   12840      39   12846   12840      39   12846   12843      40
   12852   12849      39   12855   12849      39   12855   12852      40   12861
   12858      39   12864   12858      39   12864   12861      40   12870   12867
      39   12873   12867      39   12873   12870      40   12879   12876      39
   12882   12876      39   12882   12879      40   12888   12885      39   12891
   12885      39   12891   12888      40   12897   12894      39   12900   12894
      39   12900   12897      40   12906   12903      39   12909   12903      39
   12909   12906      40   12915   12912      39   12918   12912      39   12918
   12915      40   12924   12921      39   12927   12921      39   12927   12924
      40   12933   12930      39   12936   12930      39   12936   12933      40
   12942   12939      39   12945   12939      39   12945   12942      40   12951
   12948      39   12954   12948      39   12954   12951      40   12960   12957
      39   12963   12957      39   12963   12960      40   12969   12966      39
   12972   12966      39   12972   12969      40   12978   12975      39   12981
   12975      39   12981   12978      40   12987   12984      39   12990   12984
      39   12990   12987      40   12996   12993      39   12999   12993      39
   12999   12996      40   13005   13002      39   13008   13002      39   13008
   13005      40   13014   13011      39   13017   13011      39   13017   13014
      40   13023   13020      39   13026   13020      39   13026   13023      40
   13032   13029      39   13035   13029      39   13035   13032      40   13041
   13038      39   13044   13038      39   13044   13041      40   13050   13047
      39   13053   13047      39   13053   13050      40   13059   13056      39
   13062   13056      39   13062   13059      40   13068   13065      39   13071
   13065      39   13071   13068      40   13077   13074      39   13080   13074
      39   13080   13077      40   13086   13083      39   13089   13083      39
   13089   13086      40   13095   13092      39   13098   13092      39   13098
   13095      40   13104   13101      39   13107   13101      39   13107   13104
      40   13113   13110      39   13116   13110      39   13116   13113      40
   13122   13119      39   13125   13119      39   13125   13122      40   13131
   13128      39   13134   13128      39   13134   13131      40   13140   13137
      39   13143   13137      39   13143   13140      40   13149   13146      39
   13152   13146      39   13152   13149      40   13158   13155      39   13161
   13155      39   13161   13158      40   13167   13164      39   13170   13164
      39   13170   13167      40   13176   13173      39   13179   13173      39
   13179   13176      40   13185   13182      39   13188   13182      39   13188
   13185      40   13194   13191      39   13197   13191      39   13197   13194
      40   13203   13200      39   13206   13200      39   13206   13203      40
   13212   13209      39   13215   13209      39   13215   13212      40   13221
   13218      39   13224   13218      39   13224   13221      40   13230   13227
      39   13233   13227      39   13233   13230      40   13239   13236      39
   13242   13236      39   13242   13239      40   13248   13245      39   13251
   13245      39   13251   13248      40   13257   13254      39   13260   13254
      39   13260   13257      40   13266   13263      39   13269   13263      39
   13269   13266      40   13275   13272      39   13278   13272      39   13278
   13275      40   13284   13281      39   13287   13281      39   13287   13284
      40   13293   13290      39   13296   13290      39   13296   13293      40
   13302   13299      39   13305   13299      39   13305   13302      40   13311
   13308      39   13314   13308      39   13314   13311      40   13320   13317
      39   13323   13317      39   13323   13320      40   13329   13326      39
   13332   13326      39   13332   13329      40   13338   13335      39   13341
   13335      39   13341   13338      40   13347   13344      39   13350   13344
      39   13350   13347      40   13356   13353      39   13359   13353      39
   13359   13356      40   13365   13362      39   13368   13362      39   13368
   13365      40   13374   13371      39   13377   13371      39   13377   13374
      40   13383   13380      39   13386   13380      39   13386   13383      40
   13392   13389      39   13395   13389      39   13395   13392      40   13401
   13398      39   13404   13398      39   13404   13401      40   13410   13407
      39   13413   13407      39   13413   13410      40   13419   13416      39
   13422   13416      39   13422   13419      40   13428   13425      39   13431
   13425      39   13431   13428      40   13437   13434      39   13440   13434
      39   13440   13437      40   13446   13443      39   13449   13443      39
   13449   13446      40   13455   13452      39   13458   13452      39   13458
   13455      40   13464   13461      39   13467   13461      39   13467   13464
      40   13473   13470      39   13476   13470      39   13476   13473      40
   13482   13479      39   13485   13479      39   13485   13482      40   13491
   13488      39   13494   13488      39   13494   13491      40   13500   13497
      39   13503   13497      39   13503   13500      40   13509   13506      39
   13512   13506      39   13512   13509      40   13518   13515      39   13521
   13515      39   13521   13518      40   13527   13524      39   13530   13524
      39   13530   13527      40   13536   13533      39   13539   13533      39
   13539   13536      40   13545   13542      39   13548   13542      39   13548
   13545      40   13554   13551      39   13557   13551      39   13557   13554
      40   13563   13560      39   13566   13560      39   13566   13563      40
   13572   13569      39   13575   13569      39   13575   13572      40   13581
   13578      39   13584   13578      39   13584   13581      40   13590   13587
      39   13593   13587      39   13593   13590      40   13599   13596      39
   13602   13596      39   13602   13599      40   13608   13605      39   13611
   13605      39   13611   13608      40   13617   13614      39   13620   13614
      39   13620   13617      40   13626   13623      39   13629   13623      39
   13629   13626      40   13635   13632      39   13638   13632      39   13638
   13635      40   13644   13641      39   13647   13641      39   13647   13644
      40   13653   13650      39   13656   13650      39   13656   13653      40
   13662   13659      39   13665   13659      39   13665   13662      40   13671
   13668      39   13674   13668      39   13674   13671      40   13680   13677
      39   13683   13677      39   13683   13680      40   13689   13686      39
   13692   13686      39   13692   13689      40   13698   13695      39   13701
   13695      39   13701   13698      40   13707   13704      39   13710   13704
      39   13710   13707      40   13716   13713      39   13719   13713      39
   13719   13716      40   13725   13722      39   13728   13722      39   13728
   13725      40   13734   13731      39   13737   13731      39   13737   13734
      40   13743   13740      39   13746   13740      39   13746   13743      40
   13752   13749      39   13755   13749      39   13755   13752      40   13761
   13758      39   13764   13758      39   13764   13761      40   13770   13767
      39   13773   13767      39   13773   13770      40   13779   13776      39
   13782   13776      39   13782   13779      40   13788   13785      39   13791
   13785      39   13791   13788      40   13797   13794      39   13800   13794
      39   13800   13797      40   13806   13803      39   13809   13803      39
   13809   13806      40   13815   13812      39   13818   13812      39   13818
   13815      40   13824   13821      39   13827   13821      39   13827   13824
      40   13833   13830      39   13836   13830      39   13836   13833      40
   13842   13839      39   13845   13839      39   13845   13842      40   13851
   13848      39   13854   13848      39   13854   13851      40   13860   13857
      39   13863   13857      39   13863   13860      40   13869   13866      39
   13872   13866      39   13872   13869      40   13878   13875      39   13881
   13875      39   13881   13878      40   13887   13884      39   13890   13884
      39   13890   13887      40   13896   13893      39   13899   13893      39
   13899   13896      40   13905   13902      39   13908   13902      39   13908
   13905      40   13914   13911      39   13917   13911      39   13917   13914
      40   13923   13920      39   13926   13920      39   13926   13923      40
   13932   13929      39   13935   13929      39   13935   13932      40   13941
   13938      39   13944   13938      39   13944   13941      40   13950   13947
      39   13953   13947      39   13953   13950      40   13959   13956      39
   13962   13956      39   13962   13959      40   13968   13965      39   13971
   13965      39   13971   13968      40   13977   13974      39   13980   13974
      39   13980   13977      40   13986   13983      39   13989   13983      39
   13989   13986      40   13995   13992      39   13998   13992      39   13998
   13995      40   14004   14001      39   14007   14001      39   14007   14004
      40   14013   14010      39   14016   14010      39   14016   14013      40
   14022   14019      39   14025   14019      39   14025   14022      40   14031
   14028      39   14034   14028      39   14034   14031      40   14040   14037
      39   14043   14037      39   14043   14040      40   14049   14046      39
   14052   14046      39   14052   14049      40   14058   14055      39   14061
   14055      39   14061   14058      40   14067   14064      39   14070   14064
      39   14070   14067      40   14076   14073      39   14079   14073      39
   14079   14076      40   14085   14082      39   14088   14082      39   14088
   14085      40   14094   14091      39   14097   14091      39   14097   14094
      40   14103   14100      39   14106   14100      39   14106   14103      40
   14112   14109      39   14115   14109      39   14115   14112      40   14121
   14118      39   14124   14118      39   14124   14121      40   14130   14127
      39   14133   14127      39   14133   14130      40   14139   14136      39
   14142   14136      39   14142   14139      40   14148   14145      39   14151
   14145      39   14151   14148      40   14157   14154      39   14160   14154
      39   14160   14157      40   14166   14163      39   14169   14163      39
   14169   14166      40   14175   14172      39   14178   14172      39   14178
   14175      40   14184   14181      39   14187   14181      39   14187   14184
      40   14193   14190      39   14196   14190      39   14196   14193      40
   14202   14199      39   14205   14199      39   14205   14202      40   14211
   14208      39   14214   14208      39   14214   14211      40   14220   14217
      39   14223   14217      39   14223   14220      40   14229   14226      39
   14232   14226      39   14232   14229      40   14238   14235      39   14241
   14235      39   14241   14238      40   14247   14244      39   14250   14244
      39   14250   14247      40   14256   14253      39   14259   14253      39
   14259   14256      40   14265   14262      39   14268   14262      39   14268
   14265      40   14274   14271      39   14277   14271      39   14277   14274
      40   14283   14280      39   14286   14280      39   14286   14283      40
   14292   14289      39   14295   14289      39   14295   14292      40   14301
   14298      39   14304   14298      39   14304   14301      40   14310   14307
      39   14313   14307      39   14313   14310      40   14319   14316      39
   14322   14316      39   14322   14319      40   14328   14325      39   14331
   14325      39   14331   14328      40   14337   14334      39   14340   14334
      39   14340   14337      40   14346   14343      39   14349   14343      39
   14349   14346      40   14355   14352      39   14358   14352      39   14358
   14355      40   14364   14361      39   14367   14361      39   14367   14364
      40   14373   14370      39   14376   14370      39   14376   14373      40
   14382   14379      39   14385   14379      39   14385   14382      40   14391
   14388      39   14394   14388      39   14394   14391      40   14400   14397
      39   14403   14397      39   14403   14400      40   14409   14406      39
   14412   14406      39   14412   14409      40   14418   14415      39   14421
   14415      39   14421   14418      40   14427   14424      39   14430   14424
      39   14430   14427      40   14436   14433      39   14439   14433      39
   14439   14436      40   14445   14442      39   14448   14442      39   14448
   14445      40   14454   14451      39   14457   14451      39   14457   14454
      40   14463   14460      39   14466   14460      39   14466   14463      40
   14472   14469      39   14475   14469      39   14475   14472      40   14481
   14478      39   14484   14478      39   14484   14481      40   14490   14487
      39   14493   14487      39   14493   14490      40   14499   14496      39
   14502   14496      39   14502   14499      40   14508   14505      39   14511
   14505      39   14511   14508      40   14517   14514      39   14520   14514
      39   14520   14517      40   14526   14523      39   14529   14523      39
   14529   14526      40   14535   14532      39   14538   14532      39   14538
   14535      40   14544   14541      39   14547   14541      39   14547   14544
      40   14553   14550      39   14556   14550      39   14556   14553      40
   14562   14559      39   14565   14559      39   14565   14562      40   14571
   14568      39   14574   14568      39   14574   14571      40   14580   14577
      39   14583   14577      39   14583   14580      40   14589   14586      39
   14592   14586      39   14592   14589      40   14598   14595      39   14601
   14595      39   14601   14598      40   14607   14604      39   14610   14604
      39   14610   14607      40   14616   14613      39   14619   14613      39
   14619   14616      40   14625   14622      39   14628   14622      39   14628
   14625      40   14634   14631      39   14637   14631      39   14637   14634
      40   14643   14640      39   14646   14640      39   14646   14643      40
   14652   14649      39   14655   14649      39   14655   14652      40   14661
   14658      39   14664   14658      39   14664   14661      40   14670   14667
      39   14673   14667      39   14673   14670      40   14679   14676      39
   14682   14676      39   14682   14679      40   14688   14685      39   14691
   14685      39   14691   14688      40   14697   14694      39   14700   14694
      39   14700   14697      40   14706   14703      39   14709   14703      39
   14709   14706      40   14715   14712      39   14718   14712      39   14718
   14715      40   14724   14721      39   14727   14721      39   14727   14724
      40   14733   14730      39   14736   14730      39   14736   14733      40
   14742   14739      39   14745   14739      39   14745   14742      40   14751
   14748      39   14754   14748      39   14754   14751      40   14760   14757
      39   14763   14757      39   14763   14760      40   14769   14766      39
   14772   14766      39   14772   14769      40   14778   14775      39   14781
   14775      39   14781   14778      40   14787   14784      39   14790   14784
      39   14790   14787      40   14796   14793      39   14799   14793      39
   14799   14796      40   14805   14802      39   14808   14802      39   14808
   14805      40   14814   14811      39   14817   14811      39   14817   14814
      40   14823   14820      39   14826   14820      39   14826   14823      40
   14832   14829      39   14835   14829      39   14835   14832      40   14841
   14838      39   14844   14838      39   14844   14841      40   14850   14847
      39   14853   14847      39   14853   14850      40   14859   14856      39
   14862   14856      39   14862   14859      40   14868   14865      39   14871
   14865      39   14871   14868      40   14877   14874      39   14880   14874
      39   14880   14877      40   14886   14883      39   14889   14883      39
   14889   14886      40   14895   14892      39   14898   14892      39   14898
   14895      40   14904   14901      39   14907   14901      39   14907   14904
      40   14913   14910      39   14916   14910      39   14916   14913      40
   14922   14919      39   14925   14919      39   14925   14922      40   14931
   14928      39   14934   14928      39   14934   14931      40   14940   14937
      39   14943   14937      39   14943   14940      40   14949   14946      39
   14952   14946      39   14952   14949      40   14958   14955      39   14961
   14955      39   14961   14958      40   14967   14964      39   14970   14964
      39   14970   14967      40   14976   14973      39   14979   14973      39
   14979   14976      40   14985   14982      39   14988   14982      39   14988
   14985      40   14994   14991      39   14997   14991      39   14997   14994
      40   15003   15000      39   15006   15000      39   15006   15003      40
   15012   15009      39   15015   15009      39   15015   15012      40   15021
   15018      39   15024   15018      39   15024   15021      40   15030   15027
      39   15033   15027      39   15033   15030      40   15039   15036      39
   15042   15036      39   15042   15039      40   15048   15045      39   15051
   15045      39   15051   15048      40   15057   15054      39   15060   15054
      39   15060   15057      40   15066   15063      39   15069   15063      39
   15069   15066      40   15075   15072      39   15078   15072      39   15078
   15075      40   15084   15081      39   15087   15081      39   15087   15084
      40   15093   15090      39   15096   15090      39   15096   15093      40
   15102   15099      39   15105   15099      39   15105   15102      40   15111
   15108      39   15114   15108      39   15114   15111      40   15120   15117
      39   15123   15117      39   15123   15120      40   15129   15126      39
   15132   15126      39   15132   15129      40   15138   15135      39   15141
   15135      39   15141   15138      40   15147   15144      39   15150   15144
      39   15150   15147      40   15156   15153      39   15159   15153      39
   15159   15156      40   15165   15162      39   15168   15162      39   15168
   15165      40   15174   15171      39   15177   15171      39   15177   15174
      40   15183   15180      39   15186   15180      39   15186   15183      40
   15192   15189      39   15195   15189      39   15195   15192      40   15201
   15198      39   15204   15198      39   15204   15201      40   15210   15207
      39   15213   15207      39   15213   15210      40   15219   15216      39
   15222   15216      39   15222   15219      40   15228   15225      39   15231
   15225      39   15231   15228      40   15237   15234      39   15240   15234
      39   15240   15237      40   15246   15243      39   15249   15243      39
   15249   15246      40   15255   15252      39   15258   15252      39   15258
   15255      40   15264   15261      39   15267   15261      39   15267   15264
      40   15273   15270      39   15276   15270      39   15276   15273      40
   15282   15279      39   15285   15279      39   15285   15282      40   15291
   15288      39   15294   15288      39   15294   15291      40   15300   15297
      39   15303   15297      39   15303   15300      40   15309   15306      39
   15312   15306      39   15312   15309      40   15318   15315      39   15321
   15315      39   15321   15318      40   15327   15324      39   15330   15324
      39   15330   15327      40   15336   15333      39   15339   15333      39
   15339   15336      40   15345   15342      39   15348   15342      39   15348
   15345      40   15354   15351      39   15357   15351      39   15357   15354
      40   15363   15360      39   15366   15360      39   15366   15363      40
   15372   15369      39   15375   15369      39   15375   15372      40   15381
   15378      39   15384   15378      39   15384   15381      40   15390   15387
      39   15393   15387      39   15393   15390      40   15399   15396      39
   15402   15396      39   15402   15399      40   15408   15405      39   15411
   15405      39   15411   15408      40   15417   15414      39   15420   15414
      39   15420   15417      40   15426   15423      39   15429   15423      39
   15429   15426      40   15435   15432      39   15438   15432      39   15438
   15435      40   15444   15441      39   15447   15441      39   15447   15444
      40   15453   15450      39   15456   15450      39   15456   15453      40
   15462   15459      39   15465   15459      39   15465   15462      40   15471
   15468      39   15474   15468      39   15474   15471      40   15480   15477
      39   15483   15477      39   15483   15480      40   15489   15486      39
   15492   15486      39   15492   15489      40   15498   15495      39   15501
   15495      39   15501   15498      40   15507   15504      39   15510   15504
      39   15510   15507      40   15516   15513      39   15519   15513      39
   15519   15516      40   15525   15522      39   15528   15522      39   15528
   15525      40   15534   15531      39   15537   15531      39   15537   15534
      40   15543   15540      39   15546   15540      39   15546   15543      40
   15552   15549      39   15555   15549      39   15555   15552      40   15561
   15558      39   15564   15558      39   15564   15561      40   15570   15567
      39   15573   15567      39   15573   15570      40   15579   15576      39
   15582   15576      39   15582   15579      40   15588   15585      39   15591
   15585      39   15591   15588      40   15597   15594      39   15600   15594
      39   15600   15597      40   15606   15603      39   15609   15603      39
   15609   15606      40   15615   15612      39   15618   15612      39   15618
   15615      40   15624   15621      39   15627   15621      39   15627   15624
      40   15633   15630      39   15636   15630      39   15636   15633      40
   15642   15639      39   15645   15639      39   15645   15642      40   15651
   15648      39   15654   15648      39   15654   15651      40   15660   15657
      39   15663   15657      39   15663   15660      40   15669   15666      39
   15672   15666      39   15672   15669      40   15678   15675      39   15681
   15675      39   15681   15678      40   15687   15684      39   15690   15684
      39   15690   15687      40   15696   15693      39   15699   15693      39
   15699   15696      40   15705   15702      39   15708   15702      39   15708
   15705      40   15714   15711      39   15717   15711      39   15717   15714
      40   15723   15720      39   15726   15720      39   15726   15723      40
   15732   15729      39   15735   15729      39   15735   15732      40   15741
   15738      39   15744   15738      39   15744   15741      40   15750   15747
      39   15753   15747      39   15753   15750      40   15759   15756      39
   15762   15756      39   15762   15759      40   15768   15765      39   15771
   15765      39   15771   15768      40   15777   15774      39   15780   15774
      39   15780   15777      40   15786   15783      39   15789   15783      39
   15789   15786      40   15795   15792      39   15798   15792      39   15798
   15795      40   15804   15801      39   15807   15801      39   15807   15804
      40   15813   15810      39   15816   15810      39   15816   15813      40
   15822   15819      39   15825   15819      39   15825   15822      40   15831
   15828      39   15834   15828      39   15834   15831      40   15840   15837
      39   15843   15837      39   15843   15840      40   15849   15846      39
   15852   15846      39   15852   15849      40   15858   15855      39   15861
   15855      39   15861   15858      40   15867   15864      39   15870   15864
      39   15870   15867      40   15876   15873      39   15879   15873      39
   15879   15876      40   15885   15882      39   15888   15882      39   15888
   15885      40   15894   15891      39   15897   15891      39   15897   15894
      40   15903   15900      39   15906   15900      39   15906   15903      40
   15912   15909      39   15915   15909      39   15915   15912      40   15921
   15918      39   15924   15918      39   15924   15921      40   15930   15927
      39   15933   15927      39   15933   15930      40   15939   15936      39
   15942   15936      39   15942   15939      40   15948   15945      39   15951
   15945      39   15951   15948      40   15957   15954      39   15960   15954
      39   15960   15957      40   15966   15963      39   15969   15963      39
   15969   15966      40   15975   15972      39   15978   15972      39   15978
   15975      40   15984   15981      39   15987   15981      39   15987   15984
      40   15993   15990      39   15996   15990      39   15996   15993      40
   16002   15999      39   16005   15999      39   16005   16002      40   16011
   16008      39   16014   16008      39   16014   16011      40   16020   16017
      39   16023   16017      39   16023   16020      40   16029   16026      39
   16032   16026      39   16032   16029      40   16038   16035      39   16041
   16035      39   16041   16038      40   16047   16044      39   16050   16044
      39   16050   16047      40   16056   16053      39   16059   16053      39
   16059   16056      40   16065   16062      39   16068   16062      39   16068
   16065      40   16074   16071      39   16077   16071      39   16077   16074
      40   16083   16080      39   16086   16080      39   16086   16083      40
   16092   16089      39   16095   16089      39   16095   16092      40   16101
   16098      39   16104   16098      39   16104   16101      40   16110   16107
      39   16113   16107      39   16113   16110      40   16119   16116      39
   16122   16116      39   16122   16119      40   16128   16125      39   16131
   16125      39   16131   16128      40   16137   16134      39   16140   16134
      39   16140   16137      40   16146   16143      39   16149   16143      39
   16149   16146      40   16155   16152      39   16158   16152      39   16158
   16155      40   16164   16161      39   16167   16161      39   16167   16164
      40   16173   16170      39   16176   16170      39   16176   16173      40
   16182   16179      39   16185   16179      39   16185   16182      40   16191
   16188      39   16194   16188      39   16194   16191      40   16200   16197
      39   16203   16197      39   16203   16200      40   16209   16206      39
   16212   16206      39   16212   16209      40   16218   16215      39   16221
   16215      39   16221   16218      40   16227   16224      39   16230   16224
      39   16230   16227      40   16236   16233      39   16239   16233      39
   16239   16236      40   16245   16242      39   16248   16242      39   16248
   16245      40   16254   16251      39   16257   16251      39   16257   16254
      40   16263   16260      39   16266   16260      39   16266   16263      40
   16272   16269      39   16275   16269      39   16275   16272      40   16281
   16278      39   16284   16278      39   16284   16281      40   16290   16287
      39   16293   16287      39   16293   16290      40   16299   16296      39
   16302   16296      39   16302   16299      40   16308   16305      39   16311
   16305      39   16311   16308      40   16317   16314      39   16320   16314
      39   16320   16317      40   16326   16323      39   16329   16323      39
   16329   16326      40   16335   16332      39   16338   16332      39   16338
   16335      40   16344   16341      39   16347   16341      39   16347   16344
      40   16353   16350      39   16356   16350      39   16356   16353      40
   16362   16359      39   16365   16359      39   16365   16362      40   16371
   16368      39   16374   16368      39   16374   16371      40   16380   16377
      39   16383   16377      39   16383   16380      40   16389   16386      39
   16392   16386      39   16392   16389      40   16398   16395      39   16401
   16395      39   16401   16398      40   16407   16404      39   16410   16404
      39   16410   16407      40   16416   16413      39   16419   16413      39
   16419   16416      40   16425   16422      39   16428   16422      39   16428
   16425      40   16434   16431      39   16437   16431      39   16437   16434
      40   16443   16440      39   16446   16440      39   16446   16443      40
   16452   16449      39   16455   16449      39   16455   16452      40   16461
   16458      39   16464   16458      39   16464   16461      40   16470   16467
      39   16473   16467      39   16473   16470      40   16479   16476      39
   16482   16476      39   16482   16479      40   16488   16485      39   16491
   16485      39   16491   16488      40   16497   16494      39   16500   16494
      39   16500   16497      40   16506   16503      39   16509   16503      39
   16509   16506      40   16515   16512      39   16518   16512      39   16518
   16515      40   16524   16521      39   16527   16521      39   16527   16524
      40   16533   16530      39   16536   16530      39   16536   16533      40
   16542   16539      39   16545   16539      39   16545   16542      40   16551
   16548      39   16554   16548      39   16554   16551      40   16560   16557
      39   16563   16557      39   16563   16560      40   16569   16566      39
   16572   16566      39   16572   16569      40   16578   16575      39   16581
   16575      39   16581   16578      40   16587   16584      39   16590   16584
      39   16590   16587      40   16596   16593      39   16599   16593      39
   16599   16596      40   16605   16602      39   16608   16602      39   16608
   16605      40   16614   16611      39   16617   16611      39   16617   16614
      40   16623   16620      39   16626   16620      39   16626   16623      40
   16632   16629      39   16635   16629      39   16635   16632      40   16641
   16638      39   16644   16638      39   16644   16641      40   16650   16647
      39   16653   16647      39   16653   16650      40   16659   16656      39
   16662   16656      39   16662   16659      40   16668   16665      39   16671
   16665      39   16671   16668      40   16677   16674      39   16680   16674
      39   16680   16677      40   16686   16683      39   16689   16683      39
   16689   16686      40   16695   16692      39   16698   16692      39   16698
   16695      40   16704   16701      39   16707   16701      39   16707   16704
      40   16713   16710      39   16716   16710      39   16716   16713      40
   16722   16719      39   16725   16719      39   16725   16722      40   16731
   16728      39   16734   16728      39   16734   16731      40   16740   16737
      39   16743   16737      39   16743   16740      40   16749   16746      39
   16752   16746      39   16752   16749      40   16758   16755      39   16761
   16755      39   16761   16758      40   16767   16764      39   16770   16764
      39   16770   16767      40   16776   16773      39   16779   16773      39
   16779   16776      40   16785   16782      39   16788   16782      39   16788
   16785      40   16794   16791      39   16797   16791      39   16797   16794
      40   16803   16800      39   16806   16800      39   16806   16803      40
   16812   16809      39   16815   16809      39   16815   16812      40   16821
   16818      39   16824   16818      39   16824   16821      40   16830   16827
      39   16833   16827      39   16833   16830      40   16839   16836      39
   16842   16836      39   16842   16839      40   16848   16845      39   16851
   16845      39   16851   16848      40   16857   16854      39   16860   16854
      39   16860   16857      40   16866   16863      39   16869   16863      39
   16869   16866      40   16875   16872      39   16878   16872      39   16878
   16875      40   16884   16881      39   16887   16881      39   16887   16884
      40   16893   16890      39   16896   16890      39   16896   16893      40
   16902   16899      39   16905   16899      39   16905   16902      40   16911
   16908      39   16914   16908      39   16914   16911      40   16920   16917
      39   16923   16917      39   16923   16920      40   16929   16926      39
   16932   16926      39   16932   16929      40   16938   16935      39   16941
   16935      39   16941   16938      40   16947   16944      39   16950   16944
      39   16950   16947      40   16956   16953      39   16959   16953      39
   16959   16956      40   16965   16962      39   16968   16962      39   16968
   16965      40   16974   16971      39   16977   16971      39   16977   16974
      40   16983   16980      39   16986   16980      39   16986   16983      40
   16992   16989      39   16995   16989      39   16995   16992      40   17001
   16998      39   17004   16998      39   17004   17001      40   17010   17007
      39   17013   17007      39   17013   17010      40   17019   17016      39
   17022   17016      39   17022   17019      40   17028   17025      39   17031
   17025      39   17031   17028      40   17037   17034      39   17040   17034
      39   17040   17037      40   17046   17043      39   17049   17043      39
   17049   17046      40   17055   17052      39   17058   17052      39   17058
   17055      40   17064   17061      39   17067   17061      39   17067   17064
      40   17073   17070      39   17076   17070      39   17076   17073      40
   17082   17079      39   17085   17079      39   17085   17082      40   17091
   17088      39   17094   17088      39   17094   17091      40   17100   17097
      39   17103   17097      39   17103   17100      40   17109   17106      39
   17112   17106      39   17112   17109      40   17118   17115      39   17121
   17115      39   17121   17118      40   17127   17124      39   17130   17124
      39   17130   17127      40   17136   17133      39   17139   17133      39
   17139   17136      40   17145   17142      39   17148   17142      39   17148
   17145      40   17154   17151      39   17157   17151      39   17157   17154
      40   17163   17160      39   17166   17160      39   17166   17163      40
   17172   17169      39   17175   17169      39   17175   17172      40   17181
   17178      39   17184   17178      39   17184   17181      40   17190   17187
      39   17193   17187      39   17193   17190      40   17199   17196      39
   17202   17196      39   17202   17199      40   17208   17205      39   17211
   17205      39   17211   17208      40   17217   17214      39   17220   17214
      39   17220   17217      40   17226   17223      39   17229   17223      39
   17229   17226      40   17235   17232      39   17238   17232      39   17238
   17235      40   17244   17241      39   17247   17241      39   17247   17244
      40   17253   17250      39   17256   17250      39   17256   17253      40
   17262   17259      39   17265   17259      39   17265   17262      40   17271
   17268      39   17274   17268      39   17274   17271      40   17280   17277
      39   17283   17277      39   17283   17280      40   17289   17286      39
   17292   17286      39   17292   17289      40   17298   17295      39   17301
   17295      39   17301   17298      40   17307   17304      39   17310   17304
      39   17310   17307      40   17316   17313      39   17319   17313      39
   17319   17316      40   17325   17322      39   17328   17322      39   17328
   17325      40   17334   17331      39   17337   17331      39   17337   17334
      40   17343   17340      39   17346   17340      39   17346   17343      40
   17352   17349      39   17355   17349      39   17355   17352      40   17361
   17358      39   17364   17358      39   17364   17361      40   17370   17367
      39   17373   17367      39   17373   17370      40   17379   17376      39
   17382   17376      39   17382   17379      40   17388   17385      39   17391
   17385      39   17391   17388      40   17397   17394      39   17400   17394
      39   17400   17397      40   17406   17403      39   17409   17403      39
   17409   17406      40   17415   17412      39   17418   17412      39   17418
   17415      40   17424   17421      39   17427   17421      39   17427   17424
      40   17433   17430      39   17436   17430      39   17436   17433      40
   17442   17439      39   17445   17439      39   17445   17442      40   17451
   17448      39   17454   17448      39   17454   17451      40   17460   17457
      39   17463   17457      39   17463   17460      40   17469   17466      39
   17472   17466      39   17472   17469      40   17478   17475      39   17481
   17475      39   17481   17478      40   17487   17484      39   17490   17484
      39   17490   17487      40   17496   17493      39   17499   17493      39
   17499   17496      40   17505   17502      39   17508   17502      39   17508
   17505      40   17514   17511      39   17517   17511      39   17517   17514
      40   17523   17520      39   17526   17520      39   17526   17523      40
   17532   17529      39   17535   17529      39   17535   17532      40   17541
   17538      39   17544   17538      39   17544   17541      40   17550   17547
      39   17553   17547      39   17553   17550      40   17559   17556      39
   17562   17556      39   17562   17559      40   17568   17565      39   17571
   17565      39   17571   17568      40   17577   17574      39   17580   17574
      39   17580   17577      40   17586   17583      39   17589   17583      39
   17589   17586      40   17595   17592      39   17598   17592      39   17598
   17595      40   17604   17601      39   17607   17601      39   17607   17604
      40   17613   17610      39   17616   17610      39   17616   17613      40
   17622   17619      39   17625   17619      39   17625   17622      40   17631
   17628      39   17634   17628      39   17634   17631      40   17640   17637
      39   17643   17637      39   17643   17640      40   17649   17646      39
   17652   17646      39   17652   17649      40   17658   17655      39   17661
   17655      39   17661   17658      40   17667   17664      39   17670   17664
      39   17670   17667      40   17676   17673      39   17679   17673      39
   17679   17676      40   17685   17682      39   17688   17682      39   17688
   17685      40   17694   17691      39   17697   17691      39   17697   17694
      40   17703   17700      39   17706   17700      39   17706   17703      40
   17712   17709      39   17715   17709      39   17715   17712      40   17721
   17718      39   17724   17718      39   17724   17721      40   17730   17727
      39   17733   17727      39   17733   17730      40   17739   17736      39
   17742   17736      39   17742   17739      40   17748   17745      39   17751
   17745      39   17751   17748      40   17757   17754      39   17760   17754
      39   17760   17757      40   17766   17763      39   17769   17763      39
   17769   17766      40   17775   17772      39   17778   17772      39   17778
   17775      40   17784   17781      39   17787   17781      39   17787   17784
      40   17793   17790      39   17796   17790      39   17796   17793      40
   17802   17799      39   17805   17799      39   17805   17802      40   17811
   17808      39   17814   17808      39   17814   17811      40   17820   17817
      39   17823   17817      39   17823   17820      40   17829   17826      39
   17832   17826      39   17832   17829      40   17838   17835      39   17841
   17835      39   17841   17838      40   17847   17844      39   17850   17844
      39   17850   17847      40   17856   17853      39   17859   17853      39
   17859   17856      40   17865   17862      39   17868   17862      39   17868
   17865      40   17874   17871      39   17877   17871      39   17877   17874
      40   17883   17880      39   17886   17880      39   17886   17883      40
   17892   17889      39   17895   17889      39   17895   17892      40   17901
   17898      39   17904   17898      39   17904   17901      40   17910   17907
      39   17913   17907      39   17913   17910      40   17919   17916      39
   17922   17916      39   17922   17919      40   17928   17925      39   17931
   17925      39   17931   17928      40   17937   17934      39   17940   17934
      39   17940   17937      40   17946   17943      39   17949   17943      39
   17949   17946      40   17955   17952      39   17958   17952      39   17958
   17955      40   17964   17961      39   17967   17961      39   17967   17964
      40   17973   17970      39   17976   17970      39   17976   17973      40
   17982   17979      39   17985   17979      39   17985   17982      40   17991
   17988      39   17994   17988      39   17994   17991      40   18000   17997
      39   18003   17997      39   18003   18000      40   18009   18006      39
   18012   18006      39   18012   18009      40   18018   18015      39   18021
   18015      39   18021   18018      40   18027   18024      39   18030   18024
      39   18030   18027      40   18036   18033      39   18039   18033      39
   18039   18036      40   18045   18042      39   18048   18042      39   18048
   18045      40   18054   18051      39   18057   18051      39   18057   18054
      40   18063   18060      39   18066   18060      39   18066   18063      40
   18072   18069      39   18075   18069      39   18075   18072      40   18081
   18078      39   18084   18078      39   18084   18081      40   18090   18087
      39   18093   18087      39   18093   18090      40   18099   18096      39
   18102   18096      39   18102   18099      40   18108   18105      39   18111
   18105      39   18111   18108      40   18117   18114      39   18120   18114
      39   18120   18117      40   18126   18123      39   18129   18123      39
   18129   18126      40   18135   18132      39   18138   18132      39   18138
   18135      40   18144   18141      39   18147   18141      39   18147   18144
      40   18153   18150      39   18156   18150      39   18156   18153      40
   18162   18159      39   18165   18159      39   18165   18162      40   18171
   18168      39   18174   18168      39   18174   18171      40   18180   18177
      39   18183   18177      39   18183   18180      40   18189   18186      39
   18192   18186      39   18192   18189      40   18198   18195      39   18201
   18195      39   18201   18198      40   18207   18204      39   18210   18204
      39   18210   18207      40   18216   18213      39   18219   18213      39
   18219   18216      40   18225   18222      39   18228   18222      39   18228
   18225      40   18234   18231      39   18237   18231      39   18237   18234
      40   18243   18240      39   18246   18240      39   18246   18243      40
   18252   18249      39   18255   18249      39   18255   18252      40   18261
   18258      39   18264   18258      39   18264   18261      40   18270   18267
      39   18273   18267      39   18273   18270      40   18279   18276      39
   18282   18276      39   18282   18279      40   18288   18285      39   18291
   18285      39   18291   18288      40   18297   18294      39   18300   18294
      39   18300   18297      40   18306   18303      39   18309   18303      39
   18309   18306      40   18315   18312      39   18318   18312      39   18318
   18315      40   18324   18321      39   18327   18321      39   18327   18324
      40   18333   18330      39   18336   18330      39   18336   18333      40
   18342   18339      39   18345   18339      39   18345   18342      40   18351
   18348      39   18354   18348      39   18354   18351      40   18360   18357
      39   18363   18357      39   18363   18360      40   18369   18366      39
   18372   18366      39   18372   18369      40   18378   18375      39   18381
   18375      39   18381   18378      40   18387   18384      39   18390   18384
      39   18390   18387      40   18396   18393      39   18399   18393      39
   18399   18396      40   18405   18402      39   18408   18402      39   18408
   18405      40   18414   18411      39   18417   18411      39   18417   18414
      40   18423   18420      39   18426   18420      39   18426   18423      40
   18432   18429      39   18435   18429      39   18435   18432      40   18441
   18438      39   18444   18438      39   18444   18441      40   18450   18447
      39   18453   18447      39   18453   18450      40   18459   18456      39
   18462   18456      39   18462   18459      40   18468   18465      39   18471
   18465      39   18471   18468      40   18477   18474      39   18480   18474
      39   18480   18477      40   18486   18483      39   18489   18483      39
   18489   18486      40   18495   18492      39   18498   18492      39   18498
   18495      40   18504   18501      39   18507   18501      39   18507   18504
      40   18513   18510      39   18516   18510      39   18516   18513      40
   18522   18519      39   18525   18519      39   18525   18522      40   18531
   18528      39   18534   18528      39   18534   18531      40   18540   18537
      39   18543   18537      39   18543   18540      40   18549   18546      39
   18552   18546      39   18552   18549      40   18558   18555      39   18561
   18555      39   18561   18558      40   18567   18564      39   18570   18564
      39   18570   18567      40   18576   18573      39   18579   18573      39
   18579   18576      40   18585   18582      39   18588   18582      39   18588
   18585      40   18594   18591      39   18597   18591      39   18597   18594
      40   18603   18600      39   18606   18600      39   18606   18603      40
   18612   18609      39   18615   18609      39   18615   18612      40   18621
   18618      39   18624   18618      39   18624   18621      40   18630   18627
      39   18633   18627      39   18633   18630      40   18639   18636      39
   18642   18636      39   18642   18639      40   18648   18645      39   18651
   18645      39   18651   18648      40   18657   18654      39   18660   18654
      39   18660   18657      40   18666   18663      39   18669   18663      39
   18669   18666      40   18675   18672      39   18678   18672      39   18678
   18675      40   18684   18681      39   18687   18681      39   18687   18684
      40   18693   18690      39   18696   18690      39   18696   18693      40
   18702   18699      39   18705   18699      39   18705   18702      40   18711
   18708      39   18714   18708      39   18714   18711      40   18720   18717
      39   18723   18717      39   18723   18720      40   18729   18726      39
   18732   18726      39   18732   18729      40   18738   18735      39   18741
   18735      39   18741   18738      40   18747   18744      39   18750   18744
      39   18750   18747      40   18756   18753      39   18759   18753      39
   18759   18756      40   18765   18762      39   18768   18762      39   18768
   18765      40   18774   18771      39   18777   18771      39   18777   18774
      40   18783   18780      39   18786   18780      39   18786   18783      40
   18792   18789      39   18795   18789      39   18795   18792      40   18801
   18798      39   18804   18798      39   18804   18801      40   18810   18807
      39   18813   18807      39   18813   18810      40   18819   18816      39
   18822   18816      39   18822   18819      40   18828   18825      39   18831
   18825      39   18831   18828      40   18837   18834      39   18840   18834
      39   18840   18837      40   18846   18843      39   18849   18843      39
   18849   18846      40   18855   18852      39   18858   18852      39   18858
   18855      40   18864   18861      39   18867   18861      39   18867   18864
      40   18873   18870      39   18876   18870      39   18876   18873      40
   18882   18879      39   18885   18879      39   18885   18882      40   18891
   18888      39   18894   18888      39   18894   18891      40   18900   18897
      39   18903   18897      39   18903   18900      40   18909   18906      39
   18912   18906      39   18912   18909      40   18918   18915      39   18921
   18915      39   18921   18918      40   18927   18924      39   18930   18924
      39   18930   18927      40   18936   18933      39   18939   18933      39
   18939   18936      40   18945   18942      39   18948   18942      39   18948
   18945      40   18954   18951      39   18957   18951      39   18957   18954
      40   18963   18960      39   18966   18960      39   18966   18963      40
   18972   18969      39   18975   18969      39   18975   18972      40   18981
   18978      39   18984   18978      39   18984   18981      40   18990   18987
      39   18993   18987      39   18993   18990      40   18999   18996      39
   19002   18996      39   19002   18999      40   19008   19005      39   19011
   19005      39   19011   19008      40   19017   19014      39   19020   19014
      39   19020   19017      40   19026   19023      39   19029   19023      39
   19029   19026      40   19035   19032      39   19038   19032      39   19038
   19035      40   19044   19041      39   19047   19041      39   19047   19044
      40   19053   19050      39   19056   19050      39   19056   19053      40
   19062   19059      39   19065   19059      39   19065   19062      40   19071
   19068      39   19074   19068      39   19074   19071      40   19080   19077
      39   19083   19077      39   19083   19080      40   19089   19086      39
   19092   19086      39   19092   19089      40   19098   19095      39   19101
   19095      39   19101   19098      40   19107   19104      39   19110   19104
      39   19110   19107      40   19116   19113      39   19119   19113      39
   19119   19116      40   19125   19122      39   19128   19122      39   19128
   19125      40   19134   19131      39   19137   19131      39   19137   19134
      40   19143   19140      39   19146   19140      39   19146   19143      40
   19152   19149      39   19155   19149      39   19155   19152      40   19161
   19158      39   19164   19158      39   19164   19161      40   19170   19167
      39   19173   19167      39   19173   19170      40   19179   19176      39
   19182   19176      39   19182   19179      40   19188   19185      39   19191
   19185      39   19191   19188      40   19197   19194      39   19200   19194
      39   19200   19197      40   19206   19203      39   19209   19203      39
   19209   19206      40   19215   19212      39   19218   19212      39   19218
   19215      40   19224   19221      39   19227   19221      39   19227   19224
      40   19233   19230      39   19236   19230      39   19236   19233      40
   19242   19239      39   19245   19239      39   19245   19242      40   19251
   19248      39   19254   19248      39   19254   19251      40   19260   19257
      39   19263   19257      39   19263   19260      40   19269   19266      39
   19272   19266      39   19272   19269      40   19278   19275      39   19281
   19275      39   19281   19278      40   19287   19284      39   19290   19284
      39   19290   19287      40   19296   19293      39   19299   19293      39
   19299   19296      40   19305   19302      39   19308   19302      39   19308
   19305      40   19314   19311      39   19317   19311      39   19317   19314
      40   19323   19320      39   19326   19320      39   19326   19323      40
   19332   19329      39   19335   19329      39   19335   19332      40   19341
   19338      39   19344   19338      39   19344   19341      40   19350   19347
      39   19353   19347      39   19353   19350      40   19359   19356      39
   19362   19356      39   19362   19359      40   19368   19365      39   19371
   19365      39   19371   19368      40   19377   19374      39   19380   19374
      39   19380   19377      40   19386   19383      39   19389   19383      39
   19389   19386      40   19395   19392      39   19398   19392      39   19398
   19395      40   19404   19401      39   19407   19401      39   19407   19404
      40   19413   19410      39   19416   19410      39   19416   19413      40
   19422   19419      39   19425   19419      39   19425   19422      40   19431
   19428      39   19434   19428      39   19434   19431      40   19440   19437
      39   19443   19437      39   19443   19440      40   19449   19446      39
   19452   19446      39   19452   19449      40   19458   19455      39   19461
   19455      39   19461   19458      40   19467   19464      39   19470   19464
      39   19470   19467      40   19476   19473      39   19479   19473      39
   19479   19476      40   19485   19482      39   19488   19482      39   19488
   19485      40   19494   19491      39   19497   19491      39   19497   19494
      40   19503   19500      39   19506   19500      39   19506   19503      40
   19512   19509      39   19515   19509      39   19515   19512      40   19521
   19518      39   19524   19518      39   19524   19521      40   19530   19527
      39   19533   19527      39   19533   19530      40   19539   19536      39
   19542   19536      39   19542   19539      40   19548   19545      39   19551
   19545      39   19551   19548      40   19557   19554      39   19560   19554
      39   19560   19557      40   19566   19563      39   19569   19563      39
   19569   19566      40   19575   19572      39   19578   19572      39   19578
   19575      40   19584   19581      39   19587   19581      39   19587   19584
      40   19593   19590      39   19596   19590      39   19596   19593      40
   19602   19599      39   19605   19599      39   19605   19602      40   19611
   19608      39   19614   19608      39   19614   19611      40   19620   19617
      39   19623   19617      39   19623   19620      40   19629   19626      39
   19632   19626      39   19632   19629      40   19638   19635      39   19641
   19635      39   19641   19638      40   19647   19644      39   19650   19644
      39   19650   19647      40   19656   19653      39   19659   19653      39
   19659   19656      40   19665   19662      39   19668   19662      39   19668
   19665      40   19674   19671      39   19677   19671      39   19677   19674
      40   19683   19680      39   19686   19680      39   19686   19683      40
   19692   19689      39   19695   19689      39   19695   19692      40   19701
   19698      39   19704   19698      39   19704   19701      40   19710   19707
      39   19713   19707      39   19713   19710      40   19719   19716      39
   19722   19716      39   19722   19719      40   19728   19725      39   19731
   19725      39   19731   19728      40   19737   19734      39   19740   19734
      39   19740   19737      40   19746   19743      39   19749   19743      39
   19749   19746      40   19755   19752      39   19758   19752      39   19758
   19755      40   19764   19761      39   19767   19761      39   19767   19764
      40   19773   19770      39   19776   19770      39   19776   19773      40
   19782   19779      39   19785   19779      39   19785   19782      40   19791
   19788      39   19794   19788      39   19794   19791      40   19800   19797
      39   19803   19797      39   19803   19800      40   19809   19806      39
   19812   19806      39   19812   19809      40   19818   19815      39   19821
   19815      39   19821   19818      40   19827   19824      39   19830   19824
      39   19830   19827      40   19836   19833      39   19839   19833      39
   19839   19836      40   19845   19842      39   19848   19842      39   19848
   19845      40   19854   19851      39   19857   19851      39   19857   19854
      40   19863   19860      39   19866   19860      39   19866   19863      40
   19872   19869      39   19875   19869      39   19875   19872      40   19881
   19878      39   19884   19878      39   19884   19881      40   19890   19887
      39   19893   19887      39   19893   19890      40   19899   19896      39
   19902   19896      39   19902   19899      40   19908   19905      39   19911
   19905      39   19911   19908      40   19917   19914      39   19920   19914
      39   19920   19917      40   19926   19923      39   19929   19923      39
   19929   19926      40   19935   19932      39   19938   19932      39   19938
   19935      40   19944   19941      39   19947   19941      39   19947   19944
      40   19953   19950      39   19956   19950      39   19956   19953      40
   19962   19959      39   19965   19959      39   19965   19962      40   19971
   19968      39   19974   19968      39   19974   19971      40   19980   19977
      39   19983   19977      39   19983   19980      40   19989   19986      39
   19992   19986      39   19992   19989      40   19998   19995      39   20001
   19995      39   20001   19998      40   20007   20004      39   20010   20004
      39   20010   20007      40   20016   20013      39   20019   20013      39
   20019   20016      40   20025   20022      39   20028   20022      39   20028
   20025      40   20034   20031      39   20037   20031      39   20037   20034
      40   20043   20040      39   20046   20040      39   20046   20043      40
   20052   20049      39   20055   20049      39   20055   20052      40   20061
   20058      39   20064   20058      39   20064   20061      40   20070   20067
      39   20073   20067      39   20073   20070      40   20079   20076      39
   20082   20076      39   20082   20079      40   20088   20085      39   20091
   20085      39   20091   20088      40   20097   20094      39   20100   20094
      39   20100   20097      40   20106   20103      39   20109   20103      39
   20109   20106      40   20115   20112      39   20118   20112      39   20118
   20115      40   20124   20121      39   20127   20121      39   20127   20124
      40   20133   20130      39   20136   20130      39   20136   20133      40
   20142   20139      39   20145   20139      39   20145   20142      40   20151
   20148      39   20154   20148      39   20154   20151      40   20160   20157
      39   20163   20157      39   20163   20160      40   20169   20166      39
   20172   20166      39   20172   20169      40   20178   20175      39   20181
   20175      39   20181   20178      40   20187   20184      39   20190   20184
      39   20190   20187      40   20196   20193      39   20199   20193      39
   20199   20196      40   20205   20202      39   20208   20202      39   20208
   20205      40   20214   20211      39   20217   20211      39   20217   20214
      40   20223   20220      39   20226   20220      39   20226   20223      40
   20232   20229      39   20235   20229      39   20235   20232      40   20241
   20238      39   20244   20238      39   20244   20241      40   20250   20247
      39   20253   20247      39   20253   20250      40   20259   20256      39
   20262   20256      39   20262   20259      40   20268   20265      39   20271
   20265      39   20271   20268      40   20277   20274      39   20280   20274
      39   20280   20277      40   20286   20283      39   20289   20283      39
   20289   20286      40   20295   20292      39   20298   20292      39   20298
   20295      40   20304   20301      39   20307   20301      39   20307   20304
      40   20313   20310      39   20316   20310      39   20316   20313      40
   20322   20319      39   20325   20319      39   20325   20322      40   20331
   20328      39   20334   20328      39   20334   20331      40   20340   20337
      39   20343   20337      39   20343   20340      40   20349   20346      39
   20352   20346      39   20352   20349      40   20358   20355      39   20361
   20355      39   20361   20358      40   20367   20364      39   20370   20364
      39   20370   20367      40   20376   20373      39   20379   20373      39
   20379   20376      40   20385   20382      39   20388   20382      39   20388
   20385      40   20394   20391      39   20397   20391      39   20397   20394
      40   20403   20400      39   20406   20400      39   20406   20403      40
   20412   20409      39   20415   20409      39   20415   20412      40   20421
   20418      39   20424   20418      39   20424   20421      40   20430   20427
      39   20433   20427      39   20433   20430      40   20439   20436      39
   20442   20436      39   20442   20439      40   20448   20445      39   20451
   20445      39   20451   20448      40   20457   20454      39   20460   20454
      39   20460   20457      40   20466   20463      39   20469   20463      39
   20469   20466      40   20475   20472      39   20478   20472      39   20478
   20475      40   20484   20481      39   20487   20481      39   20487   20484
      40   20493   20490      39   20496   20490      39   20496   20493      40
   20502   20499      39   20505   20499      39   20505   20502      40   20511
   20508      39   20514   20508      39   20514   20511      40   20520   20517
      39   20523   20517      39   20523   20520      40   20529   20526      39
   20532   20526      39   20532   20529      40   20538   20535      39   20541
   20535      39   20541   20538      40   20547   20544      39   20550   20544
      39   20550   20547      40   20556   20553      39   20559   20553      39
   20559   20556      40   20565   20562      39   20568   20562      39   20568
   20565      40   20574   20571      39   20577   20571      39   20577   20574
      40   20583   20580      39   20586   20580      39   20586   20583      40
   20592   20589      39   20595   20589      39   20595   20592      40   20601
   20598      39   20604   20598      39   20604   20601      40   20610   20607
      39   20613   20607      39   20613   20610      40   20619   20616      39
   20622   20616      39   20622   20619      40   20628   20625      39   20631
   20625      39   20631   20628      40   20637   20634      39   20640   20634
      39   20640   20637      40   20646   20643      39   20649   20643      39
   20649   20646      40   20655   20652      39   20658   20652      39   20658
   20655      40   20664   20661      39   20667   20661      39   20667   20664
      40   20673   20670      39   20676   20670      39   20676   20673      40
   20682   20679      39   20685   20679      39   20685   20682      40   20691
   20688      39   20694   20688      39   20694   20691      40   20700   20697
      39   20703   20697      39   20703   20700      40   20709   20706      39
   20712   20706      39   20712   20709      40   20718   20715      39   20721
   20715      39   20721   20718      40   20727   20724      39   20730   20724
      39   20730   20727      40   20736   20733      39   20739   20733      39
   20739   20736      40   20745   20742      39   20748   20742      39   20748
   20745      40   20754   20751      39   20757   20751      39   20757   20754
      40   20763   20760      39   20766   20760      39   20766   20763      40
   20772   20769      39   20775   20769      39   20775   20772      40   20781
   20778      39   20784   20778      39   20784   20781      40   20790   20787
      39   20793   20787      39   20793   20790      40   20799   20796      39
   20802   20796      39   20802   20799      40   20808   20805      39   20811
   20805      39   20811   20808      40   20817   20814      39   20820   20814
      39   20820   20817      40   20826   20823      39   20829   20823      39
   20829   20826      40   20835   20832      39   20838   20832      39   20838
   20835      40   20844   20841      39   20847   20841      39   20847   20844
      40   20853   20850      39   20856   20850      39   20856   20853      40
   20862   20859      39   20865   20859      39   20865   20862      40   20871
   20868      39   20874   20868      39   20874   20871      40   20880   20877
      39   20883   20877      39   20883   20880      40   20889   20886      39
   20892   20886      39   20892   20889      40   20898   20895      39   20901
   20895      39   20901   20898      40   20907   20904      39   20910   20904
      39   20910   20907      40   20916   20913      39   20919   20913      39
   20919   20916      40   20925   20922      39   20928   20922      39   20928
   20925      40   20934   20931      39   20937   20931      39   20937   20934
      40   20943   20940      39   20946   20940      39   20946   20943      40
   20952   20949      39   20955   20949      39   20955   20952      40   20961
   20958      39   20964   20958      39   20964   20961      40   20970   20967
      39   20973   20967      39   20973   20970      40   20979   20976      39
   20982   20976      39   20982   20979      40   20988   20985      39   20991
   20985      39   20991   20988      40   20997   20994      39   21000   20994
      39   21000   20997      40   21006   21003      39   21009   21003      39
   21009   21006      40   21015   21012      39   21018   21012      39   21018
   21015      40   21024   21021      39   21027   21021      39   21027   21024
      40   21033   21030      39   21036   21030      39   21036   21033      40
   21042   21039      39   21045   21039      39   21045   21042      40   21051
   21048      39   21054   21048      39   21054   21051      40   21060   21057
      39   21063   21057      39   21063   21060      40   21069   21066      39
   21072   21066      39   21072   21069      40   21078   21075      39   21081
   21075      39   21081   21078      40   21087   21084      39   21090   21084
      39   21090   21087      40   21096   21093      39   21099   21093      39
   21099   21096      40   21105   21102      39   21108   21102      39   21108
   21105      40   21114   21111      39   21117   21111      39   21117   21114
      40   21123   21120      39   21126   21120      39   21126   21123      40
   21132   21129      39   21135   21129      39   21135   21132      40   21141
   21138      39   21144   21138      39   21144   21141      40   21150   21147
      39   21153   21147      39   21153   21150      40   21159   21156      39
   21162   21156      39   21162   21159      40   21168   21165      39   21171
   21165      39   21171   21168      40   21177   21174      39   21180   21174
      39   21180   21177      40   21186   21183      39   21189   21183      39
   21189   21186      40   21195   21192      39   21198   21192      39   21198
   21195      40   21204   21201      39   21207   21201      39   21207   21204
      40   21213   21210      39   21216   21210      39   21216   21213      40
   21222   21219      39   21225   21219      39   21225   21222      40   21231
   21228      39   21234   21228      39   21234   21231      40   21240   21237
      39   21243   21237      39   21243   21240      40   21249   21246      39
   21252   21246      39   21252   21249      40   21258   21255      39   21261
   21255      39   21261   21258      40   21267   21264      39   21270   21264
      39   21270   21267      40   21276   21273      39   21279   21273      39
   21279   21276      40   21285   21282      39   21288   21282      39   21288
   21285      40   21294   21291      39   21297   21291      39   21297   21294
      40   21303   21300      39   21306   21300      39   21306   21303      40
   21312   21309      39   21315   21309      39   21315   21312      40   21321
   21318      39   21324   21318      39   21324   21321      40   21330   21327
      39   21333   21327      39   21333   21330      40   21339   21336      39
   21342   21336      39   21342   21339      40   21348   21345      39   21351
   21345      39   21351   21348      40   21357   21354      39   21360   21354
      39   21360   21357      40   21366   21363      39   21369   21363      39
   21369   21366      40   21375   21372      39   21378   21372      39   21378
   21375      40   21384   21381      39   21387   21381      39   21387   21384
      40   21393   21390      39   21396   21390      39   21396   21393      40
   21402   21399      39   21405   21399      39   21405   21402      40   21411
   21408      39   21414   21408      39   21414   21411      40   21420   21417
      39   21423   21417      39   21423   21420      40   21429   21426      39
   21432   21426      39   21432   21429      40   21438   21435      39   21441
   21435      39   21441   21438      40   21447   21444      39   21450   21444
      39   21450   21447      40   21456   21453      39   21459   21453      39
   21459   21456      40   21465   21462      39   21468   21462      39   21468
   21465      40   21474   21471      39   21477   21471      39   21477   21474
      40   21483   21480      39   21486   21480      39   21486   21483      40
   21492   21489      39   21495   21489      39   21495   21492      40   21501
   21498      39   21504   21498      39   21504   21501      40   21510   21507
      39   21513   21507      39   21513   21510      40   21519   21516      39
   21522   21516      39   21522   21519      40   21528   21525      39   21531
   21525      39   21531   21528      40   21537   21534      39   21540   21534
      39   21540   21537      40   21546   21543      39   21549   21543      39
   21549   21546      40   21555   21552      39   21558   21552      39   21558
   21555      40   21564   21561      39   21567   21561      39   21567   21564
      40   21573   21570      39   21576   21570      39   21576   21573      40
   21582   21579      39   21585   21579      39   21585   21582      40   21591
   21588      39   21594   21588      39   21594   21591      40   21600   21597
      39   21603   21597      39   21603   21600      40   21609   21606      39
   21612   21606      39   21612   21609      40   21618   21615      39   21621
   21615      39   21621   21618      40   21627   21624      39   21630   21624
      39   21630   21627      40   21636   21633      39   21639   21633      39
   21639   21636      40   21645   21642      39   21648   21642      39   21648
   21645      40   21654   21651      39   21657   21651      39   21657   21654
      40   21663   21660      39   21666   21660      39   21666   21663      40
   21672   21669      39   21675   21669      39   21675   21672      40   21681
   21678      39   21684   21678      39   21684   21681      40   21690   21687
      39   21693   21687      39   21693   21690      40   21699   21696      39
   21702   21696      39   21702   21699      40   21708   21705      39   21711
   21705      39   21711   21708      40   21717   21714      39   21720   21714
      39   21720   21717      40   21726   21723      39   21729   21723      39
   21729   21726      40   21735   21732      39   21738   21732      39   21738
   21735      40   21744   21741      39   21747   21741      39   21747   21744
      40   21753   21750      39   21756   21750      39   21756   21753      40
   21762   21759      39   21765   21759      39   21765   21762      40   21771
   21768      39   21774   21768      39   21774   21771      40   21780   21777
      39   21783   21777      39   21783   21780      40   21789   21786      39
   21792   21786      39   21792   21789      40   21798   21795      39   21801
   21795      39   21801   21798      40   21807   21804      39   21810   21804
      39   21810   21807      40   21816   21813      39   21819   21813      39
   21819   21816      40   21825   21822      39   21828   21822      39   21828
   21825      40   21834   21831      39   21837   21831      39   21837   21834
      40   21843   21840      39   21846   21840      39   21846   21843      40
   21852   21849      39   21855   21849      39   21855   21852      40   21861
   21858      39   21864   21858      39   21864   21861      40   21870   21867
      39   21873   21867      39   21873   21870      40   21879   21876      39
   21882   21876      39   21882   21879      40   21888   21885      39   21891
   21885      39   21891   21888      40   21897   21894      39   21900   21894
      39   21900   21897      40   21906   21903      39   21909   21903      39
   21909   21906      40   21915   21912      39   21918   21912      39   21918
   21915      40   21924   21921      39   21927   21921      39   21927   21924
      40   21933   21930      39   21936   21930      39   21936   21933      40
   21942   21939      39   21945   21939      39   21945   21942      40   21951
   21948      39   21954   21948      39   21954   21951      40   21960   21957
      39   21963   21957      39   21963   21960      40   21969   21966      39
   21972   21966      39   21972   21969      40   21978   21975      39   21981
   21975      39   21981   21978      40   21987   21984      39   21990   21984
      39   21990   21987      40   21996   21993      39   21999   21993      39
   21999   21996      40   22005   22002      39   22008   22002      39   22008
   22005      40   22014   22011      39   22017   22011      39   22017   22014
      40   22023   22020      39   22026   22020      39   22026   22023      40
   22032   22029      39   22035   22029      39   22035   22032      40   22041
   22038      39   22044   22038      39   22044   22041      40   22050   22047
      39   22053   22047      39   22053   22050      40   22059   22056      39
   22062   22056      39   22062   22059      40   22068   22065      39   22071
   22065      39   22071   22068      40   22077   22074      39   22080   22074
      39   22080   22077      40   22086   22083      39   22089   22083      39
   22089   22086      40   22095   22092      39   22098   22092      39   22098
   22095      40   22104   22101      39   22107   22101      39   22107   22104
      40   22113   22110      39   22116   22110      39   22116   22113      40
   22122   22119      39   22125   22119      39   22125   22122      40   22131
   22128      39   22134   22128      39   22134   22131      40   22140   22137
      39   22143   22137      39   22143   22140      40   22149   22146      39
   22152   22146      39   22152   22149      40   22158   22155      39   22161
   22155      39   22161   22158      40   22167   22164      39   22170   22164
      39   22170   22167      40   22176   22173      39   22179   22173      39
   22179   22176      40   22185   22182      39   22188   22182      39   22188
   22185      40   22194   22191      39   22197   22191      39   22197   22194
      40   22203   22200      39   22206   22200      39   22206   22203      40
   22212   22209      39   22215   22209      39   22215   22212      40   22221
   22218      39   22224   22218      39   22224   22221      40   22230   22227
      39   22233   22227      39   22233   22230      40   22239   22236      39
   22242   22236      39   22242   22239      40   22248   22245      39   22251
   22245      39   22251   22248      40   22257   22254      39   22260   22254
      39   22260   22257      40   22266   22263      39   22269   22263      39
   22269   22266      40   22275   22272      39   22278   22272      39   22278
   22275      40   22284   22281      39   22287   22281      39   22287   22284
      40   22293   22290      39   22296   22290      39   22296   22293      40
   22302   22299      39   22305   22299      39   22305   22302      40   22311
   22308      39   22314   22308      39   22314   22311      40   22320   22317
      39   22323   22317      39   22323   22320      40   22329   22326      39
   22332   22326      39   22332   22329      40   22338   22335      39   22341
   22335      39   22341   22338      40   22347   22344      39   22350   22344
      39   22350   22347      40   22356   22353      39   22359   22353      39
   22359   22356      40   22365   22362      39   22368   22362      39   22368
   22365      40   22374   22371      39   22377   22371      39   22377   22374
      40   22383   22380      39   22386   22380      39   22386   22383      40
   22392   22389      39   22395   22389      39   22395   22392      40   22401
   22398      39   22404   22398      39   22404   22401      40   22410   22407
      39   22413   22407      39   22413   22410      40   22419   22416      39
   22422   22416      39   22422   22419      40   22428   22425      39   22431
   22425      39   22431   22428      40   22437   22434      39   22440   22434
      39   22440   22437      40   22446   22443      39   22449   22443      39
   22449   22446      40   22455   22452      39   22458   22452      39   22458
   22455      40   22464   22461      39   22467   22461      39   22467   22464
      40   22473   22470      39   22476   22470      39   22476   22473      40
   22482   22479      39   22485   22479      39   22485   22482      40   22491
   22488      39   22494   22488      39   22494   22491      40   22500   22497
      39   22503   22497      39   22503   22500      40   22509   22506      39
   22512   22506      39   22512   22509      40   22518   22515      39   22521
   22515      39   22521   22518      40   22527   22524      39   22530   22524
      39   22530   22527      40   22536   22533      39   22539   22533      39
   22539   22536      40   22545   22542      39   22548   22542      39   22548
   22545      40   22554   22551      39   22557   22551      39   22557   22554
      40   22563   22560      39   22566   22560      39   22566   22563      40
   22572   22569      39   22575   22569      39   22575   22572      40   22581
   22578      39   22584   22578      39   22584   22581      40   22590   22587
      39   22593   22587      39   22593   22590      40   22599   22596      39
   22602   22596      39   22602   22599      40   22608   22605      39   22611
   22605      39   22611   22608      40   22617   22614      39   22620   22614
      39   22620   22617      40   22626   22623      39   22629   22623      39
   22629   22626      40   22635   22632      39   22638   22632      39   22638
   22635      40   22644   22641      39   22647   22641      39   22647   22644
      40   22653   22650      39   22656   22650      39   22656   22653      40
   22662   22659      39   22665   22659      39   22665   22662      40   22671
   22668      39   22674   22668      39   22674   22671      40   22680   22677
      39   22683   22677      39   22683   22680      40   22689   22686      39
   22692   22686      39   22692   22689      40   22698   22695      39   22701
   22695      39   22701   22698      40   22707   22704      39   22710   22704
      39   22710   22707      40   22716   22713      39   22719   22713      39
   22719   22716      40   22725   22722      39   22728   22722      39   22728
   22725      40   22734   22731      39   22737   22731      39   22737   22734
      40   22743   22740      39   22746   22740      39   22746   22743      40
   22752   22749      39   22755   22749      39   22755   22752      40   22761
   22758      39   22764   22758      39   22764   22761      40   22770   22767
      39   22773   22767      39   22773   22770      40   22779   22776      39
   22782   22776      39   22782   22779      40   22788   22785      39   22791
   22785      39   22791   22788      40   22797   22794      39   22800   22794
      39   22800   22797      40   22806   22803      39   22809   22803      39
   22809   22806      40   22815   22812      39   22818   22812      39   22818
   22815      40   22824   22821      39   22827   22821      39   22827   22824
      40   22833   22830      39   22836   22830      39   22836   22833      40
   22842   22839      39   22845   22839      39   22845   22842      40   22851
   22848      39   22854   22848      39   22854   22851      40   22860   22857
      39   22863   22857      39   22863   22860      40   22869   22866      39
   22872   22866      39   22872   22869      40   22878   22875      39   22881
   22875      39   22881   22878      40   22887   22884      39   22890   22884
      39   22890   22887      40   22896   22893      39   22899   22893      39
   22899   22896      40   22905   22902      39   22908   22902      39   22908
   22905      40   22914   22911      39   22917   22911      39   22917   22914
      40   22923   22920      39   22926   22920      39   22926   22923      40
   22932   22929      39   22935   22929      39   22935   22932      40   22941
   22938      39   22944   22938      39   22944   22941      40   22950   22947
      39   22953   22947      39   22953   22950      40   22959   22956      39
   22962   22956      39   22962   22959      40   22968   22965      39   22971
   22965      39   22971   22968      40   22977   22974      39   22980   22974
      39   22980   22977      40   22986   22983      39   22989   22983      39
   22989   22986      40   22995   22992      39   22998   22992      39   22998
   22995      40   23004   23001      39   23007   23001      39   23007   23004
      40   23013   23010      39   23016   23010      39   23016   23013      40
   23022   23019      39   23025   23019      39   23025   23022      40   23031
   23028      39   23034   23028      39   23034   23031      40   23040   23037
      39   23043   23037      39   23043   23040      40   23049   23046      39
   23052   23046      39   23052   23049      40   23058   23055      39   23061
   23055      39   23061   23058      40   23067   23064      39   23070   23064
      39   23070   23067      40   23076   23073      39   23079   23073      39
   23079   23076      40   23085   23082      39   23088   23082      39   23088
   23085      40   23094   23091      39   23097   23091      39   23097   23094
      40   23103   23100      39   23106   23100      39   23106   23103      40
   23112   23109      39   23115   23109      39   23115   23112      40   23121
   23118      39   23124   23118      39   23124   23121      40   23130   23127
      39   23133   23127      39   23133   23130      40   23139   23136      39
   23142   23136      39   23142   23139      40   23148   23145      39   23151
   23145      39   23151   23148      40   23157   23154      39   23160   23154
      39   23160   23157      40   23166   23163      39   23169   23163      39
   23169   23166      40   23175   23172      39   23178   23172      39   23178
   23175      40   23184   23181      39   23187   23181      39   23187   23184
      40   23193   23190      39   23196   23190      39   23196   23193      40
   23202   23199      39   23205   23199      39   23205   23202      40   23211
   23208      39   23214   23208      39   23214   23211      40   23220   23217
      39   23223   23217      39   23223   23220      40   23229   23226      39
   23232   23226      39   23232   23229      40   23238   23235      39   23241
   23235      39   23241   23238      40   23247   23244      39   23250   23244
      39   23250   23247      40   23256   23253      39   23259   23253      39
   23259   23256      40   23265   23262      39   23268   23262      39   23268
   23265      40   23274   23271      39   23277   23271      39   23277   23274
      40   23283   23280      39   23286   23280      39   23286   23283      40
   23292   23289      39   23295   23289      39   23295   23292      40   23301
   23298      39   23304   23298      39   23304   23301      40   23310   23307
      39   23313   23307      39   23313   23310      40   23319   23316      39
   23322   23316      39   23322   23319      40   23328   23325      39   23331
   23325      39   23331   23328      40   23337   23334      39   23340   23334
      39   23340   23337      40   23346   23343      39   23349   23343      39
   23349   23346      40   23355   23352      39   23358   23352      39   23358
   23355      40   23364   23361      39   23367   23361      39   23367   23364
      40   23373   23370      39   23376   23370      39   23376   23373      40
   23382   23379      39   23385   23379      39   23385   23382      40   23391
   23388      39   23394   23388      39   23394   23391      40   23400   23397
      39   23403   23397      39   23403   23400      40   23409   23406      39
   23412   23406      39   23412   23409      40   23418   23415      39   23421
   23415      39   23421   23418      40   23427   23424      39   23430   23424
      39   23430   23427      40   23436   23433      39   23439   23433      39
   23439   23436      40   23445   23442      39   23448   23442      39   23448
   23445      40   23454   23451      39   23457   23451      39   23457   23454
      40   23463   23460      39   23466   23460      39   23466   23463      40
   23472   23469      39   23475   23469      39   23475   23472      40   23481
   23478      39   23484   23478      39   23484   23481      40   23490   23487
      39   23493   23487      39   23493   23490      40   23499   23496      39
   23502   23496      39   23502   23499      40   23508   23505      39   23511
   23505      39   23511   23508      40   23517   23514      39   23520   23514
      39   23520   23517      40   23526   23523      39   23529   23523      39
   23529   23526      40   23535   23532      39   23538   23532      39   23538
   23535      40   23544   23541      39   23547   23541      39   23547   23544
      40   23553   23550      39   23556   23550      39   23556   23553      40
   23562   23559      39   23565   23559      39   23565   23562      40   23571
   23568      39   23574   23568      39   23574   23571      40   23580   23577
      39   23583   23577      39   23583   23580      40   23589   23586      39
   23592   23586      39   23592   23589      40   23598   23595      39   23601
   23595      39   23601   23598      40   23607   23604      39   23610   23604
      39   23610   23607      40   23616   23613      39   23619   23613      39
   23619   23616      40   23625   23622      39   23628   23622      39   23628
   23625      40   23634   23631      39   23637   23631      39   23637   23634
      40   23643   23640      39   23646   23640      39   23646   23643      40
   23652   23649      39   23655   23649      39   23655   23652      40   23661
   23658      39   23664   23658      39   23664   23661      40   23670   23667
      39   23673   23667      39   23673   23670      40   23679   23676      39
   23682   23676      39   23682   23679      40   23688   23685      39   23691
   23685      39   23691   23688      40   23697   23694      39   23700   23694
      39   23700   23697      40   23706   23703      39   23709   23703      39
   23709   23706      40   23715   23712      39   23718   23712      39   23718
   23715      40   23724   23721      39   23727   23721      39   23727   23724
      40   23733   23730      39   23736   23730      39   23736   23733      40
   23742   23739      39   23745   23739      39   23745   23742      40   23751
   23748      39   23754   23748      39   23754   23751      40   23760   23757
      39   23763   23757      39   23763   23760      40   23769   23766      39
   23772   23766      39   23772   23769      40   23778   23775      39   23781
   23775      39   23781   23778      40   23787   23784      39   23790   23784
      39   23790   23787      40   23796   23793      39   23799   23793      39
   23799   23796      40   23805   23802      39   23808   23802      39   23808
   23805      40   23814   23811      39   23817   23811      39   23817   23814
      40   23823   23820      39   23826   23820      39   23826   23823      40
   23832   23829      39   23835   23829      39   23835   23832      40   23841
   23838      39   23844   23838      39   23844   23841      40   23850   23847
      39   23853   23847      39   23853   23850      40   23859   23856      39
   23862   23856      39   23862   23859      40   23868   23865      39   23871
   23865      39   23871   23868      40   23877   23874      39   23880   23874
      39   23880   23877      40   23886   23883      39   23889   23883      39
   23889   23886      40   23895   23892      39   23898   23892      39   23898
   23895      40   23904   23901      39   23907   23901      39   23907   23904
      40   23913   23910      39   23916   23910      39   23916   23913      40
   23922   23919      39   23925   23919      39   23925   23922      40   23931
   23928      39   23934   23928      39   23934   23931      40   23940   23937
      39   23943   23937      39   23943   23940      40   23949   23946      39
   23952   23946      39   23952   23949      40   23958   23955      39   23961
   23955      39   23961   23958      40   23967   23964      39   23970   23964
      39   23970   23967      40   23976   23973      39   23979   23973      39
   23979   23976      40   23985   23982      39   23988   23982      39   23988
   23985      40   23994   23991      39   23997   23991      39   23997   23994
      40   24003   24000      39   24006   24000      39   24006   24003      40
   24012   24009      39   24015   24009      39   24015   24012      40   24021
   24018      39   24024   24018      39   24024   24021      40   24030   24027
      39   24033   24027      39   24033   24030      40   24039   24036      39
   24042   24036      39   24042   24039      40   24048   24045      39   24051
   24045      39   24051   24048      40   24057   24054      39   24060   24054
      39   24060   24057      40   24066   24063      39   24069   24063      39
   24069   24066      40   24075   24072      39   24078   24072      39   24078
   24075      40   24084   24081      39   24087   24081      39   24087   24084
      40   24093   24090      39   24096   24090      39   24096   24093      40
   24102   24099      39   24105   24099      39   24105   24102      40   24111
   24108      39   24114   24108      39   24114   24111      40   24120   24117
      39   24123   24117      39   24123   24120      40   24129   24126      39
   24132   24126      39   24132   24129      40   24138   24135      39   24141
   24135      39   24141   24138      40   24147   24144      39   24150   24144
      39   24150   24147      40   24156   24153      39   24159   24153      39
   24159   24156      40   24165   24162      39   24168   24162      39   24168
   24165      40   24174   24171      39   24177   24171      39   24177   24174
      40   24183   24180      39   24186   24180      39   24186   24183      40
   24192   24189      39   24195   24189      39   24195   24192      40   24201
   24198      39   24204   24198      39   24204   24201      40   24210   24207
      39   24213   24207      39   24213   24210      40   24219   24216      39
   24222   24216      39   24222   24219      40   24228   24225      39   24231
   24225      39   24231   24228      40   24237   24234      39   24240   24234
      39   24240   24237      40   24246   24243      39   24249   24243      39
   24249   24246      40   24255   24252      39   24258   24252      39   24258
   24255      40   24264   24261      39   24267   24261      39   24267   24264
      40   24273   24270      39   24276   24270      39   24276   24273      40
   24282   24279      39   24285   24279      39   24285   24282      40   24291
   24288      39   24294   24288      39   24294   24291      40   24300   24297
      39   24303   24297      39   24303   24300      40   24309   24306      39
   24312   24306      39   24312   24309      40   24318   24315      39   24321
   24315      39   24321   24318      40   24327   24324      39   24330   24324
      39   24330   24327      40   24336   24333      39   24339   24333      39
   24339   24336      40   24345   24342      39   24348   24342      39   24348
   24345      40   24354   24351      39   24357   24351      39   24357   24354
      40   24363   24360      39   24366   24360      39   24366   24363      40
   24372   24369      39   24375   24369      39   24375   24372      40   24381
   24378      39   24384   24378      39   24384   24381      40   24390   24387
      39   24393   24387      39   24393   24390      40   24399   24396      39
   24402   24396      39   24402   24399      40   24408   24405      39   24411
   24405      39   24411   24408      40   24417   24414      39   24420   24414
      39   24420   24417      40   24426   24423      39   24429   24423      39
   24429   24426      40   24435   24432      39   24438   24432      39   24438
   24435      40   24444   24441      39   24447   24441      39   24447   24444
      40   24453   24450      39   24456   24450      39   24456   24453      40
   24462   24459      39   24465   24459      39   24465   24462      40   24471
   24468      39   24474   24468      39   24474   24471      40   24480   24477
      39   24483   24477      39   24483   24480      40   24489   24486      39
   24492   24486      39   24492   24489      40   24498   24495      39   24501
   24495      39   24501   24498      40   24507   24504      39   24510   24504
      39   24510   24507      40   24516   24513      39   24519   24513      39
   24519   24516      40   24525   24522      39   24528   24522      39   24528
   24525      40   24534   24531      39   24537   24531      39   24537   24534
      40   24543   24540      39   24546   24540      39   24546   24543      40
   24552   24549      39   24555   24549      39   24555   24552      40   24561
   24558      39   24564   24558      39   24564   24561      40   24570   24567
      39   24573   24567      39   24573   24570      40   24579   24576      39
   24582   24576      39   24582   24579      40   24588   24585      39   24591
   24585      39   24591   24588      40   24597   24594      39   24600   24594
      39   24600   24597      40   24606   24603      39   24609   24603      39
   24609   24606      40   24615   24612      39   24618   24612      39   24618
   24615      40   24624   24621      39   24627   24621      39   24627   24624
      40   24633   24630      39   24636   24630      39   24636   24633      40
   24642   24639      39   24645   24639      39   24645   24642      40   24651
   24648      39   24654   24648      39   24654   24651      40   24660   24657
      39   24663   24657      39   24663   24660      40   24669   24666      39
   24672   24666      39   24672   24669      40   24678   24675      39   24681
   24675      39   24681   24678      40   24687   24684      39   24690   24684
      39   24690   24687      40   24696   24693      39   24699   24693      39
   24699   24696      40   24705   24702      39   24708   24702      39   24708
   24705      40   24714   24711      39   24717   24711      39   24717   24714
      40   24723   24720      39   24726   24720      39   24726   24723      40
   24732   24729      39   24735   24729      39   24735   24732      40   24741
   24738      39   24744   24738      39   24744   24741      40   24750   24747
      39   24753   24747      39   24753   24750      40   24759   24756      39
   24762   24756      39   24762   24759      40   24768   24765      39   24771
   24765      39   24771   24768      40   24777   24774      39   24780   24774
      39   24780   24777      40   24786   24783      39   24789   24783      39
   24789   24786      40   24795   24792      39   24798   24792      39   24798
   24795      40   24804   24801      39   24807   24801      39   24807   24804
      40   24813   24810      39   24816   24810      39   24816   24813      40
   24822   24819      39   24825   24819      39   24825   24822      40   24831
   24828      39   24834   24828      39   24834   24831      40   24840   24837
      39   24843   24837      39   24843   24840      40   24849   24846      39
   24852   24846      39   24852   24849      40   24858   24855      39   24861
   24855      39   24861   24858      40   24867   24864      39   24870   24864
      39   24870   24867      40   24876   24873      39   24879   24873      39
   24879   24876      40   24885   24882      39   24888   24882      39   24888
   24885      40   24894   24891      39   24897   24891      39   24897   24894
      40   24903   24900      39   24906   24900      39   24906   24903      40
   24912   24909      39   24915   24909      39   24915   24912      40   24921
   24918      39   24924   24918      39   24924   24921      40   24930   24927
      39   24933   24927      39   24933   24930      40   24939   24936      39
   24942   24936      39   24942   24939      40   24948   24945      39   24951
   24945      39   24951   24948      40   24957   24954      39   24960   24954
      39   24960   24957      40   24966   24963      39   24969   24963      39
   24969   24966      40   24975   24972      39   24978   24972      39   24978
   24975      40   24984   24981      39   24987   24981      39   24987   24984
      40   24993   24990      39   24996   24990      39   24996   24993      40
   25002   24999      39   25005   24999      39   25005   25002      40   25011
   25008      39   25014   25008      39   25014   25011      40   25020   25017
      39   25023   25017      39   25023   25020      40   25029   25026      39
   25032   25026      39   25032   25029      40   25038   25035      39   25041
   25035      39   25041   25038      40   25047   25044      39   25050   25044
      39   25050   25047      40   25056   25053      39   25059   25053      39
   25059   25056      40   25065   25062      39   25068   25062      39   25068
   25065      40   25074   25071      39   25077   25071      39   25077   25074
      40   25083   25080      39   25086   25080      39   25086   25083      40
   25092   25089      39   25095   25089      39   25095   25092      40   25101
   25098      39   25104   25098      39   25104   25101      40   25110   25107
      39   25113   25107      39   25113   25110      40   25119   25116      39
   25122   25116      39   25122   25119      40   25128   25125      39   25131
   25125      39   25131   25128      40   25137   25134      39   25140   25134
      39   25140   25137      40   25146   25143      39   25149   25143      39
   25149   25146      40   25155   25152      39   25158   25152      39   25158
   25155      40   25164   25161      39   25167   25161      39   25167   25164
      40   25173   25170      39   25176   25170      39   25176   25173      40
   25182   25179      39   25185   25179      39   25185   25182      40   25191
   25188      39   25194   25188      39   25194   25191      40   25200   25197
      39   25203   25197      39   25203   25200      40   25209   25206      39
   25212   25206      39   25212   25209      40   25218   25215      39   25221
   25215      39   25221   25218      40   25227   25224      39   25230   25224
      39   25230   25227      40   25236   25233      39   25239   25233      39
   25239   25236      40   25245   25242      39   25248   25242      39   25248
   25245      40   25254   25251      39   25257   25251      39   25257   25254
      40   25263   25260      39   25266   25260      39   25266   25263      40
   25272   25269      39   25275   25269      39   25275   25272      40   25281
   25278      39   25284   25278      39   25284   25281      40   25290   25287
      39   25293   25287      39   25293   25290      40   25299   25296      39
   25302   25296      39   25302   25299      40   25308   25305      39   25311
   25305      39   25311   25308      40   25317   25314      39   25320   25314
      39   25320   25317      40   25326   25323      39   25329   25323      39
   25329   25326      40   25335   25332      39   25338   25332      39   25338
   25335      40   25344   25341      39   25347   25341      39   25347   25344
      40   25353   25350      39   25356   25350      39   25356   25353      40
   25362   25359      39   25365   25359      39   25365   25362      40   25371
   25368      39   25374   25368      39   25374   25371      40   25380   25377
      39   25383   25377      39   25383   25380      40   25389   25386      39
   25392   25386      39   25392   25389      40   25398   25395      39   25401
   25395      39   25401   25398      40   25407   25404      39   25410   25404
      39   25410   25407      40   25416   25413      39   25419   25413      39
   25419   25416      40   25425   25422      39   25428   25422      39   25428
   25425      40   25434   25431      39   25437   25431      39   25437   25434
      40   25443   25440      39   25446   25440      39   25446   25443      40
   25452   25449      39   25455   25449      39   25455   25452      40   25461
   25458      39   25464   25458      39   25464   25461      40   25470   25467
      39   25473   25467      39   25473   25470      40   25479   25476      39
   25482   25476      39   25482   25479      40   25488   25485      39   25491
   25485      39   25491   25488      40   25497   25494      39   25500   25494
      39   25500   25497      40   25506   25503      39   25509   25503      39
   25509   25506      40   25515   25512      39   25518   25512      39   25518
   25515      40   25524   25521      39   25527   25521      39   25527   25524
      40   25533   25530      39   25536   25530      39   25536   25533      40
   25542   25539      39   25545   25539      39   25545   25542      40   25551
   25548      39   25554   25548      39   25554   25551      40   25560   25557
      39   25563   25557      39   25563   25560      40   25569   25566      39
   25572   25566      39   25572   25569      40   25578   25575      39   25581
   25575      39   25581   25578      40   25587   25584      39   25590   25584
      39   25590   25587      40   25596   25593      39   25599   25593      39
   25599   25596      40   25605   25602      39   25608   25602      39   25608
   25605      40   25614   25611      39   25617   25611      39   25617   25614
      40   25623   25620      39   25626   25620      39   25626   25623      40
   25632   25629      39   25635   25629      39   25635   25632      40   25641
   25638      39   25644   25638      39   25644   25641      40   25650   25647
      39   25653   25647      39   25653   25650      40   25659   25656      39
   25662   25656      39   25662   25659      40   25668   25665      39   25671
   25665      39   25671   25668      40   25677   25674      39   25680   25674
      39   25680   25677      40   25686   25683      39   25689   25683      39
   25689   25686      40   25695   25692      39   25698   25692      39   25698
   25695      40   25704   25701      39   25707   25701      39   25707   25704
      40   25713   25710      39   25716   25710      39   25716   25713      40
   25722   25719      39   25725   25719      39   25725   25722      40   25731
   25728      39   25734   25728      39   25734   25731      40   25740   25737
      39   25743   25737      39   25743   25740      40   25749   25746      39
   25752   25746      39   25752   25749      40   25758   25755      39   25761
   25755      39   25761   25758      40   25767   25764      39   25770   25764
      39   25770   25767      40   25776   25773      39   25779   25773      39
   25779   25776      40   25785   25782      39   25788   25782      39   25788
   25785      40   25794   25791      39   25797   25791      39   25797   25794
      40   25803   25800      39   25806   25800      39   25806   25803      40
   25812   25809      39   25815   25809      39   25815   25812      40   25821
   25818      39   25824   25818      39   25824   25821      40   25830   25827
      39   25833   25827      39   25833   25830      40   25839   25836      39
   25842   25836      39   25842   25839      40   25848   25845      39   25851
   25845      39   25851   25848      40   25857   25854      39   25860   25854
      39   25860   25857      40   25866   25863      39   25869   25863      39
   25869   25866      40   25875   25872      39   25878   25872      39   25878
   25875      40   25884   25881      39   25887   25881      39   25887   25884
      40   25893   25890      39   25896   25890      39   25896   25893      40
   25902   25899      39   25905   25899      39   25905   25902      40   25911
   25908      39   25914   25908      39   25914   25911      40   25920   25917
      39   25923   25917      39   25923   25920      40   25929   25926      39
   25932   25926      39   25932   25929      40   25938   25935      39   25941
   25935      39   25941   25938      40   25947   25944      39   25950   25944
      39   25950   25947      40   25956   25953      39   25959   25953      39
   25959   25956      40   25965   25962      39   25968   25962      39   25968
   25965      40   25974   25971      39   25977   25971      39   25977   25974
      40   25983   25980      39   25986   25980      39   25986   25983      40
   25992   25989      39   25995   25989      39   25995   25992      40   26001
   25998      39   26004   25998      39   26004   26001      40   26010   26007
      39   26013   26007      39   26013   26010      40   26019   26016      39
   26022   26016      39   26022   26019      40   26028   26025      39   26031
   26025      39   26031   26028      40   26037   26034      39   26040   26034
      39   26040   26037      40   26046   26043      39   26049   26043      39
   26049   26046      40   26055   26052      39   26058   26052      39   26058
   26055      40   26064   26061      39   26067   26061      39   26067   26064
      40   26073   26070      39   26076   26070      39   26076   26073      40
   26082   26079      39   26085   26079      39   26085   26082      40   26091
   26088      39   26094   26088      39   26094   26091      40   26100   26097
      39   26103   26097      39   26103   26100      40   26109   26106      39
   26112   26106      39   26112   26109      40   26118   26115      39   26121
   26115      39   26121   26118      40   26127   26124      39   26130   26124
      39   26130   26127      40   26136   26133      39   26139   26133      39
   26139   26136      40   26145   26142      39   26148   26142      39   26148
   26145      40   26154   26151      39   26157   26151      39   26157   26154
      40   26163   26160      39   26166   26160      39   26166   26163      40
   26172   26169      39   26175   26169      39   26175   26172      40   26181
   26178      39   26184   26178      39   26184   26181      40   26190   26187
      39   26193   26187      39   26193   26190      40   26199   26196      39
   26202   26196      39   26202   26199      40   26208   26205      39   26211
   26205      39   26211   26208      40   26217   26214      39   26220   26214
      39   26220   26217      40   26226   26223      39   26229   26223      39
   26229   26226      40   26235   26232      39   26238   26232      39   26238
   26235      40   26244   26241      39   26247   26241      39   26247   26244
      40   26253   26250      39   26256   26250      39   26256   26253      40
   26262   26259      39   26265   26259      39   26265   26262      40   26271
   26268      39   26274   26268      39   26274   26271      40   26280   26277
      39   26283   26277      39   26283   26280      40   26289   26286      39
   26292   26286      39   26292   26289      40   26298   26295      39   26301
   26295      39   26301   26298      40   26307   26304      39   26310   26304
      39   26310   26307      40   26316   26313      39   26319   26313      39
   26319   26316      40   26325   26322      39   26328   26322      39   26328
   26325      40   26334   26331      39   26337   26331      39   26337   26334
      40   26343   26340      39   26346   26340      39   26346   26343      40
   26352   26349      39   26355   26349      39   26355   26352      40   26361
   26358      39   26364   26358      39   26364   26361      40   26370   26367
      39   26373   26367      39   26373   26370      40   26379   26376      39
   26382   26376      39   26382   26379      40   26388   26385      39   26391
   26385      39   26391   26388      40   26397   26394      39   26400   26394
      39   26400   26397      40   26406   26403      39   26409   26403      39
   26409   26406      40   26415   26412      39   26418   26412      39   26418
   26415      40   26424   26421      39   26427   26421      39   26427   26424
      40   26433   26430      39   26436   26430      39   26436   26433      40
   26442   26439      39   26445   26439      39   26445   26442      40   26451
   26448      39   26454   26448      39   26454   26451      40   26460   26457
      39   26463   26457      39   26463   26460      40   26469   26466      39
   26472   26466      39   26472   26469      40   26478   26475      39   26481
   26475      39   26481   26478      40   26487   26484      39   26490   26484
      39   26490   26487      40   26496   26493      39   26499   26493      39
   26499   26496      40   26505   26502      39   26508   26502      39   26508
   26505      40   26514   26511      39   26517   26511      39   26517   26514
      40   26523   26520      39   26526   26520      39   26526   26523      40
   26532   26529      39   26535   26529      39   26535   26532      40   26541
   26538      39   26544   26538      39   26544   26541      40   26550   26547
      39   26553   26547      39   26553   26550      40   26559   26556      39
   26562   26556      39   26562   26559      40   26568   26565      39   26571
   26565      39   26571   26568      40   26577   26574      39   26580   26574
      39   26580   26577      40   26586   26583      39   26589   26583      39
   26589   26586      40   26595   26592      39   26598   26592      39   26598
   26595      40   26604   26601      39   26607   26601      39   26607   26604
      40   26613   26610      39   26616   26610      39   26616   26613      40
   26622   26619      39   26625   26619      39   26625   26622      40   26631
   26628      39   26634   26628      39   26634   26631      40   26640   26637
      39   26643   26637      39   26643   26640      40   26649   26646      39
   26652   26646      39   26652   26649      40   26658   26655      39   26661
   26655      39   26661   26658      40   26667   26664      39   26670   26664
      39   26670   26667      40   26676   26673      39   26679   26673      39
   26679   26676      40   26685   26682      39   26688   26682      39   26688
   26685      40   26694   26691      39   26697   26691      39   26697   26694
      40   26703   26700      39   26706   26700      39   26706   26703      40
   26712   26709      39   26715   26709      39   26715   26712      40   26721
   26718      39   26724   26718      39   26724   26721      40   26730   26727
      39   26733   26727      39   26733   26730      40   26739   26736      39
   26742   26736      39   26742   26739      40   26748   26745      39   26751
   26745      39   26751   26748      40   26757   26754      39   26760   26754
      39   26760   26757      40   26766   26763      39   26769   26763      39
   26769   26766      40   26775   26772      39   26778   26772      39   26778
   26775      40   26784   26781      39   26787   26781      39   26787   26784
      40   26793   26790      39   26796   26790      39   26796   26793      40
   26802   26799      39   26805   26799      39   26805   26802      40   26811
   26808      39   26814   26808      39   26814   26811      40   26820   26817
      39   26823   26817      39   26823   26820      40   26829   26826      39
   26832   26826      39   26832   26829      40   26838   26835      39   26841
   26835      39   26841   26838      40   26847   26844      39   26850   26844
      39   26850   26847      40   26856   26853      39   26859   26853      39
   26859   26856      40   26865   26862      39   26868   26862      39   26868
   26865      40   26874   26871      39   26877   26871      39   26877   26874
      40   26883   26880      39   26886   26880      39   26886   26883      40
   26892   26889      39   26895   26889      39   26895   26892      40   26901
   26898      39   26904   26898      39   26904   26901      40   26910   26907
      39   26913   26907      39   26913   26910      40   26919   26916      39
   26922   26916      39   26922   26919      40   26928   26925      39   26931
   26925      39   26931   26928      40   26937   26934      39   26940   26934
      39   26940   26937      40   26946   26943      39   26949   26943      39
   26949   26946      40   26955   26952      39   26958   26952      39   26958
   26955      40   26964   26961      39   26967   26961      39   26967   26964
      40   26973   26970      39   26976   26970      39   26976   26973      40
   26982   26979      39   26985   26979      39   26985   26982      40   26991
   26988      39   26994   26988      39   26994   26991      40   27000   26997
      39   27003   26997      39   27003   27000      40   27009   27006      39
   27012   27006      39   27012   27009      40   27018   27015      39   27021
   27015      39   27021   27018      40   27027   27024      39   27030   27024
      39   27030   27027      40   27036   27033      39   27039   27033      39
   27039   27036      40   27045   27042      39   27048   27042      39   27048
   27045      40   27054   27051      39   27057   27051      39   27057   27054
      40   27063   27060      39   27066   27060      39   27066   27063      40
   27072   27069      39   27075   27069      39   27075   27072      40   27081
   27078      39   27084   27078      39   27084   27081      40   27090   27087
      39   27093   27087      39   27093   27090      40   27099   27096      39
   27102   27096      39   27102   27099      40   27108   27105      39   27111
   27105      39   27111   27108      40   27117   27114      39   27120   27114
      39   27120   27117      40   27126   27123      39   27129   27123      39
   27129   27126      40   27135   27132      39   27138   27132      39   27138
   27135      40   27144   27141      39   27147   27141      39   27147   27144
      40   27153   27150      39   27156   27150      39   27156   27153      40
   27162   27159      39   27165   27159      39   27165   27162      40   27171
   27168      39   27174   27168      39   27174   27171      40   27180   27177
      39   27183   27177      39   27183   27180      40   27189   27186      39
   27192   27186      39   27192   27189      40   27198   27195      39   27201
   27195      39   27201   27198      40   27207   27204      39   27210   27204
      39   27210   27207      40   27216   27213      39   27219   27213      39
   27219   27216      40   27225   27222      39   27228   27222      39   27228
   27225      40   27234   27231      39   27237   27231      39   27237   27234
      40   27243   27240      39   27246   27240      39   27246   27243      40
   27252   27249      39   27255   27249      39   27255   27252      40   27261
   27258      39   27264   27258      39   27264   27261      40   27270   27267
      39   27273   27267      39   27273   27270      40   27279   27276      39
   27282   27276      39   27282   27279      40   27288   27285      39   27291
   27285      39   27291   27288      40   27297   27294      39   27300   27294
      39   27300   27297      40   27306   27303      39   27309   27303      39
   27309   27306      40   27315   27312      39   27318   27312      39   27318
   27315      40   27324   27321      39   27327   27321      39   27327   27324
      40   27333   27330      39   27336   27330      39   27336   27333      40
   27342   27339      39   27345   27339      39   27345   27342      40   27351
   27348      39   27354   27348      39   27354   27351      40   27360   27357
      39   27363   27357      39   27363   27360      40   27369   27366      39
   27372   27366      39   27372   27369      40   27378   27375      39   27381
   27375      39   27381   27378      40   27387   27384      39   27390   27384
      39   27390   27387      40   27396   27393      39   27399   27393      39
   27399   27396      40   27405   27402      39   27408   27402      39   27408
   27405      40   27414   27411      39   27417   27411      39   27417   27414
      40   27423   27420      39   27426   27420      39   27426   27423      40
   27432   27429      39   27435   27429      39   27435   27432      40   27441
   27438      39   27444   27438      39   27444   27441      40   27450   27447
      39   27453   27447      39   27453   27450      40   27459   27456      39
   27462   27456      39   27462   27459      40   27468   27465      39   27471
   27465      39   27471   27468      40   27477   27474      39   27480   27474
      39   27480   27477      40   27486   27483      39   27489   27483      39
   27489   27486      40   27495   27492      39   27498   27492      39   27498
   27495      40   27504   27501      39   27507   27501      39   27507   27504
      40   27513   27510      39   27516   27510      39   27516   27513      40
   27522   27519      39   27525   27519      39   27525   27522      40   27531
   27528      39   27534   27528      39   27534   27531      40   27540   27537
      39   27543   27537      39   27543   27540      40   27549   27546      39
   27552   27546      39   27552   27549      40   27558   27555      39   27561
   27555      39   27561   27558      40   27567   27564      39   27570   27564
      39   27570   27567      40   27576   27573      39   27579   27573      39
   27579   27576      40   27585   27582      39   27588   27582      39   27588
   27585      40   27594   27591      39   27597   27591      39   27597   27594
      40   27603   27600      39   27606   27600      39   27606   27603      40
   27612   27609      39   27615   27609      39   27615   27612      40   27621
   27618      39   27624   27618      39   27624   27621      40   27630   27627
      39   27633   27627      39   27633   27630      40   27639   27636      39
   27642   27636      39   27642   27639      40   27648   27645      39   27651
   27645      39   27651   27648      40   27657   27654      39   27660   27654
      39   27660   27657      40   27666   27663      39   27669   27663      39
   27669   27666      40   27675   27672      39   27678   27672      39   27678
   27675      40   27684   27681      39   27687   27681      39   27687   27684
      40   27693   27690      39   27696   27690      39   27696   27693      40
   27702   27699      39   27705   27699      39   27705   27702      40   27711
   27708      39   27714   27708      39   27714   27711      40   27720   27717
      39   27723   27717      39   27723   27720      40   27729   27726      39
   27732   27726      39   27732   27729      40   27738   27735      39   27741
   27735      39   27741   27738      40   27747   27744      39   27750   27744
      39   27750   27747      40   27756   27753      39   27759   27753      39
   27759   27756      40   27765   27762      39   27768   27762      39   27768
   27765      40   27774   27771      39   27777   27771      39   27777   27774
      40   27783   27780      39   27786   27780      39   27786   27783      40
   27792   27789      39   27795   27789      39   27795   27792      40   27801
   27798      39   27804   27798      39   27804   27801      40   27810   27807
      39   27813   27807      39   27813   27810      40   27819   27816      39
   27822   27816      39   27822   27819      40   27828   27825      39   27831
   27825      39   27831   27828      40   27837   27834      39   27840   27834
      39   27840   27837      40   27846   27843      39   27849   27843      39
   27849   27846      40   27855   27852      39   27858   27852      39   27858
   27855      40   27864   27861      39   27867   27861      39   27867   27864
      40   27873   27870      39   27876   27870      39   27876   27873      40
   27882   27879      39   27885   27879      39   27885   27882      40   27891
   27888      39   27894   27888      39   27894   27891      40   27900   27897
      39   27903   27897      39   27903   27900      40   27909   27906      39
   27912   27906      39   27912   27909      40   27918   27915      39   27921
   27915      39   27921   27918      40   27927   27924      39   27930   27924
      39   27930   27927      40   27936   27933      39   27939   27933      39
   27939   27936      40   27945   27942      39   27948   27942      39   27948
   27945      40   27954   27951      39   27957   27951      39   27957   27954
      40   27963   27960      39   27966   27960      39   27966   27963      40
   27972   27969      39   27975   27969      39   27975   27972      40   27981
   27978      39   27984   27978      39   27984   27981      40   27990   27987
      39   27993   27987      39   27993   27990      40   27999   27996      39
   28002   27996      39   28002   27999      40   28008   28005      39   28011
   28005      39   28011   28008      40   28017   28014      39   28020   28014
      39   28020   28017      40   28026   28023      39   28029   28023      39
   28029   28026      40   28035   28032      39   28038   28032      39   28038
   28035      40   28044   28041      39   28047   28041      39   28047   28044
      40   28053   28050      39   28056   28050      39   28056   28053      40
   28062   28059      39   28065   28059      39   28065   28062      40   28071
   28068      39   28074   28068      39   28074   28071      40   28080   28077
      39   28083   28077      39   28083   28080      40   28089   28086      39
   28092   28086      39   28092   28089      40   28098   28095      39   28101
   28095      39   28101   28098      40   28107   28104      39   28110   28104
      39   28110   28107      40   28116   28113      39   28119   28113      39
   28119   28116      40   28125   28122      39   28128   28122      39   28128
   28125      40   28134   28131      39   28137   28131      39   28137   28134
      40   28143   28140      39   28146   28140      39   28146   28143      40
   28152   28149      39   28155   28149      39   28155   28152      40   28161
   28158      39   28164   28158      39   28164   28161      40   28170   28167
      39   28173   28167      39   28173   28170      40   28179   28176      39
   28182   28176      39   28182   28179      40   28188   28185      39   28191
   28185      39   28191   28188      40   28197   28194      39   28200   28194
      39   28200   28197      40   28206   28203      39   28209   28203      39
   28209   28206      40   28215   28212      39   28218   28212      39   28218
   28215      40   28224   28221      39   28227   28221      39   28227   28224
      40   28233   28230      39   28236   28230      39   28236   28233      40
   28242   28239      39   28245   28239      39   28245   28242      40   28251
   28248      39   28254   28248      39   28254   28251      40   28260   28257
      39   28263   28257      39   28263   28260      40   28269   28266      39
   28272   28266      39   28272   28269      40   28278   28275      39   28281
   28275      39   28281   28278      40   28287   28284      39   28290   28284
      39   28290   28287      40   28296   28293      39   28299   28293      39
   28299   28296      40   28305   28302      39   28308   28302      39   28308
   28305      40   28314   28311      39   28317   28311      39   28317   28314
      40   28323   28320      39   28326   28320      39   28326   28323      40
   28332   28329      39   28335   28329      39   28335   28332      40   28341
   28338      39   28344   28338      39   28344   28341      40   28350   28347
      39   28353   28347      39   28353   28350      40   28359   28356      39
   28362   28356      39   28362   28359      40   28368   28365      39   28371
   28365      39   28371   28368      40   28377   28374      39   28380   28374
      39   28380   28377      40   28386   28383      39   28389   28383      39
   28389   28386      40   28395   28392      39   28398   28392      39   28398
   28395      40   28404   28401      39   28407   28401      39   28407   28404
      40   28413   28410      39   28416   28410      39   28416   28413      40
   28422   28419      39   28425   28419      39   28425   28422      40   28431
   28428      39   28434   28428      39   28434   28431      40   28440   28437
      39   28443   28437      39   28443   28440      40   28449   28446      39
   28452   28446      39   28452   28449      40   28458   28455      39   28461
   28455      39   28461   28458      40   28467   28464      39   28470   28464
      39   28470   28467      40   28476   28473      39   28479   28473      39
   28479   28476      40   28485   28482      39   28488   28482      39   28488
   28485      40   28494   28491      39   28497   28491      39   28497   28494
      40   28503   28500      39   28506   28500      39   28506   28503      40
   28512   28509      39   28515   28509      39   28515   28512      40   28521
   28518      39   28524   28518      39   28524   28521      40   28530   28527
      39   28533   28527      39   28533   28530      40   28539   28536      39
   28542   28536      39   28542   28539      40   28548   28545      39   28551
   28545      39   28551   28548      40   28557   28554      39   28560   28554
      39   28560   28557      40   28566   28563      39   28569   28563      39
   28569   28566      40   28575   28572      39   28578   28572      39   28578
   28575      40   28584   28581      39   28587   28581      39   28587   28584
      40   28593   28590      39   28596   28590      39   28596   28593      40
   28602   28599      39   28605   28599      39   28605   28602      40   28611
   28608      39   28614   28608      39   28614   28611      40   28620   28617
      39   28623   28617      39   28623   28620      40   28629   28626      39
   28632   28626      39   28632   28629      40   28638   28635      39   28641
   28635      39   28641   28638      40   28647   28644      39   28650   28644
      39   28650   28647      40   28656   28653      39   28659   28653      39
   28659   28656      40   28665   28662      39   28668   28662      39   28668
   28665      40   28674   28671      39   28677   28671      39   28677   28674
      40   28683   28680      39   28686   28680      39   28686   28683      40
   28692   28689      39   28695   28689      39   28695   28692      40   28701
   28698      39   28704   28698      39   28704   28701      40   28710   28707
      39   28713   28707      39   28713   28710      40   28719   28716      39
   28722   28716      39   28722   28719      40   28728   28725      39   28731
   28725      39   28731   28728      40   28737   28734      39   28740   28734
      39   28740   28737      40   28746   28743      39   28749   28743      39
   28749   28746      40   28755   28752      39   28758   28752      39   28758
   28755      40   28764   28761      39   28767   28761      39   28767   28764
      40   28773   28770      39   28776   28770      39   28776   28773      40
   28782   28779      39   28785   28779      39   28785   28782      40   28791
   28788      39   28794   28788      39   28794   28791      40   28800   28797
      39   28803   28797      39   28803   28800      40   28809   28806      39
   28812   28806      39   28812   28809      40   28818   28815      39   28821
   28815      39   28821   28818      40   28827   28824      39   28830   28824
      39   28830   28827      40   28836   28833      39   28839   28833      39
   28839   28836      40   28845   28842      39   28848   28842      39   28848
   28845      40   28854   28851      39   28857   28851      39   28857   28854
      40   28863   28860      39   28866   28860      39   28866   28863      40
   28872   28869      39   28875   28869      39   28875   28872      40   28881
   28878      39   28884   28878      39   28884   28881      40   28890   28887
      39   28893   28887      39   28893   28890      40   28899   28896      39
   28902   28896      39   28902   28899      40   28908   28905      39   28911
   28905      39   28911   28908      40   28917   28914      39   28920   28914
      39   28920   28917      40   28926   28923      39   28929   28923      39
   28929   28926      40   28935   28932      39   28938   28932      39   28938
   28935      40   28944   28941      39   28947   28941      39   28947   28944
      40   28953   28950      39   28956   28950      39   28956   28953      40
   28962   28959      39   28965   28959      39   28965   28962      40   28971
   28968      39   28974   28968      39   28974   28971      40   28980   28977
      39   28983   28977      39   28983   28980      40   28989   28986      39
   28992   28986      39   28992   28989      40   28998   28995      39   29001
   28995      39   29001   28998      40   29007   29004      39   29010   29004
      39   29010   29007      40   29016   29013      39   29019   29013      39
   29019   29016      40   29025   29022      39   29028   29022      39   29028
   29025      40   29034   29031      39   29037   29031      39   29037   29034
      40   29043   29040      39   29046   29040      39   29046   29043      40
   29052   29049      39   29055   29049      39   29055   29052      40   29061
   29058      39   29064   29058      39   29064   29061      40   29070   29067
      39   29073   29067      39   29073   29070      40   29079   29076      39
   29082   29076      39   29082   29079      40   29088   29085      39   29091
   29085      39   29091   29088      40   29097   29094      39   29100   29094
      39   29100   29097      40   29106   29103      39   29109   29103      39
   29109   29106      40   29115   29112      39   29118   29112      39   29118
   29115      40   29124   29121      39   29127   29121      39   29127   29124
      40   29133   29130      39   29136   29130      39   29136   29133      40
   29142   29139      39   29145   29139      39   29145   29142      40   29151
   29148      39   29154   29148      39   29154   29151      40   29160   29157
      39   29163   29157      39   29163   29160      40   29169   29166      39
   29172   29166      39   29172   29169      40   29178   29175      39   29181
   29175      39   29181   29178      40   29187   29184      39   29190   29184
      39   29190   29187      40   29196   29193      39   29199   29193      39
   29199   29196      40   29205   29202      39   29208   29202      39   29208
   29205      40   29214   29211      39   29217   29211      39   29217   29214
      40   29223   29220      39   29226   29220      39   29226   29223      40
   29232   29229      39   29235   29229      39   29235   29232      40   29241
   29238      39   29244   29238      39   29244   29241      40   29250   29247
      39   29253   29247      39   29253   29250      40   29259   29256      39
   29262   29256      39   29262   29259      40   29268   29265      39   29271
   29265      39   29271   29268      40   29277   29274      39   29280   29274
      39   29280   29277      40   29286   29283      39   29289   29283      39
   29289   29286      40   29295   29292      39   29298   29292      39   29298
   29295      40   29304   29301      39   29307   29301      39   29307   29304
      40   29313   29310      39   29316   29310      39   29316   29313      40
   29322   29319      39   29325   29319      39   29325   29322      40   29331
   29328      39   29334   29328      39   29334   29331      40   29340   29337
      39   29343   29337      39   29343   29340      40   29349   29346      39
   29352   29346      39   29352   29349      40   29358   29355      39   29361
   29355      39   29361   29358      40   29367   29364      39   29370   29364
      39   29370   29367      40   29376   29373      39   29379   29373      39
   29379   29376      40   29385   29382      39   29388   29382      39   29388
   29385      40   29394   29391      39   29397   29391      39   29397   29394
      40   29403   29400      39   29406   29400      39   29406   29403      40
   29412   29409      39   29415   29409      39   29415   29412      40   29421
   29418      39   29424   29418      39   29424   29421      40   29430   29427
      39   29433   29427      39   29433   29430      40   29439   29436      39
   29442   29436      39   29442   29439      40   29448   29445      39   29451
   29445      39   29451   29448      40   29457   29454      39   29460   29454
      39   29460   29457      40   29466   29463      39   29469   29463      39
   29469   29466      40   29475   29472      39   29478   29472      39   29478
   29475      40   29484   29481      39   29487   29481      39   29487   29484
      40   29493   29490      39   29496   29490      39   29496   29493      40
   29502   29499      39   29505   29499      39   29505   29502      40   29511
   29508      39   29514   29508      39   29514   29511      40   29520   29517
      39   29523   29517      39   29523   29520      40   29529   29526      39
   29532   29526      39   29532   29529      40   29538   29535      39   29541
   29535      39   29541   29538      40   29547   29544      39   29550   29544
      39   29550   29547      40   29556   29553      39   29559   29553      39
   29559   29556      40   29565   29562      39   29568   29562      39   29568
   29565      40   29574   29571      39   29577   29571      39   29577   29574
      40   29583   29580      39   29586   29580      39   29586   29583      40
   29592   29589      39   29595   29589      39   29595   29592      40   29601
   29598      39   29604   29598      39   29604   29601      40   29610   29607
      39   29613   29607      39   29613   29610      40   29619   29616      39
   29622   29616      39   29622   29619      40   29628   29625      39   29631
   29625      39   29631   29628      40   29637   29634      39   29640   29634
      39   29640   29637      40   29646   29643      39   29649   29643      39
   29649   29646      40   29655   29652      39   29658   29652      39   29658
   29655      40   29664   29661      39   29667   29661      39   29667   29664
      40   29673   29670      39   29676   29670      39   29676   29673      40
   29682   29679      39   29685   29679      39   29685   29682      40   29691
   29688      39   29694   29688      39   29694   29691      40   29700   29697
      39   29703   29697      39   29703   29700      40   29709   29706      39
   29712   29706      39   29712   29709      40   29718   29715      39   29721
   29715      39   29721   29718      40   29727   29724      39   29730   29724
      39   29730   29727      40   29736   29733      39   29739   29733      39
   29739   29736      40   29745   29742      39   29748   29742      39   29748
   29745      40   29754   29751      39   29757   29751      39   29757   29754
      40   29763   29760      39   29766   29760      39   29766   29763      40
   29772   29769      39   29775   29769      39   29775   29772      40   29781
   29778      39   29784   29778      39   29784   29781      40   29790   29787
      39   29793   29787      39   29793   29790      40   29799   29796      39
   29802   29796      39   29802   29799      40   29808   29805      39   29811
   29805      39   29811   29808      40   29817   29814      39   29820   29814
      39   29820   29817      40   29826   29823      39   29829   29823      39
   29829   29826      40   29835   29832      39   29838   29832      39   29838
   29835      40   29844   29841      39   29847   29841      39   29847   29844
      40   29853   29850      39   29856   29850      39   29856   29853      40
   29862   29859      39   29865   29859      39   29865   29862      40   29871
   29868      39   29874   29868      39   29874   29871      40   29880   29877
      39   29883   29877      39   29883   29880      40   29889   29886      39
   29892   29886      39   29892   29889      40   29898   29895      39   29901
   29895      39   29901   29898      40   29907   29904      39   29910   29904
      39   29910   29907      40   29916   29913      39   29919   29913      39
   29919   29916      40   29925   29922      39   29928   29922      39   29928
   29925      40   29934   29931      39   29937   29931      39   29937   29934
      40   29943   29940      39   29946   29940      39   29946   29943      40
   29952   29949      39   29955   29949      39   29955   29952      40   29961
   29958      39   29964   29958      39   29964   29961      40   29970   29967
      39   29973   29967      39   29973   29970      40   29979   29976      39
   29982   29976      39   29982   29979      40   29988   29985      39   29991
   29985      39   29991   29988      40   29997   29994      39   30000   29994
      39   30000   29997      40   30006   30003      39   30009   30003      39
   30009   30006      40   30015   30012      39   30018   30012      39   30018
   30015      40   30024   30021      39   30027   30021      39   30027   30024
      40   30033   30030      39   30036   30030      39   30036   30033      40
   30042   30039      39   30045   30039      39   30045   30042      40   30051
   30048      39   30054   30048      39   30054   30051      40   30060   30057
      39   30063   30057      39   30063   30060      40   30069   30066      39
   30072   30066      39   30072   30069      40   30078   30075      39   30081
   30075      39   30081   30078      40   30087   30084      39   30090   30084
      39   30090   30087      40   30096   30093      39   30099   30093      39
   30099   30096      40   30105   30102      39   30108   30102      39   30108
   30105      40   30114   30111      39   30117   30111      39   30117   30114
      40   30123   30120      39   30126   30120      39   30126   30123      40
   30132   30129      39   30135   30129      39   30135   30132      40   30141
   30138      39   30144   30138      39   30144   30141      40   30150   30147
      39   30153   30147      39   30153   30150      40   30159   30156      39
   30162   30156      39   30162   30159      40   30168   30165      39   30171
   30165      39   30171   30168      40   30177   30174      39   30180   30174
      39   30180   30177      40   30186   30183      39   30189   30183      39
   30189   30186      40   30195   30192      39   30198   30192      39   30198
   30195      40   30204   30201      39   30207   30201      39   30207   30204
      40   30213   30210      39   30216   30210      39   30216   30213      40
   30222   30219      39   30225   30219      39   30225   30222      40   30231
   30228      39   30234   30228      39   30234   30231      40   30240   30237
      39   30243   30237      39   30243   30240      40   30249   30246      39
   30252   30246      39   30252   30249      40   30258   30255      39   30261
   30255      39   30261   30258      40   30267   30264      39   30270   30264
      39   30270   30267      40   30276   30273      39   30279   30273      39
   30279   30276      40   30285   30282      39   30288   30282      39   30288
   30285      40   30294   30291      39   30297   30291      39   30297   30294
      40   30303   30300      39   30306   30300      39   30306   30303      40
   30312   30309      39   30315   30309      39   30315   30312      40   30321
   30318      39   30324   30318      39   30324   30321      40   30330   30327
      39   30333   30327      39   30333   30330      40   30339   30336      39
   30342   30336      39   30342   30339      40   30348   30345      39   30351
   30345      39   30351   30348      40   30357   30354      39   30360   30354
      39   30360   30357      40   30366   30363      39   30369   30363      39
   30369   30366      40   30375   30372      39   30378   30372      39   30378
   30375      40   30384   30381      39   30387   30381      39   30387   30384
      40   30393   30390      39   30396   30390      39   30396   30393      40
   30402   30399      39   30405   30399      39   30405   30402      40   30411
   30408      39   30414   30408      39   30414   30411      40   30420   30417
      39   30423   30417      39   30423   30420      40   30429   30426      39
   30432   30426      39   30432   30429      40   30438   30435      39   30441
   30435      39   30441   30438      40   30447   30444      39   30450   30444
      39   30450   30447      40   30456   30453      39   30459   30453      39
   30459   30456      40   30465   30462      39   30468   30462      39   30468
   30465      40   30474   30471      39   30477   30471      39   30477   30474
      40   30483   30480      39   30486   30480      39   30486   30483      40
   30492   30489      39   30495   30489      39   30495   30492      40   30501
   30498      39   30504   30498      39   30504   30501      40   30510   30507
      39   30513   30507      39   30513   30510      40   30519   30516      39
   30522   30516      39   30522   30519      40   30528   30525      39   30531
   30525      39   30531   30528      40   30537   30534      39   30540   30534
      39   30540   30537      40   30546   30543      39   30549   30543      39
   30549   30546      40   30555   30552      39   30558   30552      39   30558
   30555      40   30564   30561      39   30567   30561      39   30567   30564
      40   30573   30570      39   30576   30570      39   30576   30573      40
   30582   30579      39   30585   30579      39   30585   30582      40   30591
   30588      39   30594   30588      39   30594   30591      40   30600   30597
      39   30603   30597      39   30603   30600      40   30609   30606      39
   30612   30606      39   30612   30609      40   30618   30615      39   30621
   30615      39   30621   30618      40   30627   30624      39   30630   30624
      39   30630   30627      40   30636   30633      39   30639   30633      39
   30639   30636      40   30645   30642      39   30648   30642      39   30648
   30645      40   30654   30651      39   30657   30651      39   30657   30654
      40   30663   30660      39   30666   30660      39   30666   30663      40
   30672   30669      39   30675   30669      39   30675   30672      40   30681
   30678      39   30684   30678      39   30684   30681      40   30690   30687
      39   30693   30687      39   30693   30690      40   30699   30696      39
   30702   30696      39   30702   30699      40   30708   30705      39   30711
   30705      39   30711   30708      40   30717   30714      39   30720   30714
      39   30720   30717      40   30726   30723      39   30729   30723      39
   30729   30726      40   30735   30732      39   30738   30732      39   30738
   30735      40   30744   30741      39   30747   30741      39   30747   30744
      40   30753   30750      39   30756   30750      39   30756   30753      40
   30762   30759      39   30765   30759      39   30765   30762      40   30771
   30768      39   30774   30768      39   30774   30771      40   30780   30777
      39   30783   30777      39   30783   30780      40   30789   30786      39
   30792   30786      39   30792   30789      40   30798   30795      39   30801
   30795      39   30801   30798      40   30807   30804      39   30810   30804
      39   30810   30807      40   30816   30813      39   30819   30813      39
   30819   30816      40   30825   30822      39   30828   30822      39   30828
   30825      40   30834   30831      39   30837   30831      39   30837   30834
      40   30843   30840      39   30846   30840      39   30846   30843      40
   30852   30849      39   30855   30849      39   30855   30852      40   30861
   30858      39   30864   30858      39   30864   30861      40   30870   30867
      39   30873   30867      39   30873   30870      40   30879   30876      39
   30882   30876      39   30882   30879      40   30888   30885      39   30891
   30885      39   30891   30888      40   30897   30894      39   30900   30894
      39   30900   30897      40   30906   30903      39   30909   30903      39
   30909   30906      40   30915   30912      39   30918   30912      39   30918
   30915      40   30924   30921      39   30927   30921      39   30927   30924
      40   30933   30930      39   30936   30930      39   30936   30933      40
   30942   30939      39   30945   30939      39   30945   30942      40   30951
   30948      39   30954   30948      39   30954   30951      40   30960   30957
      39   30963   30957      39   30963   30960      40   30969   30966      39
   30972   30966      39   30972   30969      40   30978   30975      39   30981
   30975      39   30981   30978      40   30987   30984      39   30990   30984
      39   30990   30987      40   30996   30993      39   30999   30993      39
   30999   30996      40   31005   31002      39   31008   31002      39   31008
   31005      40   31014   31011      39   31017   31011      39   31017   31014
      40   31023   31020      39   31026   31020      39   31026   31023      40
   31032   31029      39   31035   31029      39   31035   31032      40   31041
   31038      39   31044   31038      39   31044   31041      40   31050   31047
      39   31053   31047      39   31053   31050      40   31059   31056      39
   31062   31056      39   31062   31059      40   31068   31065      39   31071
   31065      39   31071   31068      40   31077   31074      39   31080   31074
      39   31080   31077      40   31086   31083      39   31089   31083      39
   31089   31086      40   31095   31092      39   31098   31092      39   31098
   31095      40   31104   31101      39   31107   31101      39   31107   31104
      40   31113   31110      39   31116   31110      39   31116   31113      40
   31122   31119      39   31125   31119      39   31125   31122      40   31131
   31128      39   31134   31128      39   31134   31131      40   31140   31137
      39   31143   31137      39   31143   31140      40   31149   31146      39
   31152   31146      39   31152   31149      40   31158   31155      39   31161
   31155      39   31161   31158      40   31167   31164      39   31170   31164
      39   31170   31167      40   31176   31173      39   31179   31173      39
   31179   31176      40   31185   31182      39   31188   31182      39   31188
   31185      40   31194   31191      39   31197   31191      39   31197   31194
      40   31203   31200      39   31206   31200      39   31206   31203      40
   31212   31209      39   31215   31209      39   31215   31212      40   31221
   31218      39   31224   31218      39   31224   31221      40   31230   31227
      39   31233   31227      39   31233   31230      40   31239   31236      39
   31242   31236      39   31242   31239      40   31248   31245      39   31251
   31245      39   31251   31248      40   31257   31254      39   31260   31254
      39   31260   31257      40   31266   31263      39   31269   31263      39
   31269   31266      40   31275   31272      39   31278   31272      39   31278
   31275      40   31284   31281      39   31287   31281      39   31287   31284
      40   31293   31290      39   31296   31290      39   31296   31293      40
   31302   31299      39   31305   31299      39   31305   31302      40   31311
   31308      39   31314   31308      39   31314   31311      40   31320   31317
      39   31323   31317      39   31323   31320      40   31329   31326      39
   31332   31326      39   31332   31329      40   31338   31335      39   31341
   31335      39   31341   31338      40   31347   31344      39   31350   31344
      39   31350   31347      40   31356   31353      39   31359   31353      39
   31359   31356      40   31365   31362      39   31368   31362      39   31368
   31365      40   31374   31371      39   31377   31371      39   31377   31374
      40   31383   31380      39   31386   31380      39   31386   31383      40
   31392   31389      39   31395   31389      39   31395   31392      40   31401
   31398      39   31404   31398      39   31404   31401      40   31410   31407
      39   31413   31407      39   31413   31410      40   31419   31416      39
   31422   31416      39   31422   31419      40   31428   31425      39   31431
   31425      39   31431   31428      40   31437   31434      39   31440   31434
      39   31440   31437      40   31446   31443      39   31449   31443      39
   31449   31446      40   31455   31452      39   31458   31452      39   31458
   31455      40   31464   31461      39   31467   31461      39   31467   31464
      40   31473   31470      39   31476   31470      39   31476   31473      40
   31482   31479      39   31485   31479      39   31485   31482      40   31491
   31488      39   31494   31488      39   31494   31491      40   31500   31497
      39   31503   31497      39   31503   31500      40   31509   31506      39
   31512   31506      39   31512   31509      40   31518   31515      39   31521
   31515      39   31521   31518      40   31527   31524      39   31530   31524
      39   31530   31527      40   31536   31533      39   31539   31533      39
   31539   31536      40   31545   31542      39   31548   31542      39   31548
   31545      40   31554   31551      39   31557   31551      39   31557   31554
      40   31563   31560      39   31566   31560      39   31566   31563      40
   31572   31569      39   31575   31569      39   31575   31572      40   31581
   31578      39   31584   31578      39   31584   31581      40   31590   31587
      39   31593   31587      39   31593   31590      40   31599   31596      39
   31602   31596      39   31602   31599      40   31608   31605      39   31611
   31605      39   31611   31608      40   31617   31614      39   31620   31614
      39   31620   31617      40   31626   31623      39   31629   31623      39
   31629   31626      40   31635   31632      39   31638   31632      39   31638
   31635      40   31644   31641      39   31647   31641      39   31647   31644
      40   31653   31650      39   31656   31650      39   31656   31653      40
   31662   31659      39   31665   31659      39   31665   31662      40   31671
   31668      39   31674   31668      39   31674   31671      40   31680   31677
      39   31683   31677      39   31683   31680      40   31689   31686      39
   31692   31686      39   31692   31689      40   31698   31695      39   31701
   31695      39   31701   31698      40   31707   31704      39   31710   31704
      39   31710   31707      40   31716   31713      39   31719   31713      39
   31719   31716      40   31725   31722      39   31728   31722      39   31728
   31725      40   31734   31731      39   31737   31731      39   31737   31734
      40   31743   31740      39   31746   31740      39   31746   31743      40
   31752   31749      39   31755   31749      39   31755   31752      40   31761
   31758      39   31764   31758      39   31764   31761      40   31770   31767
      39   31773   31767      39   31773   31770      40   31779   31776      39
   31782   31776      39   31782   31779      40   31788   31785      39   31791
   31785      39   31791   31788      40   31797   31794      39   31800   31794
      39   31800   31797      40   31806   31803      39   31809   31803      39
   31809   31806      40   31815   31812      39   31818   31812      39   31818
   31815      40   31824   31821      39   31827   31821      39   31827   31824
      40   31833   31830      39   31836   31830      39   31836   31833      40
   31842   31839      39   31845   31839      39   31845   31842      40   31851
   31848      39   31854   31848      39   31854   31851      40   31860   31857
      39   31863   31857      39   31863   31860      40   31869   31866      39
   31872   31866      39   31872   31869      40   31878   31875      39   31881
   31875      39   31881   31878      40   31887   31884      39   31890   31884
      39   31890   31887      40   31896   31893      39   31899   31893      39
   31899   31896      40   31905   31902      39   31908   31902      39   31908
   31905      40   31914   31911      39   31917   31911      39   31917   31914
      40   31923   31920      39   31926   31920      39   31926   31923      40
   31932   31929      39   31935   31929      39   31935   31932      40   31941
   31938      39   31944   31938      39   31944   31941      40   31950   31947
      39   31953   31947      39   31953   31950      40   31959   31956      39
   31962   31956      39   31962   31959      40   31968   31965      39   31971
   31965      39   31971   31968      40   31977   31974      39   31980   31974
      39   31980   31977      40   31986   31983      39   31989   31983      39
   31989   31986      40   31995   31992      39   31998   31992      39   31998
   31995      40   32004   32001      39   32007   32001      39   32007   32004
      40   32013   32010      39   32016   32010      39   32016   32013      40
   32022   32019      39   32025   32019      39   32025   32022      40   32031
   32028      39   32034   32028      39   32034   32031      40   32040   32037
      39   32043   32037      39   32043   32040      40   32049   32046      39
   32052   32046      39   32052   32049      40   32058   32055      39   32061
   32055      39   32061   32058      40   32067   32064      39   32070   32064
      39   32070   32067      40   32076   32073      39   32079   32073      39
   32079   32076      40   32085   32082      39   32088   32082      39   32088
   32085      40   32094   32091      39   32097   32091      39   32097   32094
      40   32103   32100      39   32106   32100      39   32106   32103      40
   32112   32109      39   32115   32109      39   32115   32112      40   32121
   32118      39   32124   32118      39   32124   32121      40   32130   32127
      39   32133   32127      39   32133   32130      40   32139   32136      39
   32142   32136      39   32142   32139      40   32148   32145      39   32151
   32145      39   32151   32148      40   32157   32154      39   32160   32154
      39   32160   32157      40   32166   32163      39   32169   32163      39
   32169   32166      40   32175   32172      39   32178   32172      39   32178
   32175      40   32184   32181      39   32187   32181      39   32187   32184
      40   32193   32190      39   32196   32190      39   32196   32193      40
   32202   32199      39   32205   32199      39   32205   32202      40   32211
   32208      39   32214   32208      39   32214   32211      40   32220   32217
      39   32223   32217      39   32223   32220      40   32229   32226      39
   32232   32226      39   32232   32229      40   32238   32235      39   32241
   32235      39   32241   32238      40   32247   32244      39   32250   32244
      39   32250   32247      40   32256   32253      39   32259   32253      39
   32259   32256      40   32265   32262      39   32268   32262      39   32268
   32265      40   32274   32271      39   32277   32271      39   32277   32274
      40   32283   32280      39   32286   32280      39   32286   32283      40
   32292   32289      39   32295   32289      39   32295   32292      40   32301
   32298      39   32304   32298      39   32304   32301      40   32310   32307
      39   32313   32307      39   32313   32310      40   32319   32316      39
   32322   32316      39   32322   32319      40   32328   32325      39   32331
   32325      39   32331   32328      40   32337   32334      39   32340   32334
      39   32340   32337      40   32346   32343      39   32349   32343      39
   32349   32346      40   32355   32352      39   32358   32352      39   32358
   32355      40   32364   32361      39   32367   32361      39   32367   32364
      40   32373   32370      39   32376   32370      39   32376   32373      40
   32382   32379      39   32385   32379      39   32385   32382      40   32391
   32388      39   32394   32388      39   32394   32391      40   32400   32397
      39   32403   32397      39   32403   32400      40   32409   32406      39
   32412   32406      39   32412   32409      40   32418   32415      39   32421
   32415      39   32421   32418      40   32427   32424      39   32430   32424
      39   32430   32427      40   32436   32433      39   32439   32433      39
   32439   32436      40   32445   32442      39   32448   32442      39   32448
   32445      40   32454   32451      39   32457   32451      39   32457   32454
      40   32463   32460      39   32466   32460      39   32466   32463      40
   32472   32469      39   32475   32469      39   32475   32472      40   32481
   32478      39   32484   32478      39   32484   32481      40   32490   32487
      39   32493   32487      39   32493   32490      40   32499   32496      39
   32502   32496      39   32502   32499      40   32508   32505      39   32511
   32505      39   32511   32508      40   32517   32514      39   32520   32514
      39   32520   32517      40   32526   32523      39   32529   32523      39
   32529   32526      40   32535   32532      39   32538   32532      39   32538
   32535      40   32544   32541      39   32547   32541      39   32547   32544
      40   32553   32550      39   32556   32550      39   32556   32553      40
   32562   32559      39   32565   32559      39   32565   32562      40   32571
   32568      39   32574   32568      39   32574   32571      40   32580   32577
      39   32583   32577      39   32583   32580      40   32589   32586      39
   32592   32586      39   32592   32589      40   32598   32595      39   32601
   32595      39   32601   32598      40   32607   32604      39   32610   32604
      39   32610   32607      40   32616   32613      39   32619   32613      39
   32619   32616      40   32625   32622      39   32628   32622      39   32628
   32625      40   32634   32631      39   32637   32631      39   32637   32634
      40   32643   32640      39   32646   32640      39   32646   32643      40
   32652   32649      39   32655   32649      39   32655   32652      40   32661
   32658      39   32664   32658      39   32664   32661      40   32670   32667
      39   32673   32667      39   32673   32670      40   32679   32676      39
   32682   32676      39   32682   32679      40   32688   32685      39   32691
   32685      39   32691   32688      40   32697   32694      39   32700   32694
      39   32700   32697      40   32706   32703      39   32709   32703      39
   32709   32706      40   32715   32712      39   32718   32712      39   32718
   32715      40   32724   32721      39   32727   32721      39   32727   32724
      40   32733   32730      39   32736   32730      39   32736   32733      40
   32742   32739      39   32745   32739      39   32745   32742      40   32751
   32748      39   32754   32748      39   32754   32751      40   32760   32757
      39   32763   32757      39   32763   32760      40   32769   32766      39
   32772   32766      39   32772   32769      40   32778   32775      39   32781
   32775      39   32781   32778      40   32787   32784      39   32790   32784
      39   32790   32787      40   32796   32793      39   32799   32793      39
   32799   32796      40   32805   32802      39   32808   32802      39   32808
   32805      40   32814   32811      39   32817   32811      39   32817   32814
      40   32823   32820      39   32826   32820      39   32826   32823      40
   32832   32829      39   32835   32829      39   32835   32832      40   32841
   32838      39   32844   32838      39   32844   32841      40   32850   32847
      39   32853   32847      39   32853   32850      40   32859   32856      39
   32862   32856      39   32862   32859      40   32868   32865      39   32871
   32865      39   32871   32868      40   32877   32874      39   32880   32874
      39   32880   32877      40   32886   32883      39   32889   32883      39
   32889   32886      40   32895   32892      39   32898   32892      39   32898
   32895      40   32904   32901      39   32907   32901      39   32907   32904
      40   32913   32910      39   32916   32910      39   32916   32913      40
   32922   32919      39   32925   32919      39   32925   32922      40   32931
   32928      39   32934   32928      39   32934   32931      40   32940   32937
      39   32943   32937      39   32943   32940      40   32949   32946      39
   32952   32946      39   32952   32949      40   32958   32955      39   32961
   32955      39   32961   32958      40   32967   32964      39   32970   32964
      39   32970   32967      40   32976   32973      39   32979   32973      39
   32979   32976      40   32985   32982      39   32988   32982      39   32988
   32985      40   32994   32991      39   32997   32991      39   32997   32994
      40   33003   33000      39   33006   33000      39   33006   33003      40
   33012   33009      39   33015   33009      39   33015   33012      40   33021
   33018      39   33024   33018      39   33024   33021      40   33030   33027
      39   33033   33027      39   33033   33030      40   33039   33036      39
   33042   33036      39   33042   33039      40   33048   33045      39   33051
   33045      39   33051   33048      40   33057   33054      39   33060   33054
      39   33060   33057      40   33066   33063      39   33069   33063      39
   33069   33066      40   33075   33072      39   33078   33072      39   33078
   33075      40   33084   33081      39   33087   33081      39   33087   33084
      40   33093   33090      39   33096   33090      39   33096   33093      40
   33102   33099      39   33105   33099      39   33105   33102      40   33111
   33108      39   33114   33108      39   33114   33111      40   33120   33117
      39   33123   33117      39   33123   33120      40   33129   33126      39
   33132   33126      39   33132   33129      40   33138   33135      39   33141
   33135      39   33141   33138      40   33147   33144      39   33150   33144
      39   33150   33147      40   33156   33153      39   33159   33153      39
   33159   33156      40   33165   33162      39   33168   33162      39   33168
   33165      40   33174   33171      39   33177   33171      39   33177   33174
      40   33183   33180      39   33186   33180      39   33186   33183      40
   33192   33189      39   33195   33189      39   33195   33192      40   33201
   33198      39   33204   33198      39   33204   33201      40   33210   33207
      39   33213   33207      39   33213   33210      40   33219   33216      39
   33222   33216      39   33222   33219      40   33228   33225      39   33231
   33225      39   33231   33228      40   33237   33234      39   33240   33234
      39   33240   33237      40   33246   33243      39   33249   33243      39
   33249   33246      40   33255   33252      39   33258   33252      39   33258
   33255      40   33264   33261      39   33267   33261      39   33267   33264
      40   33273   33270      39   33276   33270      39   33276   33273      40
   33282   33279      39   33285   33279      39   33285   33282      40   33291
   33288      39   33294   33288      39   33294   33291      40   33300   33297
      39   33303   33297      39   33303   33300      40   33309   33306      39
   33312   33306      39   33312   33309      40   33318   33315      39   33321
   33315      39   33321   33318      40   33327   33324      39   33330   33324
      39   33330   33327      40   33336   33333      39   33339   33333      39
   33339   33336      40   33345   33342      39   33348   33342      39   33348
   33345      40   33354   33351      39   33357   33351      39   33357   33354
      40   33363   33360      39   33366   33360      39   33366   33363      40
   33372   33369      39   33375   33369      39   33375   33372      40   33381
   33378      39   33384   33378      39   33384   33381      40   33390   33387
      39   33393   33387      39   33393   33390      40   33399   33396      39
   33402   33396      39   33402   33399      40   33408   33405      39   33411
   33405      39   33411   33408      40   33417   33414      39   33420   33414
      39   33420   33417      40   33426   33423      39   33429   33423      39
   33429   33426      40   33435   33432      39   33438   33432      39   33438
   33435      40   33444   33441      39   33447   33441      39   33447   33444
      40   33453   33450      39   33456   33450      39   33456   33453      40
   33462   33459      39   33465   33459      39   33465   33462      40   33471
   33468      39   33474   33468      39   33474   33471      40   33480   33477
      39   33483   33477      39   33483   33480      40   33489   33486      39
   33492   33486      39   33492   33489      40   33498   33495      39   33501
   33495      39   33501   33498      40   33507   33504      39   33510   33504
      39   33510   33507      40   33516   33513      39   33519   33513      39
   33519   33516      40   33525   33522      39   33528   33522      39   33528
   33525      40   33534   33531      39   33537   33531      39   33537   33534
      40   33543   33540      39   33546   33540      39   33546   33543      40
   33552   33549      39   33555   33549      39   33555   33552      40   33561
   33558      39   33564   33558      39   33564   33561      40   33570   33567
      39   33573   33567      39   33573   33570      40   33579   33576      39
   33582   33576      39   33582   33579      40   33588   33585      39   33591
   33585      39   33591   33588      40   33597   33594      39   33600   33594
      39   33600   33597      40   33606   33603      39   33609   33603      39
   33609   33606      40   33615   33612      39   33618   33612      39   33618
   33615      40   33624   33621      39   33627   33621      39   33627   33624
      40   33633   33630      39   33636   33630      39   33636   33633      40
   33642   33639      39   33645   33639      39   33645   33642      40   33651
   33648      39   33654   33648      39   33654   33651      40   33660   33657
      39   33663   33657      39   33663   33660      40   33669   33666      39
   33672   33666      39   33672   33669      40   33678   33675      39   33681
   33675      39   33681   33678      40   33687   33684      39   33690   33684
      39   33690   33687      40   33696   33693      39   33699   33693      39
   33699   33696      40   33705   33702      39   33708   33702      39   33708
   33705      40   33714   33711      39   33717   33711      39   33717   33714
      40   33723   33720      39   33726   33720      39   33726   33723      40
   33732   33729      39   33735   33729      39   33735   33732      40   33741
   33738      39   33744   33738      39   33744   33741      40   33750   33747
      39   33753   33747      39   33753   33750      40   33759   33756      39
   33762   33756      39   33762   33759      40   33768   33765      39   33771
   33765      39   33771   33768      40   33777   33774      39   33780   33774
      39   33780   33777      40   33786   33783      39   33789   33783      39
   33789   33786      40   33795   33792      39   33798   33792      39   33798
   33795      40   33804   33801      39   33807   33801      39   33807   33804
      40   33813   33810      39   33816   33810      39   33816   33813      40
   33822   33819      39   33825   33819      39   33825   33822      40   33831
   33828      39   33834   33828      39   33834   33831      40   33840   33837
      39   33843   33837      39   33843   33840      40   33849   33846      39
   33852   33846      39   33852   33849      40   33858   33855      39   33861
   33855      39   33861   33858      40   33867   33864      39   33870   33864
      39   33870   33867      40   33876   33873      39   33879   33873      39
   33879   33876      40   33885   33882      39   33888   33882      39   33888
   33885      40   33894   33891      39   33897   33891      39   33897   33894
      40   33903   33900      39   33906   33900      39   33906   33903      40
   33912   33909      39   33915   33909      39   33915   33912      40   33921
   33918      39   33924   33918      39   33924   33921      40   33930   33927
      39   33933   33927      39   33933   33930      40   33939   33936      39
   33942   33936      39   33942   33939      40   33948   33945      39   33951
   33945      39   33951   33948      40   33957   33954      39   33960   33954
      39   33960   33957      40   33966   33963      39   33969   33963      39
   33969   33966      40   33975   33972      39   33978   33972      39   33978
   33975      40   33984   33981      39   33987   33981      39   33987   33984
      40   33993   33990      39   33996   33990      39   33996   33993      40
   34002   33999      39   34005   33999      39   34005   34002      40   34011
   34008      39   34014   34008      39   34014   34011      40   34020   34017
      39   34023   34017      39   34023   34020      40   34029   34026      39
   34032   34026      39   34032   34029      40   34038   34035      39   34041
   34035      39   34041   34038      40   34047   34044      39   34050   34044
      39   34050   34047      40   34056   34053      39   34059   34053      39
   34059   34056      40   34065   34062      39   34068   34062      39   34068
   34065      40   34074   34071      39   34077   34071      39   34077   34074
      40   34083   34080      39   34086   34080      39   34086   34083      40
   34092   34089      39   34095   34089      39   34095   34092      40   34101
   34098      39   34104   34098      39   34104   34101      40   34110   34107
      39   34113   34107      39   34113   34110      40   34119   34116      39
   34122   34116      39   34122   34119      40   34128   34125      39   34131
   34125      39   34131   34128      40   34137   34134      39   34140   34134
      39   34140   34137      40   34146   34143      39   34149   34143      39
   34149   34146      40   34155   34152      39   34158   34152      39   34158
   34155      40   34164   34161      39   34167   34161      39   34167   34164
      40   34173   34170      39   34176   34170      39   34176   34173      40
   34182   34179      39   34185   34179      39   34185   34182      40   34191
   34188      39   34194   34188      39   34194   34191      40   34200   34197
      39   34203   34197      39   34203   34200      40   34209   34206      39
   34212   34206      39   34212   34209      40   34218   34215      39   34221
   34215      39   34221   34218      40   34227   34224      39   34230   34224
      39   34230   34227      40   34236   34233      39   34239   34233      39
   34239   34236      40   34245   34242      39   34248   34242      39   34248
   34245      40   34254   34251      39   34257   34251      39   34257   34254
      40   34263   34260      39   34266   34260      39   34266   34263      40
   34272   34269      39   34275   34269      39   34275   34272      40   34281
   34278      39   34284   34278      39   34284   34281      40   34290   34287
      39   34293   34287      39   34293   34290      40   34299   34296      39
   34302   34296      39   34302   34299      40   34308   34305      39   34311
   34305      39   34311   34308      40   34317   34314      39   34320   34314
      39   34320   34317      40   34326   34323      39   34329   34323      39
   34329   34326      40   34335   34332      39   34338   34332      39   34338
   34335      40   34344   34341      39   34347   34341      39   34347   34344
      40   34353   34350      39   34356   34350      39   34356   34353      40
   34362   34359      39   34365   34359      39   34365   34362      40   34371
   34368      39   34374   34368      39   34374   34371      40   34380   34377
      39   34383   34377      39   34383   34380      40   34389   34386      39
   34392   34386      39   34392   34389      40   34398   34395      39   34401
   34395      39   34401   34398      40   34407   34404      39   34410   34404
      39   34410   34407      40   34416   34413      39   34419   34413      39
   34419   34416      40   34425   34422      39   34428   34422      39   34428
   34425      40   34434   34431      39   34437   34431      39   34437   34434
      40   34443   34440      39   34446   34440      39   34446   34443      40
   34452   34449      39   34455   34449      39   34455   34452      40   34461
   34458      39   34464   34458      39   34464   34461      40   34470   34467
      39   34473   34467      39   34473   34470      40   34479   34476      39
   34482   34476      39   34482   34479      40   34488   34485      39   34491
   34485      39   34491   34488      40   34497   34494      39   34500   34494
      39   34500   34497      40   34506   34503      39   34509   34503      39
   34509   34506      40   34515   34512      39   34518   34512      39   34518
   34515      40   34524   34521      39   34527   34521      39   34527   34524
      40   34533   34530      39   34536   34530      39   34536   34533      40
   34542   34539      39   34545   34539      39   34545   34542      40   34551
   34548      39   34554   34548      39   34554   34551      40   34560   34557
      39   34563   34557      39   34563   34560      40   34569   34566      39
   34572   34566      39   34572   34569      40   34578   34575      39   34581
   34575      39   34581   34578      40   34587   34584      39   34590   34584
      39   34590   34587      40   34596   34593      39   34599   34593      39
   34599   34596      40   34605   34602      39   34608   34602      39   34608
   34605      40   34614   34611      39   34617   34611      39   34617   34614
      40   34623   34620      39   34626   34620      39   34626   34623      40
   34632   34629      39   34635   34629      39   34635   34632      40   34641
   34638      39   34644   34638      39   34644   34641      40   34650   34647
      39   34653   34647      39   34653   34650      40   34659   34656      39
   34662   34656      39   34662   34659      40   34668   34665      39   34671
   34665      39   34671   34668      40   34677   34674      39   34680   34674
      39   34680   34677      40   34686   34683      39   34689   34683      39
   34689   34686      40   34695   34692      39   34698   34692      39   34698
   34695      40   34704   34701      39   34707   34701      39   34707   34704
      40   34713   34710      39   34716   34710      39   34716   34713      40
   34722   34719      39   34725   34719      39   34725   34722      40   34731
   34728      39   34734   34728      39   34734   34731      40   34740   34737
      39   34743   34737      39   34743   34740      40   34749   34746      39
   34752   34746      39   34752   34749      40   34758   34755      39   34761
   34755      39   34761   34758      40   34767   34764      39   34770   34764
      39   34770   34767      40   34776   34773      39   34779   34773      39
   34779   34776      40   34785   34782      39   34788   34782      39   34788
   34785      40   34794   34791      39   34797   34791      39   34797   34794
      40   34803   34800      39   34806   34800      39   34806   34803      40
   34812   34809      39   34815   34809      39   34815   34812      40   34821
   34818      39   34824   34818      39   34824   34821      40   34830   34827
      39   34833   34827      39   34833   34830      40   34839   34836      39
   34842   34836      39   34842   34839      40   34848   34845      39   34851
   34845      39   34851   34848      40   34857   34854      39   34860   34854
      39   34860   34857      40   34866   34863      39   34869   34863      39
   34869   34866      40   34875   34872      39   34878   34872      39   34878
   34875      40   34884   34881      39   34887   34881      39   34887   34884
      40   34893   34890      39   34896   34890      39   34896   34893      40
   34902   34899      39   34905   34899      39   34905   34902      40   34911
   34908      39   34914   34908      39   34914   34911      40   34920   34917
      39   34923   34917      39   34923   34920      40   34929   34926      39
   34932   34926      39   34932   34929      40   34938   34935      39   34941
   34935      39   34941   34938      40   34947   34944      39   34950   34944
      39   34950   34947      40   34956   34953      39   34959   34953      39
   34959   34956      40   34965   34962      39   34968   34962      39   34968
   34965      40   34974   34971      39   34977   34971      39   34977   34974
      40   34983   34980      39   34986   34980      39   34986   34983      40
   34992   34989      39   34995   34989      39   34995   34992      40   35001
   34998      39   35004   34998      39   35004   35001      40   35010   35007
      39   35013   35007      39   35013   35010      40   35019   35016      39
   35022   35016      39   35022   35019      40   35028   35025      39   35031
   35025      39   35031   35028      40   35037   35034      39   35040   35034
      39   35040   35037      40   35046   35043      39   35049   35043      39
   35049   35046      40   35055   35052      39   35058   35052      39   35058
   35055      40   35064   35061      39   35067   35061      39   35067   35064
      40   35073   35070      39   35076   35070      39   35076   35073      40
   35082   35079      39   35085   35079      39   35085   35082      40   35091
   35088      39   35094   35088      39   35094   35091      40   35100   35097
      39   35103   35097      39   35103   35100      40   35109   35106      39
   35112   35106      39   35112   35109      40   35118   35115      39   35121
   35115      39   35121   35118      40   35127   35124      39   35130   35124
      39   35130   35127      40   35136   35133      39   35139   35133      39
   35139   35136      40   35145   35142      39   35148   35142      39   35148
   35145      40   35154   35151      39   35157   35151      39   35157   35154
      40   35163   35160      39   35166   35160      39   35166   35163      40
   35172   35169      39   35175   35169      39   35175   35172      40   35181
   35178      39   35184   35178      39   35184   35181      40   35190   35187
      39   35193   35187      39   35193   35190      40   35199   35196      39
   35202   35196      39   35202   35199      40   35208   35205      39   35211
   35205      39   35211   35208      40   35217   35214      39   35220   35214
      39   35220   35217      40   35226   35223      39   35229   35223      39
   35229   35226      40   35235   35232      39   35238   35232      39   35238
   35235      40   35244   35241      39   35247   35241      39   35247   35244
      40   35253   35250      39   35256   35250      39   35256   35253      40
   35262   35259      39   35265   35259      39   35265   35262      40   35271
   35268      39   35274   35268      39   35274   35271      40   35280   35277
      39   35283   35277      39   35283   35280      40   35289   35286      39
   35292   35286      39   35292   35289      40   35298   35295      39   35301
   35295      39   35301   35298      40   35307   35304      39   35310   35304
      39   35310   35307      40   35316   35313      39   35319   35313      39
   35319   35316      40   35325   35322      39   35328   35322      39   35328
   35325      40   35334   35331      39   35337   35331      39   35337   35334
      40   35343   35340      39   35346   35340      39   35346   35343      40
   35352   35349      39   35355   35349      39   35355   35352      40   35361
   35358      39   35364   35358      39   35364   35361      40   35370   35367
      39   35373   35367      39   35373   35370      40   35379   35376      39
   35382   35376      39   35382   35379      40   35388   35385      39   35391
   35385      39   35391   35388      40   35397   35394      39   35400   35394
      39   35400   35397      40   35406   35403      39   35409   35403      39
   35409   35406      40   35415   35412      39   35418   35412      39   35418
   35415      40   35424   35421      39   35427   35421      39   35427   35424
      40   35433   35430      39   35436   35430      39   35436   35433      40
   35442   35439      39   35445   35439      39   35445   35442      40   35451
   35448      39   35454   35448      39   35454   35451      40   35460   35457
      39   35463   35457      39   35463   35460      40   35469   35466      39
   35472   35466      39   35472   35469      40   35478   35475      39   35481
   35475      39   35481   35478      40   35487   35484      39   35490   35484
      39   35490   35487      40   35496   35493      39   35499   35493      39
   35499   35496      40   35505   35502      39   35508   35502      39   35508
   35505      40   35514   35511      39   35517   35511      39   35517   35514
      40   35523   35520      39   35526   35520      39   35526   35523      40
   35532   35529      39   35535   35529      39   35535   35532      40   35541
   35538      39   35544   35538      39   35544   35541      40   35550   35547
      39   35553   35547      39   35553   35550      40   35559   35556      39
   35562   35556      39   35562   35559      40   35568   35565      39   35571
   35565      39   35571   35568      40   35577   35574      39   35580   35574
      39   35580   35577      40   35586   35583      39   35589   35583      39
   35589   35586      40   35595   35592      39   35598   35592      39   35598
   35595      40   35604   35601      39   35607   35601      39   35607   35604
      40   35613   35610      39   35616   35610      39   35616   35613      40
   35622   35619      39   35625   35619      39   35625   35622      40   35631
   35628      39   35634   35628      39   35634   35631      40   35640   35637
      39   35643   35637      39   35643   35640      40   35649   35646      39
   35652   35646      39   35652   35649      40   35658   35655      39   35661
   35655      39   35661   35658      40   35667   35664      39   35670   35664
      39   35670   35667      40   35676   35673      39   35679   35673      39
   35679   35676      40   35685   35682      39   35688   35682      39   35688
   35685      40   35694   35691      39   35697   35691      39   35697   35694
      40   35703   35700      39   35706   35700      39   35706   35703      40
   35712   35709      39   35715   35709      39   35715   35712      40   35721
   35718      39   35724   35718      39   35724   35721      40   35730   35727
      39   35733   35727      39   35733   35730      40   35739   35736      39
   35742   35736      39   35742   35739      40   35748   35745      39   35751
   35745      39   35751   35748      40   35757   35754      39   35760   35754
      39   35760   35757      40   35766   35763      39   35769   35763      39
   35769   35766      40   35775   35772      39   35778   35772      39   35778
   35775      40   35784   35781      39   35787   35781      39   35787   35784
      40   35793   35790      39   35796   35790      39   35796   35793      40
   35802   35799      39   35805   35799      39   35805   35802      40   35811
   35808      39   35814   35808      39   35814   35811      40   35820   35817
      39   35823   35817      39   35823   35820      40   35829   35826      39
   35832   35826      39   35832   35829      40   35838   35835      39   35841
   35835      39   35841   35838      40   35847   35844      39   35850   35844
      39   35850   35847      40   35856   35853      39   35859   35853      39
   35859   35856      40   35865   35862      39   35868   35862      39   35868
   35865      40   35874   35871      39   35877   35871      39   35877   35874
      40   35883   35880      39   35886   35880      39   35886   35883      40
   35892   35889      39   35895   35889      39   35895   35892      40   35901
   35898      39   35904   35898      39   35904   35901      40   35910   35907
      39   35913   35907      39   35913   35910      40   35919   35916      39
   35922   35916      39   35922   35919      40   35928   35925      39   35931
   35925      39   35931   35928      40   35937   35934      39   35940   35934
      39   35940   35937      40   35946   35943      39   35949   35943      39
   35949   35946      40   35955   35952      39   35958   35952      39   35958
   35955      40   35964   35961      39   35967   35961      39   35967   35964
      40   35973   35970      39   35976   35970      39   35976   35973      40
   35982   35979      39   35985   35979      39   35985   35982      40   35991
   35988      39   35994   35988      39   35994   35991      40   36000   35997
      39   36003   35997      39   36003   36000      40   36009   36006      39
   36012   36006      39   36012   36009      40   36018   36015      39   36021
   36015      39   36021   36018      40   36027   36024      39   36030   36024
      39   36030   36027      40   36036   36033      39   36039   36033      39
   36039   36036      40   36045   36042      39   36048   36042      39   36048
   36045      40   36054   36051      39   36057   36051      39   36057   36054
      40   36063   36060      39   36066   36060      39   36066   36063      40
   36072   36069      39   36075   36069      39   36075   36072      40   36081
   36078      39   36084   36078      39   36084   36081      40   36090   36087
      39   36093   36087      39   36093   36090      40   36099   36096      39
   36102   36096      39   36102   36099      40   36108   36105      39   36111
   36105      39   36111   36108      40   36117   36114      39   36120   36114
      39   36120   36117      40   36126   36123      39   36129   36123      39
   36129   36126      40   36135   36132      39   36138   36132      39   36138
   36135      40   36144   36141      39   36147   36141      39   36147   36144
      40   36153   36150      39   36156   36150      39   36156   36153      40
   36162   36159      39   36165   36159      39   36165   36162      40   36171
   36168      39   36174   36168      39   36174   36171      40   36180   36177
      39   36183   36177      39   36183   36180      40   36189   36186      39
   36192   36186      39   36192   36189      40   36198   36195      39   36201
   36195      39   36201   36198      40   36207   36204      39   36210   36204
      39   36210   36207      40   36216   36213      39   36219   36213      39
   36219   36216      40   36225   36222      39   36228   36222      39   36228
   36225      40   36234   36231      39   36237   36231      39   36237   36234
      40   36243   36240      39   36246   36240      39   36246   36243      40
   36252   36249      39   36255   36249      39   36255   36252      40   36261
   36258      39   36264   36258      39   36264   36261      40   36270   36267
      39   36273   36267      39   36273   36270      40   36279   36276      39
   36282   36276      39   36282   36279      40   36288   36285      39   36291
   36285      39   36291   36288      40   36297   36294      39   36300   36294
      39   36300   36297      40   36306   36303      39   36309   36303      39
   36309   36306      40   36315   36312      39   36318   36312      39   36318
   36315      40   36324   36321      39   36327   36321      39   36327   36324
      40   36333   36330      39   36336   36330      39   36336   36333      40
   36342   36339      39   36345   36339      39   36345   36342      40   36351
   36348      39   36354   36348      39   36354   36351      40   36360   36357
      39   36363   36357      39   36363   36360      40   36369   36366      39
   36372   36366      39   36372   36369      40   36378   36375      39   36381
   36375      39   36381   36378      40   36387   36384      39   36390   36384
      39   36390   36387      40   36396   36393      39   36399   36393      39
   36399   36396      40   36405   36402      39   36408   36402      39   36408
   36405      40   36414   36411      39   36417   36411      39   36417   36414
      40   36423   36420      39   36426   36420      39   36426   36423      40
   36432   36429      39   36435   36429      39   36435   36432      40   36441
   36438      39   36444   36438      39   36444   36441      40   36450   36447
      39   36453   36447      39   36453   36450      40   36459   36456      39
   36462   36456      39   36462   36459      40   36468   36465      39   36471
   36465      39   36471   36468      40   36477   36474      39   36480   36474
      39   36480   36477      40   36486   36483      39   36489   36483      39
   36489   36486      40   36495   36492      39   36498   36492      39   36498
   36495      40   36504   36501      39   36507   36501      39   36507   36504
      40   36513   36510      39   36516   36510      39   36516   36513      40
   36522   36519      39   36525   36519      39   36525   36522      40   36531
   36528      39   36534   36528      39   36534   36531      40   36540   36537
      39   36543   36537      39   36543   36540      40   36549   36546      39
   36552   36546      39   36552   36549      40   36558   36555      39   36561
   36555      39   36561   36558      40   36567   36564      39   36570   36564
      39   36570   36567      40   36576   36573      39   36579   36573      39
   36579   36576      40   36585   36582      39   36588   36582      39   36588
   36585      40   36594   36591      39   36597   36591      39   36597   36594
      40   36603   36600      39   36606   36600      39   36606   36603      40
   36612   36609      39   36615   36609      39   36615   36612      40   36621
   36618      39   36624   36618      39   36624   36621      40   36630   36627
      39   36633   36627      39   36633   36630      40   36639   36636      39
   36642   36636      39   36642   36639      40   36648   36645      39   36651
   36645      39   36651   36648      40   36657   36654      39   36660   36654
      39   36660   36657      40   36666   36663      39   36669   36663      39
   36669   36666      40   36675   36672      39   36678   36672      39   36678
   36675      40   36684   36681      39   36687   36681      39   36687   36684
      40   36693   36690      39   36696   36690      39   36696   36693      40
   36702   36699      39   36705   36699      39   36705   36702      40   36711
   36708      39   36714   36708      39   36714   36711      40   36720   36717
      39   36723   36717      39   36723   36720      40   36729   36726      39
   36732   36726      39   36732   36729      40   36738   36735      39   36741
   36735      39   36741   36738      40   36747   36744      39   36750   36744
      39   36750   36747      40   36756   36753      39   36759   36753      39
   36759   36756      40   36765   36762      39   36768   36762      39   36768
   36765      40   36774   36771      39   36777   36771      39   36777   36774
      40   36783   36780      39   36786   36780      39   36786   36783      40
   36792   36789      39   36795   36789      39   36795   36792      40   36801
   36798      39   36804   36798      39   36804   36801      40   36810   36807
      39   36813   36807      39   36813   36810      40   36819   36816      39
   36822   36816      39   36822   36819      40   36828   36825      39   36831
   36825      39   36831   36828      40   36837   36834      39   36840   36834
      39   36840   36837      40   36846   36843      39   36849   36843      39
   36849   36846      40   36855   36852      39   36858   36852      39   36858
   36855      40   36864   36861      39   36867   36861      39   36867   36864
      40   36873   36870      39   36876   36870      39   36876   36873      40
   36882   36879      39   36885   36879      39   36885   36882      40   36891
   36888      39   36894   36888      39   36894   36891      40   36900   36897
      39   36903   36897      39   36903   36900      40   36909   36906      39
   36912   36906      39   36912   36909      40   36918   36915      39   36921
   36915      39   36921   36918      40   36927   36924      39   36930   36924
      39   36930   36927      40   36936   36933      39   36939   36933      39
   36939   36936      40   36945   36942      39   36948   36942      39   36948
   36945      40   36954   36951      39   36957   36951      39   36957   36954
      40   36963   36960      39   36966   36960      39   36966   36963      40
   36972   36969      39   36975   36969      39   36975   36972      40   36981
   36978      39   36984   36978      39   36984   36981      40   36990   36987
      39   36993   36987      39   36993   36990      40   36999   36996      39
   37002   36996      39   37002   36999      40   37008   37005      39   37011
   37005      39   37011   37008      40   37017   37014      39   37020   37014
      39   37020   37017      40   37026   37023      39   37029   37023      39
   37029   37026      40   37035   37032      39   37038   37032      39   37038
   37035      40   37044   37041      39   37047   37041      39   37047   37044
      40   37053   37050      39   37056   37050      39   37056   37053      40
   37062   37059      39   37065   37059      39   37065   37062      40   37071
   37068      39   37074   37068      39   37074   37071      40   37080   37077
      39   37083   37077      39   37083   37080      40   37089   37086      39
   37092   37086      39   37092   37089      40   37098   37095      39   37101
   37095      39   37101   37098      40   37107   37104      39   37110   37104
      39   37110   37107      40   37116   37113      39   37119   37113      39
   37119   37116      40   37125   37122      39   37128   37122      39   37128
   37125      40   37134   37131      39   37137   37131      39   37137   37134
      40   37143   37140      39   37146   37140      39   37146   37143      40
   37152   37149      39   37155   37149      39   37155   37152      40   37161
   37158      39   37164   37158      39   37164   37161      40   37170   37167
      39   37173   37167      39   37173   37170      40   37179   37176      39
   37182   37176      39   37182   37179      40   37188   37185      39   37191
   37185      39   37191   37188      40   37197   37194      39   37200   37194
      39   37200   37197      40   37206   37203      39   37209   37203      39
   37209   37206      40   37215   37212      39   37218   37212      39   37218
   37215      40   37224   37221      39   37227   37221      39   37227   37224
      40   37233   37230      39   37236   37230      39   37236   37233      40
   37242   37239      39   37245   37239      39   37245   37242      40   37251
   37248      39   37254   37248      39   37254   37251      40   37260   37257
      39   37263   37257      39   37263   37260      40   37269   37266      39
   37272   37266      39   37272   37269      40   37278   37275      39   37281
   37275      39   37281   37278      40   37287   37284      39   37290   37284
      39   37290   37287      40   37296   37293      39   37299   37293      39
   37299   37296      40   37305   37302      39   37308   37302      39   37308
   37305      40   37314   37311      39   37317   37311      39   37317   37314
      40   37323   37320      39   37326   37320      39   37326   37323      40
   37332   37329      39   37335   37329      39   37335   37332      40   37341
   37338      39   37344   37338      39   37344   37341      40   37350   37347
      39   37353   37347      39   37353   37350      40   37359   37356      39
   37362   37356      39   37362   37359      40   37368   37365      39   37371
   37365      39   37371   37368      40   37377   37374      39   37380   37374
      39   37380   37377      40   37386   37383      39   37389   37383      39
   37389   37386      40   37395   37392      39   37398   37392      39   37398
   37395      40   37404   37401      39   37407   37401      39   37407   37404
      40   37413   37410      39   37416   37410      39   37416   37413      40
   37422   37419      39   37425   37419      39   37425   37422      40   37431
   37428      39   37434   37428      39   37434   37431      40   37440   37437
      39   37443   37437      39   37443   37440      40   37449   37446      39
   37452   37446      39   37452   37449      40   37458   37455      39   37461
   37455      39   37461   37458      40   37467   37464      39   37470   37464
      39   37470   37467      40   37476   37473      39   37479   37473      39
   37479   37476      40   37485   37482      39   37488   37482      39   37488
   37485      40   37494   37491      39   37497   37491      39   37497   37494
      40   37503   37500      39   37506   37500      39   37506   37503      40
   37512   37509      39   37515   37509      39   37515   37512      40   37521
   37518      39   37524   37518      39   37524   37521      40   37530   37527
      39   37533   37527      39   37533   37530      40   37539   37536      39
   37542   37536      39   37542   37539      40   37548   37545      39   37551
   37545      39   37551   37548      40   37557   37554      39   37560   37554
      39   37560   37557      40   37566   37563      39   37569   37563      39
   37569   37566      40   37575   37572      39   37578   37572      39   37578
   37575      40   37584   37581      39   37587   37581      39   37587   37584
      40   37593   37590      39   37596   37590      39   37596   37593      40
   37602   37599      39   37605   37599      39   37605   37602      40   37611
   37608      39   37614   37608      39   37614   37611      40   37620   37617
      39   37623   37617      39   37623   37620      40   37629   37626      39
   37632   37626      39   37632   37629      40   37638   37635      39   37641
   37635      39   37641   37638      40   37647   37644      39   37650   37644
      39   37650   37647      40   37656   37653      39   37659   37653      39
   37659   37656      40   37665   37662      39   37668   37662      39   37668
   37665      40   37674   37671      39   37677   37671      39   37677   37674
      40   37683   37680      39   37686   37680      39   37686   37683      40
   37692   37689      39   37695   37689      39   37695   37692      40   37701
   37698      39   37704   37698      39   37704   37701      40   37710   37707
      39   37713   37707      39   37713   37710      40   37719   37716      39
   37722   37716      39   37722   37719      40   37728   37725      39   37731
   37725      39   37731   37728      40   37737   37734      39   37740   37734
      39   37740   37737      40   37746   37743      39   37749   37743      39
   37749   37746      40   37755   37752      39   37758   37752      39   37758
   37755      40   37764   37761      39   37767   37761      39   37767   37764
      40   37773   37770      39   37776   37770      39   37776   37773      40
   37782   37779      39   37785   37779      39   37785   37782      40   37791
   37788      39   37794   37788      39   37794   37791      40   37800   37797
      39   37803   37797      39   37803   37800      40   37809   37806      39
   37812   37806      39   37812   37809      40   37818   37815      39   37821
   37815      39   37821   37818      40   37827   37824      39   37830   37824
      39   37830   37827      40   37836   37833      39   37839   37833      39
   37839   37836      40   37845   37842      39   37848   37842      39   37848
   37845      40   37854   37851      39   37857   37851      39   37857   37854
      40   37863   37860      39   37866   37860      39   37866   37863      40
   37872   37869      39   37875   37869      39   37875   37872      40   37881
   37878      39   37884   37878      39   37884   37881      40   37890   37887
      39   37893   37887      39   37893   37890      40   37899   37896      39
   37902   37896      39   37902   37899      40   37908   37905      39   37911
   37905      39   37911   37908      40   37917   37914      39   37920   37914
      39   37920   37917      40   37926   37923      39   37929   37923      39
   37929   37926      40   37935   37932      39   37938   37932      39   37938
   37935      40   37944   37941      39   37947   37941      39   37947   37944
      40   37953   37950      39   37956   37950      39   37956   37953      40
   37962   37959      39   37965   37959      39   37965   37962      40   37971
   37968      39   37974   37968      39   37974   37971      40   37980   37977
      39   37983   37977      39   37983   37980      40   37989   37986      39
   37992   37986      39   37992   37989      40   37998   37995      39   38001
   37995      39   38001   37998      40   38007   38004      39   38010   38004
      39   38010   38007      40   38016   38013      39   38019   38013      39
   38019   38016      40   38025   38022      39   38028   38022      39   38028
   38025      40   38034   38031      39   38037   38031      39   38037   38034
      40   38043   38040      39   38046   38040      39   38046   38043      40
   38052   38049      39   38055   38049      39   38055   38052      40   38061
   38058      39   38064   38058      39   38064   38061      40   38070   38067
      39   38073   38067      39   38073   38070      40   38079   38076      39
   38082   38076      39   38082   38079      40   38088   38085      39   38091
   38085      39   38091   38088      40   38097   38094      39   38100   38094
      39   38100   38097      40   38106   38103      39   38109   38103      39
   38109   38106      40   38115   38112      39   38118   38112      39   38118
   38115      40   38124   38121      39   38127   38121      39   38127   38124
      40   38133   38130      39   38136   38130      39   38136   38133      40
   38142   38139      39   38145   38139      39   38145   38142      40   38151
   38148      39   38154   38148      39   38154   38151      40   38160   38157
      39   38163   38157      39   38163   38160      40   38169   38166      39
   38172   38166      39   38172   38169      40   38178   38175      39   38181
   38175      39   38181   38178      40   38187   38184      39   38190   38184
      39   38190   38187      40   38196   38193      39   38199   38193      39
   38199   38196      40   38205   38202      39   38208   38202      39   38208
   38205      40   38214   38211      39   38217   38211      39   38217   38214
      40   38223   38220      39   38226   38220      39   38226   38223      40
   38232   38229      39   38235   38229      39   38235   38232      40   38241
   38238      39   38244   38238      39   38244   38241      40   38250   38247
      39   38253   38247      39   38253   38250      40   38259   38256      39
   38262   38256      39   38262   38259      40   38268   38265      39   38271
   38265      39   38271   38268      40   38277   38274      39   38280   38274
      39   38280   38277      40   38286   38283      39   38289   38283      39
   38289   38286      40   38295   38292      39   38298   38292      39   38298
   38295      40   38304   38301      39   38307   38301      39   38307   38304
      40   38313   38310      39   38316   38310      39   38316   38313      40
   38322   38319      39   38325   38319      39   38325   38322      40   38331
   38328      39   38334   38328      39   38334   38331      40   38340   38337
      39   38343   38337      39   38343   38340      40   38349   38346      39
   38352   38346      39   38352   38349      40   38358   38355      39   38361
   38355      39   38361   38358      40   38367   38364      39   38370   38364
      39   38370   38367      40   38376   38373      39   38379   38373      39
   38379   38376      40   38385   38382      39   38388   38382      39   38388
   38385      40   38394   38391      39   38397   38391      39   38397   38394
      40   38403   38400      39   38406   38400      39   38406   38403      40
   38412   38409      39   38415   38409      39   38415   38412      40   38421
   38418      39   38424   38418      39   38424   38421      40   38430   38427
      39   38433   38427      39   38433   38430      40   38439   38436      39
   38442   38436      39   38442   38439      40   38448   38445      39   38451
   38445      39   38451   38448      40   38457   38454      39   38460   38454
      39   38460   38457      40   38466   38463      39   38469   38463      39
   38469   38466      40   38475   38472      39   38478   38472      39   38478
   38475      40   38484   38481      39   38487   38481      39   38487   38484
      40   38493   38490      39   38496   38490      39   38496   38493      40
   38502   38499      39   38505   38499      39   38505   38502      40   38511
   38508      39   38514   38508      39   38514   38511      40   38520   38517
      39   38523   38517      39   38523   38520      40   38529   38526      39
   38532   38526      39   38532   38529      40   38538   38535      39   38541
   38535      39   38541   38538      40   38547   38544      39   38550   38544
      39   38550   38547      40   38556   38553      39   38559   38553      39
   38559   38556      40   38565   38562      39   38568   38562      39   38568
   38565      40   38574   38571      39   38577   38571      39   38577   38574
      40   38583   38580      39   38586   38580      39   38586   38583      40
   38592   38589      39   38595   38589      39   38595   38592      40   38601
   38598      39   38604   38598      39   38604   38601      40   38610   38607
      39   38613   38607      39   38613   38610      40   38619   38616      39
   38622   38616      39   38622   38619      40   38628   38625      39   38631
   38625      39   38631   38628      40   38637   38634      39   38640   38634
      39   38640   38637      40   38646   38643      39   38649   38643      39
   38649   38646      40   38655   38652      39   38658   38652      39   38658
   38655      40   38664   38661      39   38667   38661      39   38667   38664
      40   38673   38670      39   38676   38670      39   38676   38673      40
   38682   38679      39   38685   38679      39   38685   38682      40   38691
   38688      39   38694   38688      39   38694   38691      40   38700   38697
      39   38703   38697      39   38703   38700      40   38709   38706      39
   38712   38706      39   38712   38709      40   38718   38715      39   38721
   38715      39   38721   38718      40   38727   38724      39   38730   38724
      39   38730   38727      40   38736   38733      39   38739   38733      39
   38739   38736      40   38745   38742      39   38748   38742      39   38748
   38745      40   38754   38751      39   38757   38751      39   38757   38754
      40   38763   38760      39   38766   38760      39   38766   38763      40
   38772   38769      39   38775   38769      39   38775   38772      40   38781
   38778      39   38784   38778      39   38784   38781      40   38790   38787
      39   38793   38787      39   38793   38790      40   38799   38796      39
   38802   38796      39   38802   38799      40   38808   38805      39   38811
   38805      39   38811   38808      40   38817   38814      39   38820   38814
      39   38820   38817      40   38826   38823      39   38829   38823      39
   38829   38826      40   38835   38832      39   38838   38832      39   38838
   38835      40   38844   38841      39   38847   38841      39   38847   38844
      40   38853   38850      39   38856   38850      39   38856   38853      40
   38862   38859      39   38865   38859      39   38865   38862      40   38871
   38868      39   38874   38868      39   38874   38871      40   38880   38877
      39   38883   38877      39   38883   38880      40   38889   38886      39
   38892   38886      39   38892   38889      40   38898   38895      39   38901
   38895      39   38901   38898      40   38907   38904      39   38910   38904
      39   38910   38907      40   38916   38913      39   38919   38913      39
   38919   38916      40   38925   38922      39   38928   38922      39   38928
   38925      40   38934   38931      39   38937   38931      39   38937   38934
      40   38943   38940      39   38946   38940      39   38946   38943      40
   38952   38949      39   38955   38949      39   38955   38952      40   38961
   38958      39   38964   38958      39   38964   38961      40   38970   38967
      39   38973   38967      39   38973   38970      40   38979   38976      39
   38982   38976      39   38982   38979      40   38988   38985      39   38991
   38985      39   38991   38988      40   38997   38994      39   39000   38994
      39   39000   38997      40   39006   39003      39   39009   39003      39
   39009   39006      40   39015   39012      39   39018   39012      39   39018
   39015      40   39024   39021      39   39027   39021      39   39027   39024
      40   39033   39030      39   39036   39030      39   39036   39033      40
   39042   39039      39   39045   39039      39   39045   39042      40   39051
   39048      39   39054   39048      39   39054   39051      40   39060   39057
      39   39063   39057      39   39063   39060      40   39069   39066      39
   39072   39066      39   39072   39069      40   39078   39075      39   39081
   39075      39   39081   39078      40   39087   39084      39   39090   39084
      39   39090   39087      40   39096   39093      39   39099   39093      39
   39099   39096      40   39105   39102      39   39108   39102      39   39108
   39105      40   39114   39111      39   39117   39111      39   39117   39114
      40   39123   39120      39   39126   39120      39   39126   39123      40
   39132   39129      39   39135   39129      39   39135   39132      40   39141
   39138      39   39144   39138      39   39144   39141      40   39150   39147
      39   39153   39147      39   39153   39150      40   39159   39156      39
   39162   39156      39   39162   39159      40   39168   39165      39   39171
   39165      39   39171   39168      40   39177   39174      39   39180   39174
      39   39180   39177      40   39186   39183      39   39189   39183      39
   39189   39186      40   39195   39192      39   39198   39192      39   39198
   39195      40   39204   39201      39   39207   39201      39   39207   39204
      40   39213   39210      39   39216   39210      39   39216   39213      40
   39222   39219      39   39225   39219      39   39225   39222      40   39231
   39228      39   39234   39228      39   39234   39231      40   39240   39237
      39   39243   39237      39   39243   39240      40   39249   39246      39
   39252   39246      39   39252   39249      40   39258   39255      39   39261
   39255      39   39261   39258      40   39267   39264      39   39270   39264
      39   39270   39267      40   39276   39273      39   39279   39273      39
   39279   39276      40   39285   39282      39   39288   39282      39   39288
   39285      40   39294   39291      39   39297   39291      39   39297   39294
      40   39303   39300      39   39306   39300      39   39306   39303      40
   39312   39309      39   39315   39309      39   39315   39312      40   39321
   39318      39   39324   39318      39   39324   39321      40   39330   39327
      39   39333   39327      39   39333   39330      40   39339   39336      39
   39342   39336      39   39342   39339      40   39348   39345      39   39351
   39345      39   39351   39348      40   39357   39354      39   39360   39354
      39   39360   39357      40   39366   39363      39   39369   39363      39
   39369   39366      40   39375   39372      39   39378   39372      39   39378
   39375      40   39384   39381      39   39387   39381      39   39387   39384
      40   39393   39390      39   39396   39390      39   39396   39393      40
   39402   39399      39   39405   39399      39   39405   39402      40   39411
   39408      39   39414   39408      39   39414   39411      40   39420   39417
      39   39423   39417      39   39423   39420      40   39429   39426      39
   39432   39426      39   39432   39429      40   39438   39435      39   39441
   39435      39   39441   39438      40   39447   39444      39   39450   39444
      39   39450   39447      40   39456   39453      39   39459   39453      39
   39459   39456      40   39465   39462      39   39468   39462      39   39468
   39465      40   39474   39471      39   39477   39471      39   39477   39474
      40   39483   39480      39   39486   39480      39   39486   39483      40
   39492   39489      39   39495   39489      39   39495   39492      40   39501
   39498      39   39504   39498      39   39504   39501      40   39510   39507
      39   39513   39507      39   39513   39510      40   39519   39516      39
   39522   39516      39   39522   39519      40   39528   39525      39   39531
   39525      39   39531   39528      40   39537   39534      39   39540   39534
      39   39540   39537      40   39546   39543      39   39549   39543      39
   39549   39546      40   39555   39552      39   39558   39552      39   39558
   39555      40   39564   39561      39   39567   39561      39   39567   39564
      40   39573   39570      39   39576   39570      39   39576   39573      40
   39582   39579      39   39585   39579      39   39585   39582      40   39591
   39588      39   39594   39588      39   39594   39591      40   39600   39597
      39   39603   39597      39   39603   39600      40   39609   39606      39
   39612   39606      39   39612   39609      40   39618   39615      39   39621
   39615      39   39621   39618      40   39627   39624      39   39630   39624
      39   39630   39627      40   39636   39633      39   39639   39633      39
   39639   39636      40   39645   39642      39   39648   39642      39   39648
   39645      40   39654   39651      39   39657   39651      39   39657   39654
      40   39663   39660      39   39666   39660      39   39666   39663      40
   39672   39669      39   39675   39669      39   39675   39672      40   39681
   39678      39   39684   39678      39   39684   39681      40   39690   39687
      39   39693   39687      39   39693   39690      40   39699   39696      39
   39702   39696      39   39702   39699      40   39708   39705      39   39711
   39705      39   39711   39708      40   39717   39714      39   39720   39714
      39   39720   39717      40   39726   39723      39   39729   39723      39
   39729   39726      40   39735   39732      39   39738   39732      39   39738
   39735      40   39744   39741      39   39747   39741      39   39747   39744
      40   39753   39750      39   39756   39750      39   39756   39753      40
   39762   39759      39   39765   39759      39   39765   39762      40   39771
   39768      39   39774   39768      39   39774   39771      40   39780   39777
      39   39783   39777      39   39783   39780      40   39789   39786      39
   39792   39786      39   39792   39789      40   39798   39795      39   39801
   39795      39   39801   39798      40   39807   39804      39   39810   39804
      39   39810   39807      40   39816   39813      39   39819   39813      39
   39819   39816      40   39825   39822      39   39828   39822      39   39828
   39825      40   39834   39831      39   39837   39831      39   39837   39834
      40   39843   39840      39   39846   39840      39   39846   39843      40
   39852   39849      39   39855   39849      39   39855   39852      40   39861
   39858      39   39864   39858      39   39864   39861      40   39870   39867
      39   39873   39867      39   39873   39870      40   39879   39876      39
   39882   39876      39   39882   39879      40   39888   39885      39   39891
   39885      39   39891   39888      40   39897   39894      39   39900   39894
      39   39900   39897      40   39906   39903      39   39909   39903      39
   39909   39906      40   39915   39912      39   39918   39912      39   39918
   39915      40   39924   39921      39   39927   39921      39   39927   39924
      40   39933   39930      39   39936   39930      39   39936   39933      40
   39942   39939      39   39945   39939      39   39945   39942      40   39951
   39948      39   39954   39948      39   39954   39951      40   39960   39957
      39   39963   39957      39   39963   39960      40   39969   39966      39
   39972   39966      39   39972   39969      40   39978   39975      39   39981
   39975      39   39981   39978      40   39987   39984      39   39990   39984
      39   39990   39987      40   39996   39993      39   39999   39993      39
   39999   39996      40   40005   40002      39   40008   40002      39   40008
   40005      40   40014   40011      39   40017   40011      39   40017   40014
      40   40023   40020      39   40026   40020      39   40026   40023      40
   40032   40029      39   40035   40029      39   40035   40032      40   40041
   40038      39   40044   40038      39   40044   40041      40   40050   40047
      39   40053   40047      39   40053   40050      40   40059   40056      39
   40062   40056      39   40062   40059      40   40068   40065      39   40071
   40065      39   40071   40068      40   40077   40074      39   40080   40074
      39   40080   40077      40   40086   40083      39   40089   40083      39
   40089   40086      40   40095   40092      39   40098   40092      39   40098
   40095      40   40104   40101      39   40107   40101      39   40107   40104
      40   40113   40110      39   40116   40110      39   40116   40113      40
   40122   40119      39   40125   40119      39   40125   40122      40   40131
   40128      39   40134   40128      39   40134   40131      40   40140   40137
      39   40143   40137      39   40143   40140      40   40149   40146      39
   40152   40146      39   40152   40149      40   40158   40155      39   40161
   40155      39   40161   40158      40   40167   40164      39   40170   40164
      39   40170   40167      40   40176   40173      39   40179   40173      39
   40179   40176      40   40185   40182      39   40188   40182      39   40188
   40185      40   40194   40191      39   40197   40191      39   40197   40194
      40   40203   40200      39   40206   40200      39   40206   40203      40
   40212   40209      39   40215   40209      39   40215   40212      40   40221
   40218      39   40224   40218      39   40224   40221      40   40230   40227
      39   40233   40227      39   40233   40230      40   40239   40236      39
   40242   40236      39   40242   40239      40   40248   40245      39   40251
   40245      39   40251   40248      40   40257   40254      39   40260   40254
      39   40260   40257      40   40266   40263      39   40269   40263      39
   40269   40266      40   40275   40272      39   40278   40272      39   40278
   40275      40   40284   40281      39   40287   40281      39   40287   40284
      40   40293   40290      39   40296   40290      39   40296   40293      40
   40302   40299      39   40305   40299      39   40305   40302      40   40311
   40308      39   40314   40308      39   40314   40311      40   40320   40317
      39   40323   40317      39   40323   40320      40   40329   40326      39
   40332   40326      39   40332   40329      40   40338   40335      39   40341
   40335      39   40341   40338      40   40347   40344      39   40350   40344
      39   40350   40347      40   40356   40353      39   40359   40353      39
   40359   40356      40   40365   40362      39   40368   40362      39   40368
   40365      40   40374   40371      39   40377   40371      39   40377   40374
      40   40383   40380      39   40386   40380      39   40386   40383      40
   40392   40389      39   40395   40389      39   40395   40392      40   40401
   40398      39   40404   40398      39   40404   40401      40   40410   40407
      39   40413   40407      39   40413   40410      40   40419   40416      39
   40422   40416      39   40422   40419      40   40428   40425      39   40431
   40425      39   40431   40428      40   40437   40434      39   40440   40434
      39   40440   40437      40   40446   40443      39   40449   40443      39
   40449   40446      40   40455   40452      39   40458   40452      39   40458
   40455      40   40464   40461      39   40467   40461      39   40467   40464
      40   40473   40470      39   40476   40470      39   40476   40473      40
   40482   40479      39   40485   40479      39   40485   40482      40   40491
   40488      39   40494   40488      39   40494   40491      40   40500   40497
      39   40503   40497      39   40503   40500      40   40509   40506      39
   40512   40506      39   40512   40509      40   40518   40515      39   40521
   40515      39   40521   40518      40   40527   40524      39   40530   40524
      39   40530   40527      40   40536   40533      39   40539   40533      39
   40539   40536      40   40545   40542      39   40548   40542      39   40548
   40545      40   40554   40551      39   40557   40551      39   40557   40554
      40   40563   40560      39   40566   40560      39   40566   40563      40
   40572   40569      39   40575   40569      39   40575   40572      40   40581
   40578      39   40584   40578      39   40584   40581      40   40590   40587
      39   40593   40587      39   40593   40590      40   40599   40596      39
   40602   40596      39   40602   40599      40   40608   40605      39   40611
   40605      39   40611   40608      40   40617   40614      39   40620   40614
      39   40620   40617      40   40626   40623      39   40629   40623      39
   40629   40626      40   40635   40632      39   40638   40632      39   40638
   40635      40   40644   40641      39   40647   40641      39   40647   40644
      40   40653   40650      39   40656   40650      39   40656   40653      40
   40662   40659      39   40665   40659      39   40665   40662      40   40671
   40668      39   40674   40668      39   40674   40671      40   40680   40677
      39   40683   40677      39   40683   40680      40   40689   40686      39
   40692   40686      39   40692   40689      40   40698   40695      39   40701
   40695      39   40701   40698      40   40707   40704      39   40710   40704
      39   40710   40707      40   40716   40713      39   40719   40713      39
   40719   40716      40   40725   40722      39   40728   40722      39   40728
   40725      40   40734   40731      39   40737   40731      39   40737   40734
      40   40743   40740      39   40746   40740      39   40746   40743      40
   40752   40749      39   40755   40749      39   40755   40752      40   40761
   40758      39   40764   40758      39   40764   40761      40   40770   40767
      39   40773   40767      39   40773   40770      40   40779   40776      39
   40782   40776      39   40782   40779      40   40788   40785      39   40791
   40785      39   40791   40788      40   40797   40794      39   40800   40794
      39   40800   40797      40   40806   40803      39   40809   40803      39
   40809   40806      40   40815   40812      39   40818   40812      39   40818
   40815      40   40824   40821      39   40827   40821      39   40827   40824
      40   40833   40830      39   40836   40830      39   40836   40833      40
   40842   40839      39   40845   40839      39   40845   40842      40   40851
   40848      39   40854   40848      39   40854   40851      40   40860   40857
      39   40863   40857      39   40863   40860      40   40869   40866      39
   40872   40866      39   40872   40869      40   40878   40875      39   40881
   40875      39   40881   40878      40   40887   40884      39   40890   40884
      39   40890   40887      40   40896   40893      39   40899   40893      39
   40899   40896      40   40905   40902      39   40908   40902      39   40908
   40905      40   40914   40911      39   40917   40911      39   40917   40914
      40   40923   40920      39   40926   40920      39   40926   40923      40
   40932   40929      39   40935   40929      39   40935   40932      40   40941
   40938      39   40944   40938      39   40944   40941      40   40950   40947
      39   40953   40947      39   40953   40950      40   40959   40956      39
   40962   40956      39   40962   40959      40   40968   40965      39   40971
   40965      39   40971   40968      40   40977   40974      39   40980   40974
      39   40980   40977      40   40986   40983      39   40989   40983      39
   40989   40986      40   40995   40992      39   40998   40992      39   40998
   40995      40   41004   41001      39   41007   41001      39   41007   41004
      40   41013   41010      39   41016   41010      39   41016   41013      40
   41022   41019      39   41025   41019      39   41025   41022      40   41031
   41028      39   41034   41028      39   41034   41031      40   41040   41037
      39   41043   41037      39   41043   41040      40   41049   41046      39
   41052   41046      39   41052   41049      40   41058   41055      39   41061
   41055      39   41061   41058      40   41067   41064      39   41070   41064
      39   41070   41067      40   41076   41073      39   41079   41073      39
   41079   41076      40   41085   41082      39   41088   41082      39   41088
   41085      40   41094   41091      39   41097   41091      39   41097   41094
      40   41103   41100      39   41106   41100      39   41106   41103      40
   41112   41109      39   41115   41109      39   41115   41112      40   41121
   41118      39   41124   41118      39   41124   41121      40   41130   41127
      39   41133   41127      39   41133   41130      40   41139   41136      39
   41142   41136      39   41142   41139      40   41148   41145      39   41151
   41145      39   41151   41148      40   41157   41154      39   41160   41154
      39   41160   41157      40   41166   41163      39   41169   41163      39
   41169   41166      40   41175   41172      39   41178   41172      39   41178
   41175      40   41184   41181      39   41187   41181      39   41187   41184
      40   41193   41190      39   41196   41190      39   41196   41193      40
   41202   41199      39   41205   41199      39   41205   41202      40   41211
   41208      39   41214   41208      39   41214   41211      40   41220   41217
      39   41223   41217      39   41223   41220      40   41229   41226      39
   41232   41226      39   41232   41229      40   41238   41235      39   41241
   41235      39   41241   41238      40   41247   41244      39   41250   41244
      39   41250   41247      40   41256   41253      39   41259   41253      39
   41259   41256      40   41265   41262      39   41268   41262      39   41268
   41265      40   41274   41271      39   41277   41271      39   41277   41274
      40   41283   41280      39   41286   41280      39   41286   41283      40
   41292   41289      39   41295   41289      39   41295   41292      40   41301
   41298      39   41304   41298      39   41304   41301      40   41310   41307
      39   41313   41307      39   41313   41310      40   41319   41316      39
   41322   41316      39   41322   41319      40   41328   41325      39   41331
   41325      39   41331   41328      40   41337   41334      39   41340   41334
      39   41340   41337      40   41346   41343      39   41349   41343      39
   41349   41346      40   41355   41352      39   41358   41352      39   41358
   41355      40   41364   41361      39   41367   41361      39   41367   41364
      40   41373   41370      39   41376   41370      39   41376   41373      40
   41382   41379      39   41385   41379      39   41385   41382      40   41391
   41388      39   41394   41388      39   41394   41391      40   41400   41397
      39   41403   41397      39   41403   41400      40   41409   41406      39
   41412   41406      39   41412   41409      40   41418   41415      39   41421
   41415      39   41421   41418      40   41427   41424      39   41430   41424
      39   41430   41427      40   41436   41433      39   41439   41433      39
   41439   41436      40   41445   41442      39   41448   41442      39   41448
   41445      40   41454   41451      39   41457   41451      39   41457   41454
      40   41463   41460      39   41466   41460      39   41466   41463      40
   41472   41469      39   41475   41469      39   41475   41472      40   41481
   41478      39   41484   41478      39   41484   41481      40   41490   41487
      39   41493   41487      39   41493   41490      40   41499   41496      39
   41502   41496      39   41502   41499      40   41508   41505      39   41511
   41505      39   41511   41508      40   41517   41514      39   41520   41514
      39   41520   41517      40   41526   41523      39   41529   41523      39
   41529   41526      40   41535   41532      39   41538   41532      39   41538
   41535      40   41544   41541      39   41547   41541      39   41547   41544
      40   41553   41550      39   41556   41550      39   41556   41553      40
   41562   41559      39   41565   41559      39   41565   41562      40   41571
   41568      39   41574   41568      39   41574   41571      40   41580   41577
      39   41583   41577      39   41583   41580      40   41589   41586      39
   41592   41586      39   41592   41589      40   41598   41595      39   41601
   41595      39   41601   41598      40   41607   41604      39   41610   41604
      39   41610   41607      40   41616   41613      39   41619   41613      39
   41619   41616      40   41625   41622      39   41628   41622      39   41628
   41625      40   41634   41631      39   41637   41631      39   41637   41634
      40   41643   41640      39   41646   41640      39   41646   41643      40
   41652   41649      39   41655   41649      39   41655   41652      40   41661
   41658      39   41664   41658      39   41664   41661      40   41670   41667
      39   41673   41667      39   41673   41670      40   41679   41676      39
   41682   41676      39   41682   41679      40   41688   41685      39   41691
   41685      39   41691   41688      40   41697   41694      39   41700   41694
      39   41700   41697      40   41706   41703      39   41709   41703      39
   41709   41706      40   41715   41712      39   41718   41712      39   41718
   41715      40   41724   41721      39   41727   41721      39   41727   41724
      40   41733   41730      39   41736   41730      39   41736   41733      40
   41742   41739      39   41745   41739      39   41745   41742      40   41751
   41748      39   41754   41748      39   41754   41751      40   41760   41757
      39   41763   41757      39   41763   41760      40   41769   41766      39
   41772   41766      39   41772   41769      40   41778   41775      39   41781
   41775      39   41781   41778      40   41787   41784      39   41790   41784
      39   41790   41787      40   41796   41793      39   41799   41793      39
   41799   41796      40   41805   41802      39   41808   41802      39   41808
   41805      40   41814   41811      39   41817   41811      39   41817   41814
      40   41823   41820      39   41826   41820      39   41826   41823      40
   41832   41829      39   41835   41829      39   41835   41832      40   41841
   41838      39   41844   41838      39   41844   41841      40   41850   41847
      39   41853   41847      39   41853   41850      40   41859   41856      39
   41862   41856      39   41862   41859      40   41868   41865      39   41871
   41865      39   41871   41868      40   41877   41874      39   41880   41874
      39   41880   41877      40   41886   41883      39   41889   41883      39
   41889   41886      40   41895   41892      39   41898   41892      39   41898
   41895      40   41904   41901      39   41907   41901      39   41907   41904
      40   41913   41910      39   41916   41910      39   41916   41913      40
   41922   41919      39   41925   41919      39   41925   41922      40   41931
   41928      39   41934   41928      39   41934   41931      40   41940   41937
      39   41943   41937      39   41943   41940      40   41949   41946      39
   41952   41946      39   41952   41949      40   41958   41955      39   41961
   41955      39   41961   41958      40   41967   41964      39   41970   41964
      39   41970   41967      40   41976   41973      39   41979   41973      39
   41979   41976      40   41985   41982      39   41988   41982      39   41988
   41985      40   41994   41991      39   41997   41991      39   41997   41994
      40   42003   42000      39   42006   42000      39   42006   42003      40
   42012   42009      39   42015   42009      39   42015   42012      40   42021
   42018      39   42024   42018      39   42024   42021      40   42030   42027
      39   42033   42027      39   42033   42030      40   42039   42036      39
   42042   42036      39   42042   42039      40   42048   42045      39   42051
   42045      39   42051   42048      40   42057   42054      39   42060   42054
      39   42060   42057      40   42066   42063      39   42069   42063      39
   42069   42066      40   42075   42072      39   42078   42072      39   42078
   42075      40   42084   42081      39   42087   42081      39   42087   42084
      40   42093   42090      39   42096   42090      39   42096   42093      40
   42102   42099      39   42105   42099      39   42105   42102      40   42111
   42108      39   42114   42108      39   42114   42111      40   42120   42117
      39   42123   42117      39   42123   42120      40   42129   42126      39
   42132   42126      39   42132   42129      40   42138   42135      39   42141
   42135      39   42141   42138      40   42147   42144      39   42150   42144
      39   42150   42147      40   42156   42153      39   42159   42153      39
   42159   42156      40   42165   42162      39   42168   42162      39   42168
   42165      40   42174   42171      39   42177   42171      39   42177   42174
      40   42183   42180      39   42186   42180      39   42186   42183      40
   42192   42189      39   42195   42189      39   42195   42192      40   42201
   42198      39   42204   42198      39   42204   42201      40   42210   42207
      39   42213   42207      39   42213   42210      40   42219   42216      39
   42222   42216      39   42222   42219      40   42228   42225      39   42231
   42225      39   42231   42228      40   42237   42234      39   42240   42234
      39   42240   42237      40   42246   42243      39   42249   42243      39
   42249   42246      40   42255   42252      39   42258   42252      39   42258
   42255      40   42264   42261      39   42267   42261      39   42267   42264
      40   42273   42270      39   42276   42270      39   42276   42273      40
   42282   42279      39   42285   42279      39   42285   42282      40   42291
   42288      39   42294   42288      39   42294   42291      40   42300   42297
      39   42303   42297      39   42303   42300      40   42309   42306      39
   42312   42306      39   42312   42309      40   42318   42315      39   42321
   42315      39   42321   42318      40   42327   42324      39   42330   42324
      39   42330   42327      40   42336   42333      39   42339   42333      39
   42339   42336      40   42345   42342      39   42348   42342      39   42348
   42345      40   42354   42351      39   42357   42351      39   42357   42354
      40   42363   42360      39   42366   42360      39   42366   42363      40
   42372   42369      39   42375   42369      39   42375   42372      40   42381
   42378      39   42384   42378      39   42384   42381      40   42390   42387
      39   42393   42387      39   42393   42390      40   42399   42396      39
   42402   42396      39   42402   42399      40   42408   42405      39   42411
   42405      39   42411   42408      40   42417   42414      39   42420   42414
      39   42420   42417      40   42426   42423      39   42429   42423      39
   42429   42426      40   42435   42432      39   42438   42432      39   42438
   42435      40   42444   42441      39   42447   42441      39   42447   42444
      40   42453   42450      39   42456   42450      39   42456   42453      40
   42462   42459      39   42465   42459      39   42465   42462      40   42471
   42468      39   42474   42468      39   42474   42471      40   42480   42477
      39   42483   42477      39   42483   42480      40   42489   42486      39
   42492   42486      39   42492   42489      40   42498   42495      39   42501
   42495      39   42501   42498      40   42507   42504      39   42510   42504
      39   42510   42507      40   42516   42513      39   42519   42513      39
   42519   42516      40   42525   42522      39   42528   42522      39   42528
   42525      40   42534   42531      39   42537   42531      39   42537   42534
      40   42543   42540      39   42546   42540      39   42546   42543      40
   42552   42549      39   42555   42549      39   42555   42552      40   42561
   42558      39   42564   42558      39   42564   42561      40   42570   42567
      39   42573   42567      39   42573   42570      40   42579   42576      39
   42582   42576      39   42582   42579      40   42588   42585      39   42591
   42585      39   42591   42588      40   42597   42594      39   42600   42594
      39   42600   42597      40   42606   42603      39   42609   42603      39
   42609   42606      40   42615   42612      39   42618   42612      39   42618
   42615      40   42624   42621      39   42627   42621      39   42627   42624
      40   42633   42630      39   42636   42630      39   42636   42633      40
   42642   42639      39   42645   42639      39   42645   42642      40   42651
   42648      39   42654   42648      39   42654   42651      40   42660   42657
      39   42663   42657      39   42663   42660      40   42669   42666      39
   42672   42666      39   42672   42669      40   42678   42675      39   42681
   42675      39   42681   42678      40   42687   42684      39   42690   42684
      39   42690   42687      40   42696   42693      39   42699   42693      39
   42699   42696      40   42705   42702      39   42708   42702      39   42708
   42705      40   42714   42711      39   42717   42711      39   42717   42714
      40   42723   42720      39   42726   42720      39   42726   42723      40
   42732   42729      39   42735   42729      39   42735   42732      40   42741
   42738      39   42744   42738      39   42744   42741      40   42750   42747
      39   42753   42747      39   42753   42750      40   42759   42756      39
   42762   42756      39   42762   42759      40   42768   42765      39   42771
   42765      39   42771   42768      40   42777   42774      39   42780   42774
      39   42780   42777      40   42786   42783      39   42789   42783      39
   42789   42786      40   42795   42792      39   42798   42792      39   42798
   42795      40   42804   42801      39   42807   42801      39   42807   42804
      40   42813   42810      39   42816   42810      39   42816   42813      40
   42822   42819      39   42825   42819      39   42825   42822      40   42831
   42828      39   42834   42828      39   42834   42831      40   42840   42837
      39   42843   42837      39   42843   42840      40   42849   42846      39
   42852   42846      39   42852   42849      40   42858   42855      39   42861
   42855      39   42861   42858      40   42867   42864      39   42870   42864
      39   42870   42867      40   42876   42873      39   42879   42873      39
   42879   42876      40   42885   42882      39   42888   42882      39   42888
   42885      40   42894   42891      39   42897   42891      39   42897   42894
      40   42903   42900      39   42906   42900      39   42906   42903      40
   42912   42909      39   42915   42909      39   42915   42912      40   42921
   42918      39   42924   42918      39   42924   42921      40   42930   42927
      39   42933   42927      39   42933   42930      40   42939   42936      39
   42942   42936      39   42942   42939      40   42948   42945      39   42951
   42945      39   42951   42948      40   42957   42954      39   42960   42954
      39   42960   42957      40   42966   42963      39   42969   42963      39
   42969   42966      40   42975   42972      39   42978   42972      39   42978
   42975      40   42984   42981      39   42987   42981      39   42987   42984
      40   42993   42990      39   42996   42990      39   42996   42993      40
   43002   42999      39   43005   42999      39   43005   43002      40   43011
   43008      39   43014   43008      39   43014   43011      40   43020   43017
      39   43023   43017      39   43023   43020      40   43029   43026      39
   43032   43026      39   43032   43029      40   43038   43035      39   43041
   43035      39   43041   43038      40   43047   43044      39   43050   43044
      39   43050   43047      40   43056   43053      39   43059   43053      39
   43059   43056      40   43065   43062      39   43068   43062      39   43068
   43065      40   43074   43071      39   43077   43071      39   43077   43074
      40   43083   43080      39   43086   43080      39   43086   43083      40
   43092   43089      39   43095   43089      39   43095   43092      40   43101
   43098      39   43104   43098      39   43104   43101      40   43110   43107
      39   43113   43107      39   43113   43110      40   43119   43116      39
   43122   43116      39   43122   43119      40   43128   43125      39   43131
   43125      39   43131   43128      40   43137   43134      39   43140   43134
      39   43140   43137      40   43146   43143      39   43149   43143      39
   43149   43146      40   43155   43152      39   43158   43152      39   43158
   43155      40   43164   43161      39   43167   43161      39   43167   43164
      40   43173   43170      39   43176   43170      39   43176   43173      40
   43182   43179      39   43185   43179      39   43185   43182      40   43191
   43188      39   43194   43188      39   43194   43191      40   43200   43197
      39   43203   43197      39   43203   43200      40   43209   43206      39
   43212   43206      39   43212   43209      40   43218   43215      39   43221
   43215      39   43221   43218      40   43227   43224      39   43230   43224
      39   43230   43227      40   43236   43233      39   43239   43233      39
   43239   43236      40   43245   43242      39   43248   43242      39   43248
   43245      40   43254   43251      39   43257   43251      39   43257   43254
      40   43263   43260      39   43266   43260      39   43266   43263      40
   43272   43269      39   43275   43269      39   43275   43272      40   43281
   43278      39   43284   43278      39   43284   43281      40   43290   43287
      39   43293   43287      39   43293   43290      40   43299   43296      39
   43302   43296      39   43302   43299      40   43308   43305      39   43311
   43305      39   43311   43308      40   43317   43314      39   43320   43314
      39   43320   43317      40   43326   43323      39   43329   43323      39
   43329   43326      40   43335   43332      39   43338   43332      39   43338
   43335      40   43344   43341      39   43347   43341      39   43347   43344
      40   43353   43350      39   43356   43350      39   43356   43353      40
   43362   43359      39   43365   43359      39   43365   43362      40   43371
   43368      39   43374   43368      39   43374   43371      40   43380   43377
      39   43383   43377      39   43383   43380      40   43389   43386      39
   43392   43386      39   43392   43389      40   43398   43395      39   43401
   43395      39   43401   43398      40   43407   43404      39   43410   43404
      39   43410   43407      40   43416   43413      39   43419   43413      39
   43419   43416      40   43425   43422      39   43428   43422      39   43428
   43425      40   43434   43431      39   43437   43431      39   43437   43434
      40   43443   43440      39   43446   43440      39   43446   43443      40
   43452   43449      39   43455   43449      39   43455   43452      40   43461
   43458      39   43464   43458      39   43464   43461      40   43470   43467
      39   43473   43467      39   43473   43470      40   43479   43476      39
   43482   43476      39   43482   43479      40   43488   43485      39   43491
   43485      39   43491   43488      40   43497   43494      39   43500   43494
      39   43500   43497      40   43506   43503      39   43509   43503      39
   43509   43506      40   43515   43512      39   43518   43512      39   43518
   43515      40   43524   43521      39   43527   43521      39   43527   43524
      40   43533   43530      39   43536   43530      39   43536   43533      40
   43542   43539      39   43545   43539      39   43545   43542      40   43551
   43548      39   43554   43548      39   43554   43551      40   43560   43557
      39   43563   43557      39   43563   43560      40   43569   43566      39
   43572   43566      39   43572   43569      40   43578   43575      39   43581
   43575      39   43581   43578      40   43587   43584      39   43590   43584
      39   43590   43587      40   43596   43593      39   43599   43593      39
   43599   43596      40   43605   43602      39   43608   43602      39   43608
   43605      40   43614   43611      39   43617   43611      39   43617   43614
      40   43623   43620      39   43626   43620      39   43626   43623      40
   43632   43629      39   43635   43629      39   43635   43632      40   43641
   43638      39   43644   43638      39   43644   43641      40   43650   43647
      39   43653   43647      39   43653   43650      40   43659   43656      39
   43662   43656      39   43662   43659      40   43668   43665      39   43671
   43665      39   43671   43668      40   43677   43674      39   43680   43674
      39   43680   43677      40   43686   43683      39   43689   43683      39
   43689   43686      40   43695   43692      39   43698   43692      39   43698
   43695      40   43704   43701      39   43707   43701      39   43707   43704
      40   43713   43710      39   43716   43710      39   43716   43713      40
   43722   43719      39   43725   43719      39   43725   43722      40   43731
   43728      39   43734   43728      39   43734   43731      40   43740   43737
      39   43743   43737      39   43743   43740      40   43749   43746      39
   43752   43746      39   43752   43749      40   43758   43755      39   43761
   43755      39   43761   43758      40   43767   43764      39   43770   43764
      39   43770   43767      40   43776   43773      39   43779   43773      39
   43779   43776      40   43785   43782      39   43788   43782      39   43788
   43785      40   43794   43791      39   43797   43791      39   43797   43794
      40   43803   43800      39   43806   43800      39   43806   43803      40
   43812   43809      39   43815   43809      39   43815   43812      40   43821
   43818      39   43824   43818      39   43824   43821      40   43830   43827
      39   43833   43827      39   43833   43830      40   43839   43836      39
   43842   43836      39   43842   43839      40   43848   43845      39   43851
   43845      39   43851   43848      40   43857   43854      39   43860   43854
      39   43860   43857      40   43866   43863      39   43869   43863      39
   43869   43866      40   43875   43872      39   43878   43872      39   43878
   43875      40   43884   43881      39   43887   43881      39   43887   43884
      40   43893   43890      39   43896   43890      39   43896   43893      40
   43902   43899      39   43905   43899      39   43905   43902      40   43911
   43908      39   43914   43908      39   43914   43911      40   43920   43917
      39   43923   43917      39   43923   43920      40   43929   43926      39
   43932   43926      39   43932   43929      40   43938   43935      39   43941
   43935      39   43941   43938      40   43947   43944      39   43950   43944
      39   43950   43947      40   43956   43953      39   43959   43953      39
   43959   43956      40   43965   43962      39   43968   43962      39   43968
   43965      40   43974   43971      39   43977   43971      39   43977   43974
      40   43983   43980      39   43986   43980      39   43986   43983      40
   43992   43989      39   43995   43989      39   43995   43992      40   44001
   43998      39   44004   43998      39   44004   44001      40   44010   44007
      39   44013   44007      39   44013   44010      40   44019   44016      39
   44022   44016      39   44022   44019      40   44028   44025      39   44031
   44025      39   44031   44028      40   44037   44034      39   44040   44034
      39   44040   44037      40   44046   44043      39   44049   44043      39
   44049   44046      40   44055   44052      39   44058   44052      39   44058
   44055      40   44064   44061      39   44067   44061      39   44067   44064
      40   44073   44070      39   44076   44070      39   44076   44073      40
   44082   44079      39   44085   44079      39   44085   44082      40   44091
   44088      39   44094   44088      39   44094   44091      40   44100   44097
      39   44103   44097      39   44103   44100      40   44109   44106      39
   44112   44106      39   44112   44109      40   44118   44115      39   44121
   44115      39   44121   44118      40   44127   44124      39   44130   44124
      39   44130   44127      40   44136   44133      39   44139   44133      39
   44139   44136      40   44145   44142      39   44148   44142      39   44148
   44145      40   44154   44151      39   44157   44151      39   44157   44154
      40   44163   44160      39   44166   44160      39   44166   44163      40
   44172   44169      39   44175   44169      39   44175   44172      40   44181
   44178      39   44184   44178      39   44184   44181      40   44190   44187
      39   44193   44187      39   44193   44190      40   44199   44196      39
   44202   44196      39   44202   44199      40   44208   44205      39   44211
   44205      39   44211   44208      40   44217   44214      39   44220   44214
      39   44220   44217      40   44226   44223      39   44229   44223      39
   44229   44226      40   44235   44232      39   44238   44232      39   44238
   44235      40   44244   44241      39   44247   44241      39   44247   44244
      40   44253   44250      39   44256   44250      39   44256   44253      40
   44262   44259      39   44265   44259      39   44265   44262      40   44271
   44268      39   44274   44268      39   44274   44271      40   44280   44277
      39   44283   44277      39   44283   44280      40   44289   44286      39
   44292   44286      39   44292   44289      40   44298   44295      39   44301
   44295      39   44301   44298      40   44307   44304      39   44310   44304
      39   44310   44307      40   44316   44313      39   44319   44313      39
   44319   44316      40   44325   44322      39   44328   44322      39   44328
   44325      40   44334   44331      39   44337   44331      39   44337   44334
      40   44343   44340      39   44346   44340      39   44346   44343      40
   44352   44349      39   44355   44349      39   44355   44352      40   44361
   44358      39   44364   44358      39   44364   44361      40   44370   44367
      39   44373   44367      39   44373   44370      40   44379   44376      39
   44382   44376      39   44382   44379      40   44388   44385      39   44391
   44385      39   44391   44388      40   44397   44394      39   44400   44394
      39   44400   44397      40   44406   44403      39   44409   44403      39
   44409   44406      40   44415   44412      39   44418   44412      39   44418
   44415      40   44424   44421      39   44427   44421      39   44427   44424
      40   44433   44430      39   44436   44430      39   44436   44433      40
   44442   44439      39   44445   44439      39   44445   44442      40   44451
   44448      39   44454   44448      39   44454   44451      40   44460   44457
      39   44463   44457      39   44463   44460      40   44469   44466      39
   44472   44466      39   44472   44469      40   44478   44475      39   44481
   44475      39   44481   44478      40   44487   44484      39   44490   44484
      39   44490   44487      40   44496   44493      39   44499   44493      39
   44499   44496      40   44505   44502      39   44508   44502      39   44508
   44505      40   44514   44511      39   44517   44511      39   44517   44514
      40   44523   44520      39   44526   44520      39   44526   44523      40
   44532   44529      39   44535   44529      39   44535   44532      40   44541
   44538      39   44544   44538      39   44544   44541      40   44550   44547
      39   44553   44547      39   44553   44550      40   44559   44556      39
   44562   44556      39   44562   44559      40   44568   44565      39   44571
   44565      39   44571   44568      40   44577   44574      39   44580   44574
      39   44580   44577      40   44586   44583      39   44589   44583      39
   44589   44586      40   44595   44592      39   44598   44592      39   44598
   44595      40   44604   44601      39   44607   44601      39   44607   44604
      40   44613   44610      39   44616   44610      39   44616   44613      40
   44622   44619      39   44625   44619      39   44625   44622      40   44631
   44628      39   44634   44628      39   44634   44631      40   44640   44637
      39   44643   44637      39   44643   44640      40   44649   44646      39
   44652   44646      39   44652   44649      40   44658   44655      39   44661
   44655      39   44661   44658      40   44667   44664      39   44670   44664
      39   44670   44667      40   44676   44673      39   44679   44673      39
   44679   44676      40   44685   44682      39   44688   44682      39   44688
   44685      40   44694   44691      39   44697   44691      39   44697   44694
      40   44703   44700      39   44706   44700      39   44706   44703      40
   44712   44709      39   44715   44709      39   44715   44712      40   44721
   44718      39   44724   44718      39   44724   44721      40   44730   44727
      39   44733   44727      39   44733   44730      40   44739   44736      39
   44742   44736      39   44742   44739      40   44748   44745      39   44751
   44745      39   44751   44748      40   44757   44754      39   44760   44754
      39   44760   44757      40   44766   44763      39   44769   44763      39
   44769   44766      40   44775   44772      39   44778   44772      39   44778
   44775      40   44784   44781      39   44787   44781      39   44787   44784
      40   44793   44790      39   44796   44790      39   44796   44793      40
   44802   44799      39   44805   44799      39   44805   44802      40   44811
   44808      39   44814   44808      39   44814   44811      40   44820   44817
      39   44823   44817      39   44823   44820      40   44829   44826      39
   44832   44826      39   44832   44829      40   44838   44835      39   44841
   44835      39   44841   44838      40   44847   44844      39   44850   44844
      39   44850   44847      40   44856   44853      39   44859   44853      39
   44859   44856      40   44865   44862      39   44868   44862      39   44868
   44865      40   44874   44871      39   44877   44871      39   44877   44874
      40   44883   44880      39   44886   44880      39   44886   44883      40
   44892   44889      39   44895   44889      39   44895   44892      40   44901
   44898      39   44904   44898      39   44904   44901      40   44910   44907
      39   44913   44907      39   44913   44910      40   44919   44916      39
   44922   44916      39   44922   44919      40   44928   44925      39   44931
   44925      39   44931   44928      40   44937   44934      39   44940   44934
      39   44940   44937      40   44946   44943      39   44949   44943      39
   44949   44946      40   44955   44952      39   44958   44952      39   44958
   44955      40   44964   44961      39   44967   44961      39   44967   44964
      40   44973   44970      39   44976   44970      39   44976   44973      40
   44982   44979      39   44985   44979      39   44985   44982      40   44991
   44988      39   44994   44988      39   44994   44991      40   45000   44997
      39   45003   44997      39   45003   45000      40   45009   45006      39
   45012   45006      39   45012   45009      40   45018   45015      39   45021
   45015      39   45021   45018      40   45027   45024      39   45030   45024
      39   45030   45027      40   45036   45033      39   45039   45033      39
   45039   45036      40   45045   45042      39   45048   45042      39   45048
   45045      40   45054   45051      39   45057   45051      39   45057   45054
      40   45063   45060      39   45066   45060      39   45066   45063      40
   45072   45069      39   45075   45069      39   45075   45072      40   45081
   45078      39   45084   45078      39   45084   45081      40   45090   45087
      39   45093   45087      39   45093   45090      40   45099   45096      39
   45102   45096      39   45102   45099      40   45108   45105      39   45111
   45105      39   45111   45108      40   45117   45114      39   45120   45114
      39   45120   45117      40   45126   45123      39   45129   45123      39
   45129   45126      40   45135   45132      39   45138   45132      39   45138
   45135      40   45144   45141      39   45147   45141      39   45147   45144
      40   45153   45150      39   45156   45150      39   45156   45153      40
   45162   45159      39   45165   45159      39   45165   45162      40   45171
   45168      39   45174   45168      39   45174   45171      40   45180   45177
      39   45183   45177      39   45183   45180      40   45189   45186      39
   45192   45186      39   45192   45189      40   45198   45195      39   45201
   45195      39   45201   45198      40   45207   45204      39   45210   45204
      39   45210   45207      40   45216   45213      39   45219   45213      39
   45219   45216      40   45225   45222      39   45228   45222      39   45228
   45225      40   45234   45231      39   45237   45231      39   45237   45234
      40   45243   45240      39   45246   45240      39   45246   45243      40
   45252   45249      39   45255   45249      39   45255   45252      40   45261
   45258      39   45264   45258      39   45264   45261      40   45270   45267
      39   45273   45267      39   45273   45270      40   45279   45276      39
   45282   45276      39   45282   45279      40   45288   45285      39   45291
   45285      39   45291   45288      40   45297   45294      39   45300   45294
      39   45300   45297      40   45306   45303      39   45309   45303      39
   45309   45306      40   45315   45312      39   45318   45312      39   45318
   45315      40   45324   45321      39   45327   45321      39   45327   45324
      40   45333   45330      39   45336   45330      39   45336   45333      40
   45342   45339      39   45345   45339      39   45345   45342      40   45351
   45348      39   45354   45348      39   45354   45351      40   45360   45357
      39   45363   45357      39   45363   45360      40   45369   45366      39
   45372   45366      39   45372   45369      40   45378   45375      39   45381
   45375      39   45381   45378      40   45387   45384      39   45390   45384
      39   45390   45387      40   45396   45393      39   45399   45393      39
   45399   45396      40   45405   45402      39   45408   45402      39   45408
   45405      40   45414   45411      39   45417   45411      39   45417   45414
      40   45423   45420      39   45426   45420      39   45426   45423      40
   45432   45429      39   45435   45429      39   45435   45432      40   45441
   45438      39   45444   45438      39   45444   45441      40   45450   45447
      39   45453   45447      39   45453   45450      40   45459   45456      39
   45462   45456      39   45462   45459      40   45468   45465      39   45471
   45465      39   45471   45468      40   45477   45474      39   45480   45474
      39   45480   45477      40   45486   45483      39   45489   45483      39
   45489   45486      40   45495   45492      39   45498   45492      39   45498
   45495      40   45504   45501      39   45507   45501      39   45507   45504
      40   45513   45510      39   45516   45510      39   45516   45513      40
   45522   45519      39   45525   45519      39   45525   45522      40   45531
   45528      39   45534   45528      39   45534   45531      40   45540   45537
      39   45543   45537      39   45543   45540      40   45549   45546      39
   45552   45546      39   45552   45549      40   45558   45555      39   45561
   45555      39   45561   45558      40   45567   45564      39   45570   45564
      39   45570   45567      40   45576   45573      39   45579   45573      39
   45579   45576      40   45585   45582      39   45588   45582      39   45588
   45585      40   45594   45591      39   45597   45591      39   45597   45594
      40   45603   45600      39   45606   45600      39   45606   45603      40
   45612   45609      39   45615   45609      39   45615   45612      40   45621
   45618      39   45624   45618      39   45624   45621      40   45630   45627
      39   45633   45627      39   45633   45630      40   45639   45636      39
   45642   45636      39   45642   45639      40   45648   45645      39   45651
   45645      39   45651   45648      40   45657   45654      39   45660   45654
      39   45660   45657      40   45666   45663      39   45669   45663      39
   45669   45666      40   45675   45672      39   45678   45672      39   45678
   45675      40   45684   45681      39   45687   45681      39   45687   45684
      40   45693   45690      39   45696   45690      39   45696   45693      40
   45702   45699      39   45705   45699      39   45705   45702      40   45711
   45708      39   45714   45708      39   45714   45711      40   45720   45717
      39   45723   45717      39   45723   45720      40   45729   45726      39
   45732   45726      39   45732   45729      40   45738   45735      39   45741
   45735      39   45741   45738      40   45747   45744      39   45750   45744
      39   45750   45747      40   45756   45753      39   45759   45753      39
   45759   45756      40   45765   45762      39   45768   45762      39   45768
   45765      40   45774   45771      39   45777   45771      39   45777   45774
      40   45783   45780      39   45786   45780      39   45786   45783      40
   45792   45789      39   45795   45789      39   45795   45792      40   45801
   45798      39   45804   45798      39   45804   45801      40   45810   45807
      39   45813   45807      39   45813   45810      40   45819   45816      39
   45822   45816      39   45822   45819      40   45828   45825      39   45831
   45825      39   45831   45828      40   45837   45834      39   45840   45834
      39   45840   45837      40   45846   45843      39   45849   45843      39
   45849   45846      40   45855   45852      39   45858   45852      39   45858
   45855      40   45864   45861      39   45867   45861      39   45867   45864
      40   45873   45870      39   45876   45870      39   45876   45873      40
   45882   45879      39   45885   45879      39   45885   45882      40   45891
   45888      39   45894   45888      39   45894   45891      40   45900   45897
      39   45903   45897      39   45903   45900      40   45909   45906      39
   45912   45906      39   45912   45909      40   45918   45915      39   45921
   45915      39   45921   45918      40   45927   45924      39   45930   45924
      39   45930   45927      40   45936   45933      39   45939   45933      39
   45939   45936      40   45945   45942      39   45948   45942      39   45948
   45945      40   45954   45951      39   45957   45951      39   45957   45954
      40   45963   45960      39   45966   45960      39   45966   45963      40
   45972   45969      39   45975   45969      39   45975   45972      40   45981
   45978      39   45984   45978      39   45984   45981      40   45990   45987
      39   45993   45987      39   45993   45990      40   45999   45996      39
   46002   45996      39   46002   45999      40   46008   46005      39   46011
   46005      39   46011   46008      40   46017   46014      39   46020   46014
      39   46020   46017      40   46026   46023      39   46029   46023      39
   46029   46026      40   46035   46032      39   46038   46032      39   46038
   46035      40   46044   46041      39   46047   46041      39   46047   46044
      40   46053   46050      39   46056   46050      39   46056   46053      40
   46062   46059      39   46065   46059      39   46065   46062      40   46071
   46068      39   46074   46068      39   46074   46071      40   46080   46077
      39   46083   46077      39   46083   46080      40   46089   46086      39
   46092   46086      39   46092   46089      40   46098   46095      39   46101
   46095      39   46101   46098      40   46107   46104      39   46110   46104
      39   46110   46107      40   46116   46113      39   46119   46113      39
   46119   46116      40   46125   46122      39   46128   46122      39   46128
   46125      40   46134   46131      39   46137   46131      39   46137   46134
      40   46143   46140      39   46146   46140      39   46146   46143      40
   46152   46149      39   46155   46149      39   46155   46152      40   46161
   46158      39   46164   46158      39   46164   46161      40   46170   46167
      39   46173   46167      39   46173   46170      40   46179   46176      39
   46182   46176      39   46182   46179      40   46188   46185      39   46191
   46185      39   46191   46188      40   46197   46194      39   46200   46194
      39   46200   46197      40   46206   46203      39   46209   46203      39
   46209   46206      40   46215   46212      39   46218   46212      39   46218
   46215      40   46224   46221      39   46227   46221      39   46227   46224
      40   46233   46230      39   46236   46230      39   46236   46233      40
   46242   46239      39   46245   46239      39   46245   46242      40   46251
   46248      39   46254   46248      39   46254   46251      40   46260   46257
      39   46263   46257      39   46263   46260      40   46269   46266      39
   46272   46266      39   46272   46269      40   46278   46275      39   46281
   46275      39   46281   46278      40   46287   46284      39   46290   46284
      39   46290   46287      40   46296   46293      39   46299   46293      39
   46299   46296      40   46305   46302      39   46308   46302      39   46308
   46305      40   46314   46311      39   46317   46311      39   46317   46314
      40   46323   46320      39   46326   46320      39   46326   46323      40
   46332   46329      39   46335   46329      39   46335   46332      40   46341
   46338      39   46344   46338      39   46344   46341      40   46350   46347
      39   46353   46347      39   46353   46350      40   46359   46356      39
   46362   46356      39   46362   46359      40   46368   46365      39   46371
   46365      39   46371   46368      40   46377   46374      39   46380   46374
      39   46380   46377      40   46386   46383      39   46389   46383      39
   46389   46386      40   46395   46392      39   46398   46392      39   46398
   46395      40   46404   46401      39   46407   46401      39   46407   46404
      40   46413   46410      39   46416   46410      39   46416   46413      40
   46422   46419      39   46425   46419      39   46425   46422      40   46431
   46428      39   46434   46428      39   46434   46431      40   46440   46437
      39   46443   46437      39   46443   46440      40   46449   46446      39
   46452   46446      39   46452   46449      40   46458   46455      39   46461
   46455      39   46461   46458      40   46467   46464      39   46470   46464
      39   46470   46467      40   46476   46473      39   46479   46473      39
   46479   46476      40   46485   46482      39   46488   46482      39   46488
   46485      40   46494   46491      39   46497   46491      39   46497   46494
      40   46503   46500      39   46506   46500      39   46506   46503      40
   46512   46509      39   46515   46509      39   46515   46512      40   46521
   46518      39   46524   46518      39   46524   46521      40   46530   46527
      39   46533   46527      39   46533   46530      40   46539   46536      39
   46542   46536      39   46542   46539      40   46548   46545      39   46551
   46545      39   46551   46548      40   46557   46554      39   46560   46554
      39   46560   46557      40   46566   46563      39   46569   46563      39
   46569   46566      40   46575   46572      39   46578   46572      39   46578
   46575      40   46584   46581      39   46587   46581      39   46587   46584
      40   46593   46590      39   46596   46590      39   46596   46593      40
   46602   46599      39   46605   46599      39   46605   46602      40   46611
   46608      39   46614   46608      39   46614   46611      40   46620   46617
      39   46623   46617      39   46623   46620      40   46629   46626      39
   46632   46626      39   46632   46629      40   46638   46635      39   46641
   46635      39   46641   46638      40   46647   46644      39   46650   46644
      39   46650   46647      40   46656   46653      39   46659   46653      39
   46659   46656      40   46665   46662      39   46668   46662      39   46668
   46665      40   46674   46671      39   46677   46671      39   46677   46674
      40   46683   46680      39   46686   46680      39   46686   46683      40
   46692   46689      39   46695   46689      39   46695   46692      40   46701
   46698      39   46704   46698      39   46704   46701      40   46710   46707
      39   46713   46707      39   46713   46710      40   46719   46716      39
   46722   46716      39   46722   46719      40   46728   46725      39   46731
   46725      39   46731   46728      40   46737   46734      39   46740   46734
      39   46740   46737      40   46746   46743      39   46749   46743      39
   46749   46746      40   46755   46752      39   46758   46752      39   46758
   46755      40   46764   46761      39   46767   46761      39   46767   46764
      40   46773   46770      39   46776   46770      39   46776   46773      40
   46782   46779      39   46785   46779      39   46785   46782      40   46791
   46788      39   46794   46788      39   46794   46791      40   46800   46797
      39   46803   46797      39   46803   46800      40   46809   46806      39
   46812   46806      39   46812   46809      40   46818   46815      39   46821
   46815      39   46821   46818      40   46827   46824      39   46830   46824
      39   46830   46827      40   46836   46833      39   46839   46833      39
   46839   46836      40   46845   46842      39   46848   46842      39   46848
   46845      40   46854   46851      39   46857   46851      39   46857   46854
      40   46863   46860      39   46866   46860      39   46866   46863      40
   46872   46869      39   46875   46869      39   46875   46872      40   46881
   46878      39   46884   46878      39   46884   46881      40   46890   46887
      39   46893   46887      39   46893   46890      40   46899   46896      39
   46902   46896      39   46902   46899      40   46908   46905      39   46911
   46905      39   46911   46908      40   46917   46914      39   46920   46914
      39   46920   46917      40   46926   46923      39   46929   46923      39
   46929   46926      40   46935   46932      39   46938   46932      39   46938
   46935      40   46944   46941      39   46947   46941      39   46947   46944
      40   46953   46950      39   46956   46950      39   46956   46953      40
   46962   46959      39   46965   46959      39   46965   46962      40   46971
   46968      39   46974   46968      39   46974   46971      40   46980   46977
      39   46983   46977      39   46983   46980      40   46989   46986      39
   46992   46986      39   46992   46989      40   46998   46995      39   47001
   46995      39   47001   46998      40   47007   47004      39   47010   47004
      39   47010   47007      40   47016   47013      39   47019   47013      39
   47019   47016      40   47025   47022      39   47028   47022      39   47028
   47025      40   47034   47031      39   47037   47031      39   47037   47034
      40   47043   47040      39   47046   47040      39   47046   47043      40
   47052   47049      39   47055   47049      39   47055   47052      40   47061
   47058      39   47064   47058      39   47064   47061      40   47070   47067
      39   47073   47067      39   47073   47070      40   47079   47076      39
   47082   47076      39   47082   47079      40   47088   47085      39   47091
   47085      39   47091   47088      40   47097   47094      39   47100   47094
      39   47100   47097      40   47106   47103      39   47109   47103      39
   47109   47106      40   47115   47112      39   47118   47112      39   47118
   47115      40   47124   47121      39   47127   47121      39   47127   47124
      40   47133   47130      39   47136   47130      39   47136   47133      40
   47142   47139      39   47145   47139      39   47145   47142      40   47151
   47148      39   47154   47148      39   47154   47151      40   47160   47157
      39   47163   47157      39   47163   47160      40   47169   47166      39
   47172   47166      39   47172   47169      40   47178   47175      39   47181
   47175      39   47181   47178      40   47187   47184      39   47190   47184
      39   47190   47187      40   47196   47193      39   47199   47193      39
   47199   47196      40   47205   47202      39   47208   47202      39   47208
   47205      40   47214   47211      39   47217   47211      39   47217   47214
      40   47223   47220      39   47226   47220      39   47226   47223      40
   47232   47229      39   47235   47229      39   47235   47232      40   47241
   47238      39   47244   47238      39   47244   47241      40   47250   47247
      39   47253   47247      39   47253   47250      40   47259   47256      39
   47262   47256      39   47262   47259      40   47268   47265      39   47271
   47265      39   47271   47268      40   47277   47274      39   47280   47274
      39   47280   47277      40   47286   47283      39   47289   47283      39
   47289   47286      40   47295   47292      39   47298   47292      39   47298
   47295      40   47304   47301      39   47307   47301      39   47307   47304
      40   47313   47310      39   47316   47310      39   47316   47313      40
   47322   47319      39   47325   47319      39   47325   47322      40   47331
   47328      39   47334   47328      39   47334   47331      40   47340   47337
      39   47343   47337      39   47343   47340      40   47349   47346      39
   47352   47346      39   47352   47349      40   47358   47355      39   47361
   47355      39   47361   47358      40   47367   47364      39   47370   47364
      39   47370   47367      40   47376   47373      39   47379   47373      39
   47379   47376      40   47385   47382      39   47388   47382      39   47388
   47385      40   47394   47391      39   47397   47391      39   47397   47394
      40   47403   47400      39   47406   47400      39   47406   47403      40
   47412   47409      39   47415   47409      39   47415   47412      40   47421
   47418      39   47424   47418      39   47424   47421      40   47430   47427
      39   47433   47427      39   47433   47430      40   47439   47436      39
   47442   47436      39   47442   47439      40   47448   47445      39   47451
   47445      39   47451   47448      40   47457   47454      39   47460   47454
      39   47460   47457      40   47466   47463      39   47469   47463      39
   47469   47466      40   47475   47472      39   47478   47472      39   47478
   47475      40   47484   47481      39   47487   47481      39   47487   47484
      40   47493   47490      39   47496   47490      39   47496   47493      40
   47502   47499      39   47505   47499      39   47505   47502      40   47511
   47508      39   47514   47508      39   47514   47511      40   47520   47517
      39   47523   47517      39   47523   47520      40   47529   47526      39
   47532   47526      39   47532   47529      40   47538   47535      39   47541
   47535      39   47541   47538      40   47547   47544      39   47550   47544
      39   47550   47547      40   47556   47553      39   47559   47553      39
   47559   47556      40   47565   47562      39   47568   47562      39   47568
   47565      40   47574   47571      39   47577   47571      39   47577   47574
      40   47583   47580      39   47586   47580      39   47586   47583      40
   47592   47589      39   47595   47589      39   47595   47592      40   47601
   47598      39   47604   47598      39   47604   47601      40   47610   47607
      39   47613   47607      39   47613   47610      40   47619   47616      39
   47622   47616      39   47622   47619      40   47628   47625      39   47631
   47625      39   47631   47628      40   47637   47634      39   47640   47634
      39   47640   47637      40   47646   47643      39   47649   47643      39
   47649   47646      40   47655   47652      39   47658   47652      39   47658
   47655      40   47664   47661      39   47667   47661      39   47667   47664
      40   47673   47670      39   47676   47670      39   47676   47673      40
   47682   47679      39   47685   47679      39   47685   47682      40   47691
   47688      39   47694   47688      39   47694   47691      40   47700   47697
      39   47703   47697      39   47703   47700      40   47709   47706      39
   47712   47706      39   47712   47709      40   47718   47715      39   47721
   47715      39   47721   47718      40   47727   47724      39   47730   47724
      39   47730   47727      40   47736   47733      39   47739   47733      39
   47739   47736      40   47745   47742      39   47748   47742      39   47748
   47745      40   47754   47751      39   47757   47751      39   47757   47754
      40   47763   47760      39   47766   47760      39   47766   47763      40
   47772   47769      39   47775   47769      39   47775   47772      40   47781
   47778      39   47784   47778      39   47784   47781      40   47790   47787
      39   47793   47787      39   47793   47790      40   47799   47796      39
   47802   47796      39   47802   47799      40   47808   47805      39   47811
   47805      39   47811   47808      40   47817   47814      39   47820   47814
      39   47820   47817      40   47826   47823      39   47829   47823      39
   47829   47826      40   47835   47832      39   47838   47832      39   47838
   47835      40   47844   47841      39   47847   47841      39   47847   47844
      40   47853   47850      39   47856   47850      39   47856   47853      40
   47862   47859      39   47865   47859      39   47865   47862      40   47871
   47868      39   47874   47868      39   47874   47871      40   47880   47877
      39   47883   47877      39   47883   47880      40   47889   47886      39
   47892   47886      39   47892   47889      40   47898   47895      39   47901
   47895      39   47901   47898      40   47907   47904      39   47910   47904
      39   47910   47907      40   47916   47913      39   47919   47913      39
   47919   47916      40   47925   47922      39   47928   47922      39   47928
   47925      40   47934   47931      39   47937   47931      39   47937   47934
      40   47943   47940      39   47946   47940      39   47946   47943      40
   47952   47949      39   47955   47949      39   47955   47952      40   47961
   47958      39   47964   47958      39   47964   47961      40   47970   47967
      39   47973   47967      39   47973   47970      40   47979   47976      39
   47982   47976      39   47982   47979      40   47988   47985      39   47991
   47985      39   47991   47988      40   47997   47994      39   48000   47994
      39   48000   47997      40   48006   48003      39   48009   48003      39
   48009   48006      40   48015   48012      39   48018   48012      39   48018
   48015      40   48024   48021      39   48027   48021      39   48027   48024
      40   48033   48030      39   48036   48030      39   48036   48033      40
   48042   48039      39   48045   48039      39   48045   48042      40   48051
   48048      39   48054   48048      39   48054   48051      40   48060   48057
      39   48063   48057      39   48063   48060      40   48069   48066      39
   48072   48066      39   48072   48069      40   48078   48075      39   48081
   48075      39   48081   48078      40   48087   48084      39   48090   48084
      39   48090   48087      40   48096   48093      39   48099   48093      39
   48099   48096      40   48105   48102      39   48108   48102      39   48108
   48105      40   48114   48111      39   48117   48111      39   48117   48114
      40   48123   48120      39   48126   48120      39   48126   48123      40
   48132   48129      39   48135   48129      39   48135   48132      40   48141
   48138      39   48144   48138      39   48144   48141      40   48150   48147
      39   48153   48147      39   48153   48150      40   48159   48156      39
   48162   48156      39   48162   48159      40   48168   48165      39   48171
   48165      39   48171   48168      40   48177   48174      39   48180   48174
      39   48180   48177      40   48186   48183      39   48189   48183      39
   48189   48186      40   48195   48192      39   48198   48192      39   48198
   48195      40   48204   48201      39   48207   48201      39   48207   48204
      40   48213   48210      39   48216   48210      39   48216   48213      40
   48222   48219      39   48225   48219      39   48225   48222      40   48231
   48228      39   48234   48228      39   48234   48231      40   48240   48237
      39   48243   48237      39   48243   48240      40   48249   48246      39
   48252   48246      39   48252   48249      40   48258   48255      39   48261
   48255      39   48261   48258      40   48267   48264      39   48270   48264
      39   48270   48267      40   48276   48273      39   48279   48273      39
   48279   48276      40   48285   48282      39   48288   48282      39   48288
   48285      40   48294   48291      39   48297   48291      39   48297   48294
      40   48303   48300      39   48306   48300      39   48306   48303      40
   48312   48309      39   48315   48309      39   48315   48312      40   48321
   48318      39   48324   48318      39   48324   48321      40   48330   48327
      39   48333   48327      39   48333   48330      40   48339   48336      39
   48342   48336      39   48342   48339      40   48348   48345      39   48351
   48345      39   48351   48348      40   48357   48354      39   48360   48354
      39   48360   48357      40   48366   48363      39   48369   48363      39
   48369   48366      40   48375   48372      39   48378   48372      39   48378
   48375      40   48384   48381      39   48387   48381      39   48387   48384
      40   48393   48390      39   48396   48390      39   48396   48393      40
   48402   48399      39   48405   48399      39   48405   48402      40   48411
   48408      39   48414   48408      39   48414   48411      40   48420   48417
      39   48423   48417      39   48423   48420      40   48429   48426      39
   48432   48426      39   48432   48429      40   48438   48435      39   48441
   48435      39   48441   48438      40   48447   48444      39   48450   48444
      39   48450   48447      40   48456   48453      39   48459   48453      39
   48459   48456      40   48465   48462      39   48468   48462      39   48468
   48465      40   48474   48471      39   48477   48471      39   48477   48474
      40   48483   48480      39   48486   48480      39   48486   48483      40
   48492   48489      39   48495   48489      39   48495   48492      40   48501
   48498      39   48504   48498      39   48504   48501      40   48510   48507
      39   48513   48507      39   48513   48510      40   48519   48516      39
   48522   48516      39   48522   48519      40   48528   48525      39   48531
   48525      39   48531   48528      40   48537   48534      39   48540   48534
      39   48540   48537      40   48546   48543      39   48549   48543      39
   48549   48546      40   48555   48552      39   48558   48552      39   48558
   48555      40   48564   48561      39   48567   48561      39   48567   48564
      40   48573   48570      39   48576   48570      39   48576   48573      40
   48582   48579      39   48585   48579      39   48585   48582      40   48591
   48588      39   48594   48588      39   48594   48591      40   48600   48597
      39   48603   48597      39   48603   48600      40   48609   48606      39
   48612   48606      39   48612   48609      40   48618   48615      39   48621
   48615      39   48621   48618      40   48627   48624      39   48630   48624
      39   48630   48627      40   48636   48633      39   48639   48633      39
   48639   48636      40   48645   48642      39   48648   48642      39   48648
   48645      40   48654   48651      39   48657   48651      39   48657   48654
      40   48663   48660      39   48666   48660      39   48666   48663      40
   48672   48669      39   48675   48669      39   48675   48672      40   48681
   48678      39   48684   48678      39   48684   48681      40   48690   48687
      39   48693   48687      39   48693   48690      40   48699   48696      39
   48702   48696      39   48702   48699      40   48708   48705      39   48711
   48705      39   48711   48708      40   48717   48714      39   48720   48714
      39   48720   48717      40   48726   48723      39   48729   48723      39
   48729   48726      40   48735   48732      39   48738   48732      39   48738
   48735      40   48744   48741      39   48747   48741      39   48747   48744
      40   48753   48750      39   48756   48750      39   48756   48753      40
   48762   48759      39   48765   48759      39   48765   48762      40   48771
   48768      39   48774   48768      39   48774   48771      40   48780   48777
      39   48783   48777      39   48783   48780      40   48789   48786      39
   48792   48786      39   48792   48789      40   48798   48795      39   48801
   48795      39   48801   48798      40   48807   48804      39   48810   48804
      39   48810   48807      40   48816   48813      39   48819   48813      39
   48819   48816      40   48825   48822      39   48828   48822      39   48828
   48825      40   48834   48831      39   48837   48831      39   48837   48834
      40   48843   48840      39   48846   48840      39   48846   48843      40
   48852   48849      39   48855   48849      39   48855   48852      40   48861
   48858      39   48864   48858      39   48864   48861      40   48870   48867
      39   48873   48867      39   48873   48870      40   48879   48876      39
   48882   48876      39   48882   48879      40   48888   48885      39   48891
   48885      39   48891   48888      40   48897   48894      39   48900   48894
      39   48900   48897      40   48906   48903      39   48909   48903      39
   48909   48906      40   48915   48912      39   48918   48912      39   48918
   48915      40   48924   48921      39   48927   48921      39   48927   48924
      40   48933   48930      39   48936   48930      39   48936   48933      40
   48942   48939      39   48945   48939      39   48945   48942      40   48951
   48948      39   48954   48948      39   48954   48951      40   48960   48957
      39   48963   48957      39   48963   48960      40   48969   48966      39
   48972   48966      39   48972   48969      40   48978   48975      39   48981
   48975      39   48981   48978      40   48987   48984      39   48990   48984
      39   48990   48987      40   48996   48993      39   48999   48993      39
   48999   48996      40   49005   49002      39   49008   49002      39   49008
   49005      40   49014   49011      39   49017   49011      39   49017   49014
      40   49023   49020      39   49026   49020      39   49026   49023      40
   49032   49029      39   49035   49029      39   49035   49032      40   49041
   49038      39   49044   49038      39   49044   49041      40   49050   49047
      39   49053   49047      39   49053   49050      40   49059   49056      39
   49062   49056      39   49062   49059      40   49068   49065      39   49071
   49065      39   49071   49068      40   49077   49074      39   49080   49074
      39   49080   49077      40   49086   49083      39   49089   49083      39
   49089   49086      40   49095   49092      39   49098   49092      39   49098
   49095      40   49104   49101      39   49107   49101      39   49107   49104
      40   49113   49110      39   49116   49110      39   49116   49113      40
   49122   49119      39   49125   49119      39   49125   49122      40   49131
   49128      39   49134   49128      39   49134   49131      40   49140   49137
      39   49143   49137      39   49143   49140      40   49149   49146      39
   49152   49146      39   49152   49149      40   49158   49155      39   49161
   49155      39   49161   49158      40   49167   49164      39   49170   49164
      39   49170   49167      40   49176   49173      39   49179   49173      39
   49179   49176      40   49185   49182      39   49188   49182      39   49188
   49185      40   49194   49191      39   49197   49191      39   49197   49194
      40   49203   49200      39   49206   49200      39   49206   49203      40
   49212   49209      39   49215   49209      39   49215   49212      40   49221
   49218      39   49224   49218      39   49224   49221      40   49230   49227
      39   49233   49227      39   49233   49230      40   49239   49236      39
   49242   49236      39   49242   49239      40   49248   49245      39   49251
   49245      39   49251   49248      40   49257   49254      39   49260   49254
      39   49260   49257      40   49266   49263      39   49269   49263      39
   49269   49266      40   49275   49272      39   49278   49272      39   49278
   49275      40   49284   49281      39   49287   49281      39   49287   49284
      40   49293   49290      39   49296   49290      39   49296   49293      40
   49302   49299      39   49305   49299      39   49305   49302      40   49311
   49308      39   49314   49308      39   49314   49311      40   49320   49317
      39   49323   49317      39   49323   49320      40   49329   49326      39
   49332   49326      39   49332   49329      40   49338   49335      39   49341
   49335      39   49341   49338      40   49347   49344      39   49350   49344
      39   49350   49347      40   49356   49353      39   49359   49353      39
   49359   49356      40   49365   49362      39   49368   49362      39   49368
   49365      40   49374   49371      39   49377   49371      39   49377   49374
      40   49383   49380      39   49386   49380      39   49386   49383      40
   49392   49389      39   49395   49389      39   49395   49392      40   49401
   49398      39   49404   49398      39   49404   49401      40   49410   49407
      39   49413   49407      39   49413   49410      40   49419   49416      39
   49422   49416      39   49422   49419      40   49428   49425      39   49431
   49425      39   49431   49428      40   49437   49434      39   49440   49434
      39   49440   49437      40   49446   49443      39   49449   49443      39
   49449   49446      40   49455   49452      39   49458   49452      39   49458
   49455      40   49464   49461      39   49467   49461      39   49467   49464
      40   49473   49470      39   49476   49470      39   49476   49473      40
   49482   49479      39   49485   49479      39   49485   49482      40   49491
   49488      39   49494   49488      39   49494   49491      40   49500   49497
      39   49503   49497      39   49503   49500      40   49509   49506      39
   49512   49506      39   49512   49509      40   49518   49515      39   49521
   49515      39   49521   49518      40   49527   49524      39   49530   49524
      39   49530   49527      40   49536   49533      39   49539   49533      39
   49539   49536      40   49545   49542      39   49548   49542      39   49548
   49545      40   49554   49551      39   49557   49551      39   49557   49554
      40   49563   49560      39   49566   49560      39   49566   49563      40
   49572   49569      39   49575   49569      39   49575   49572      40   49581
   49578      39   49584   49578      39   49584   49581      40   49590   49587
      39   49593   49587      39   49593   49590      40   49599   49596      39
   49602   49596      39   49602   49599      40   49608   49605      39   49611
   49605      39   49611   49608      40   49617   49614      39   49620   49614
      39   49620   49617      40   49626   49623      39   49629   49623      39
   49629   49626      40   49635   49632      39   49638   49632      39   49638
   49635      40   49644   49641      39   49647   49641      39   49647   49644
      40   49653   49650      39   49656   49650      39   49656   49653      40
   49662   49659      39   49665   49659      39   49665   49662      40   49671
   49668      39   49674   49668      39   49674   49671      40   49680   49677
      39   49683   49677      39   49683   49680      40   49689   49686      39
   49692   49686      39   49692   49689      40   49698   49695      39   49701
   49695      39   49701   49698      40   49707   49704      39   49710   49704
      39   49710   49707      40   49716   49713      39   49719   49713      39
   49719   49716      40   49725   49722      39   49728   49722      39   49728
   49725      40   49734   49731      39   49737   49731      39   49737   49734
      40   49743   49740      39   49746   49740      39   49746   49743      40
   49752   49749      39   49755   49749      39   49755   49752      40   49761
   49758      39   49764   49758      39   49764   49761      40   49770   49767
      39   49773   49767      39   49773   49770      40   49779   49776      39
   49782   49776      39   49782   49779      40   49788   49785      39   49791
   49785      39   49791   49788      40   49797   49794      39   49800   49794
      39   49800   49797      40   49806   49803      39   49809   49803      39
   49809   49806      40   49815   49812      39   49818   49812      39   49818
   49815      40   49824   49821      39   49827   49821      39   49827   49824
      40   49833   49830      39   49836   49830      39   49836   49833      40
   49842   49839      39   49845   49839      39   49845   49842      40   49851
   49848      39   49854   49848      39   49854   49851      40   49860   49857
      39   49863   49857      39   49863   49860      40   49869   49866      39
   49872   49866      39   49872   49869      40   49878   49875      39   49881
   49875      39   49881   49878      40   49887   49884      39   49890   49884
      39   49890   49887      40   49896   49893      39   49899   49893      39
   49899   49896      40   49905   49902      39   49908   49902      39   49908
   49905      40   49914   49911      39   49917   49911      39   49917   49914
      40   49923   49920      39   49926   49920      39   49926   49923      40
   49932   49929      39   49935   49929      39   49935   49932      40   49941
   49938      39   49944   49938      39   49944   49941      40   49950   49947
      39   49953   49947      39   49953   49950      40   49959   49956      39
   49962   49956      39   49962   49959      40   49968   49965      39   49971
   49965      39   49971   49968      40   49977   49974      39   49980   49974
      39   49980   49977      40   49986   49983      39   49989   49983      39
   49989   49986      40   49995   49992      39   49998   49992      39   49998
   49995      40   50004   50001      39   50007   50001      39   50007   50004
      40   50013   50010      39   50016   50010      39   50016   50013      40
   50022   50019      39   50025   50019      39   50025   50022      40   50031
   50028      39   50034   50028      39   50034   50031      40   50040   50037
      39   50043   50037      39   50043   50040      40   50049   50046      39
   50052   50046      39   50052   50049      40   50058   50055      39   50061
   50055      39   50061   50058      40   50067   50064      39   50070   50064
      39   50070   50067      40   50076   50073      39   50079   50073      39
   50079   50076      40   50085   50082      39   50088   50082      39   50088
   50085      40   50094   50091      39   50097   50091      39   50097   50094
      40   50103   50100      39   50106   50100      39   50106   50103      40
   50112   50109      39   50115   50109      39   50115   50112      40   50121
   50118      39   50124   50118      39   50124   50121      40   50130   50127
      39   50133   50127      39   50133   50130      40   50139   50136      39
   50142   50136      39   50142   50139      40   50148   50145      39   50151
   50145      39   50151   50148      40   50157   50154      39   50160   50154
      39   50160   50157      40   50166   50163      39   50169   50163      39
   50169   50166      40   50175   50172      39   50178   50172      39   50178
   50175      40   50184   50181      39   50187   50181      39   50187   50184
      40   50193   50190      39   50196   50190      39   50196   50193      40
   50202   50199      39   50205   50199      39   50205   50202      40   50211
   50208      39   50214   50208      39   50214   50211      40   50220   50217
      39   50223   50217      39   50223   50220      40   50229   50226      39
   50232   50226      39   50232   50229      40   50238   50235      39   50241
   50235      39   50241   50238      40   50247   50244      39   50250   50244
      39   50250   50247      40   50256   50253      39   50259   50253      39
   50259   50256      40   50265   50262      39   50268   50262      39   50268
   50265      40   50274   50271      39   50277   50271      39   50277   50274
      40   50283   50280      39   50286   50280      39   50286   50283      40
   50292   50289      39   50295   50289      39   50295   50292      40   50301
   50298      39   50304   50298      39   50304   50301      40   50310   50307
      39   50313   50307      39   50313   50310      40   50319   50316      39
   50322   50316      39   50322   50319      40   50328   50325      39   50331
   50325      39   50331   50328      40   50337   50334      39   50340   50334
      39   50340   50337      40   50346   50343      39   50349   50343      39
   50349   50346      40   50355   50352      39   50358   50352      39   50358
   50355      40   50364   50361      39   50367   50361      39   50367   50364
      40   50373   50370      39   50376   50370      39   50376   50373      40
   50382   50379      39   50385   50379      39   50385   50382      40   50391
   50388      39   50394   50388      39   50394   50391      40   50400   50397
      39   50403   50397      39   50403   50400      40   50409   50406      39
   50412   50406      39   50412   50409      40   50418   50415      39   50421
   50415      39   50421   50418      40   50427   50424      39   50430   50424
      39   50430   50427      40   50436   50433      39   50439   50433      39
   50439   50436      40   50445   50442      39   50448   50442      39   50448
   50445      40   50454   50451      39   50457   50451      39   50457   50454
      40   50463   50460      39   50466   50460      39   50466   50463      40
   50472   50469      39   50475   50469      39   50475   50472      40   50481
   50478      39   50484   50478      39   50484   50481      40   50490   50487
      39   50493   50487      39   50493   50490      40   50499   50496      39
   50502   50496      39   50502   50499      40   50508   50505      39   50511
   50505      39   50511   50508      40   50517   50514      39   50520   50514
      39   50520   50517      40   50526   50523      39   50529   50523      39
   50529   50526      40   50535   50532      39   50538   50532      39   50538
   50535      40   50544   50541      39   50547   50541      39   50547   50544
      40   50553   50550      39   50556   50550      39   50556   50553      40
   50562   50559      39   50565   50559      39   50565   50562      40   50571
   50568      39   50574   50568      39   50574   50571      40   50580   50577
      39   50583   50577      39   50583   50580      40   50589   50586      39
   50592   50586      39   50592   50589      40   50598   50595      39   50601
   50595      39   50601   50598      40   50607   50604      39   50610   50604
      39   50610   50607      40   50616   50613      39   50619   50613      39
   50619   50616      40   50625   50622      39   50628   50622      39   50628
   50625      40   50634   50631      39   50637   50631      39   50637   50634
      40   50643   50640      39   50646   50640      39   50646   50643      40
   50652   50649      39   50655   50649      39   50655   50652      40   50661
   50658      39   50664   50658      39   50664   50661      40   50670   50667
      39   50673   50667      39   50673   50670      40   50679   50676      39
   50682   50676      39   50682   50679      40   50688   50685      39   50691
   50685      39   50691   50688      40   50697   50694      39   50700   50694
      39   50700   50697      40   50706   50703      39   50709   50703      39
   50709   50706      40   50715   50712      39   50718   50712      39   50718
   50715      40   50724   50721      39   50727   50721      39   50727   50724
      40   50733   50730      39   50736   50730      39   50736   50733      40
   50742   50739      39   50745   50739      39   50745   50742      40   50751
   50748      39   50754   50748      39   50754   50751      40   50760   50757
      39   50763   50757      39   50763   50760      40   50769   50766      39
   50772   50766      39   50772   50769      40   50778   50775      39   50781
   50775      39   50781   50778      40   50787   50784      39   50790   50784
      39   50790   50787      40   50796   50793      39   50799   50793      39
   50799   50796      40   50805   50802      39   50808   50802      39   50808
   50805      40   50814   50811      39   50817   50811      39   50817   50814
      40   50823   50820      39   50826   50820      39   50826   50823      40
   50832   50829      39   50835   50829      39   50835   50832      40   50841
   50838      39   50844   50838      39   50844   50841      40   50850   50847
      39   50853   50847      39   50853   50850      40   50859   50856      39
   50862   50856      39   50862   50859      40   50868   50865      39   50871
   50865      39   50871   50868      40   50877   50874      39   50880   50874
      39   50880   50877      40   50886   50883      39   50889   50883      39
   50889   50886      40   50895   50892      39   50898   50892      39   50898
   50895      40   50904   50901      39   50907   50901      39   50907   50904
      40   50913   50910      39   50916   50910      39   50916   50913      40
   50922   50919      39   50925   50919      39   50925   50922      40   50931
   50928      39   50934   50928      39   50934   50931      40   50940   50937
      39   50943   50937      39   50943   50940      40   50949   50946      39
   50952   50946      39   50952   50949      40   50958   50955      39   50961
   50955      39   50961   50958      40   50967   50964      39   50970   50964
      39   50970   50967      40   50976   50973      39   50979   50973      39
   50979   50976      40   50985   50982      39   50988   50982      39   50988
   50985      40   50994   50991      39   50997   50991      39   50997   50994
      40   51003   51000      39   51006   51000      39   51006   51003      40
   51012   51009      39   51015   51009      39   51015   51012      40   51021
   51018      39   51024   51018      39   51024   51021      40   51030   51027
      39   51033   51027      39   51033   51030      40   51039   51036      39
   51042   51036      39   51042   51039      40   51048   51045      39   51051
   51045      39   51051   51048      40   51057   51054      39   51060   51054
      39   51060   51057      40   51066   51063      39   51069   51063      39
   51069   51066      40   51075   51072      39   51078   51072      39   51078
   51075      40   51084   51081      39   51087   51081      39   51087   51084
      40   51093   51090      39   51096   51090      39   51096   51093      40
   51102   51099      39   51105   51099      39   51105   51102      40   51111
   51108      39   51114   51108      39   51114   51111      40   51120   51117
      39   51123   51117      39   51123   51120      40   51129   51126      39
   51132   51126      39   51132   51129      40   51138   51135      39   51141
   51135      39   51141   51138      40   51147   51144      39   51150   51144
      39   51150   51147      40   51156   51153      39   51159   51153      39
   51159   51156      40   51165   51162      39   51168   51162      39   51168
   51165      40   51174   51171      39   51177   51171      39   51177   51174
      40   51183   51180      39   51186   51180      39   51186   51183      40
   51192   51189      39   51195   51189      39   51195   51192      40   51201
   51198      39   51204   51198      39   51204   51201      40   51210   51207
      39   51213   51207      39   51213   51210      40   51219   51216      39
   51222   51216      39   51222   51219      40   51228   51225      39   51231
   51225      39   51231   51228      40   51237   51234      39   51240   51234
      39   51240   51237      40   51246   51243      39   51249   51243      39
   51249   51246      40   51255   51252      39   51258   51252      39   51258
   51255      40   51264   51261      39   51267   51261      39   51267   51264
      40   51273   51270      39   51276   51270      39   51276   51273      40
   51282   51279      39   51285   51279      39   51285   51282      40   51291
   51288      39   51294   51288      39   51294   51291      40   51300   51297
      39   51303   51297      39   51303   51300      40   51309   51306      39
   51312   51306      39   51312   51309      40   51318   51315      39   51321
   51315      39   51321   51318      40   51327   51324      39   51330   51324
      39   51330   51327      40   51336   51333      39   51339   51333      39
   51339   51336      40   51345   51342      39   51348   51342      39   51348
   51345      40   51354   51351      39   51357   51351      39   51357   51354
      40   51363   51360      39   51366   51360      39   51366   51363      40
   51372   51369      39   51375   51369      39   51375   51372      40   51381
   51378      39   51384   51378      39   51384   51381      40   51390   51387
      39   51393   51387      39   51393   51390      40   51399   51396      39
   51402   51396      39   51402   51399      40   51408   51405      39   51411
   51405      39   51411   51408      40   51417   51414      39   51420   51414
      39   51420   51417      40   51426   51423      39   51429   51423      39
   51429   51426      40   51435   51432      39   51438   51432      39   51438
   51435      40   51444   51441      39   51447   51441      39   51447   51444
      40   51453   51450      39   51456   51450      39   51456   51453      40
   51462   51459      39   51465   51459      39   51465   51462      40   51471
   51468      39   51474   51468      39   51474   51471      40   51480   51477
      39   51483   51477      39   51483   51480      40   51489   51486      39
   51492   51486      39   51492   51489      40   51498   51495      39   51501
   51495      39   51501   51498      40   51507   51504      39   51510   51504
      39   51510   51507      40   51516   51513      39   51519   51513      39
   51519   51516      40   51525   51522      39   51528   51522      39   51528
   51525      40   51534   51531      39   51537   51531      39   51537   51534
      40   51543   51540      39   51546   51540      39   51546   51543      40
   51552   51549      39   51555   51549      39   51555   51552      40   51561
   51558      39   51564   51558      39   51564   51561      40   51570   51567
      39   51573   51567      39   51573   51570      40   51579   51576      39
   51582   51576      39   51582   51579      40   51588   51585      39   51591
   51585      39   51591   51588      40   51597   51594      39   51600   51594
      39   51600   51597      40   51606   51603      39   51609   51603      39
   51609   51606      40   51615   51612      39   51618   51612      39   51618
   51615      40   51624   51621      39   51627   51621      39   51627   51624
      40   51633   51630      39   51636   51630      39   51636   51633      40
   51642   51639      39   51645   51639      39   51645   51642      40   51651
   51648      39   51654   51648      39   51654   51651      40   51660   51657
      39   51663   51657      39   51663   51660      40   51669   51666      39
   51672   51666      39   51672   51669      40   51678   51675      39   51681
   51675      39   51681   51678      40   51687   51684      39   51690   51684
      39   51690   51687      40   51696   51693      39   51699   51693      39
   51699   51696      40   51705   51702      39   51708   51702      39   51708
   51705      40   51714   51711      39   51717   51711      39   51717   51714
      40   51723   51720      39   51726   51720      39   51726   51723      40
   51732   51729      39   51735   51729      39   51735   51732      40   51741
   51738      39   51744   51738      39   51744   51741      40   51750   51747
      39   51753   51747      39   51753   51750      40   51759   51756      39
   51762   51756      39   51762   51759      40   51768   51765      39   51771
   51765      39   51771   51768      40   51777   51774      39   51780   51774
      39   51780   51777      40   51786   51783      39   51789   51783      39
   51789   51786      40   51795   51792      39   51798   51792      39   51798
   51795      40   51804   51801      39   51807   51801      39   51807   51804
      40   51813   51810      39   51816   51810      39   51816   51813      40
   51822   51819      39   51825   51819      39   51825   51822      40   51831
   51828      39   51834   51828      39   51834   51831      40   51840   51837
      39   51843   51837      39   51843   51840      40   51849   51846      39
   51852   51846      39   51852   51849      40   51858   51855      39   51861
   51855      39   51861   51858      40   51867   51864      39   51870   51864
      39   51870   51867      40   51876   51873      39   51879   51873      39
   51879   51876      40   51885   51882      39   51888   51882      39   51888
   51885      40   51894   51891      39   51897   51891      39   51897   51894
      40   51903   51900      39   51906   51900      39   51906   51903      40
   51912   51909      39   51915   51909      39   51915   51912      40   51921
   51918      39   51924   51918      39   51924   51921      40   51930   51927
      39   51933   51927      39   51933   51930      40   51939   51936      39
   51942   51936      39   51942   51939      40   51948   51945      39   51951
   51945      39   51951   51948      40   51957   51954      39   51960   51954
      39   51960   51957      40   51966   51963      39   51969   51963      39
   51969   51966      40   51975   51972      39   51978   51972      39   51978
   51975      40   51984   51981      39   51987   51981      39   51987   51984
      40   51993   51990      39   51996   51990      39   51996   51993      40
   52002   51999      39   52005   51999      39   52005   52002      40   52011
   52008      39   52014   52008      39   52014   52011      40   52020   52017
      39   52023   52017      39   52023   52020      40   52029   52026      39
   52032   52026      39   52032   52029      40   52038   52035      39   52041
   52035      39   52041   52038      40   52047   52044      39   52050   52044
      39   52050   52047      40   52056   52053      39   52059   52053      39
   52059   52056      40   52065   52062      39   52068   52062      39   52068
   52065      40   52074   52071      39   52077   52071      39   52077   52074
      40   52083   52080      39   52086   52080      39   52086   52083      40
   52092   52089      39   52095   52089      39   52095   52092      40   52101
   52098      39   52104   52098      39   52104   52101      40   52110   52107
      39   52113   52107      39   52113   52110      40   52119   52116      39
   52122   52116      39   52122   52119      40   52128   52125      39   52131
   52125      39   52131   52128      40   52137   52134      39   52140   52134
      39   52140   52137      40   52146   52143      39   52149   52143      39
   52149   52146      40   52155   52152      39   52158   52152      39   52158
   52155      40   52164   52161      39   52167   52161      39   52167   52164
      40   52173   52170      39   52176   52170      39   52176   52173      40
   52182   52179      39   52185   52179      39   52185   52182      40   52191
   52188      39   52194   52188      39   52194   52191      40   52200   52197
      39   52203   52197      39   52203   52200      40   52209   52206      39
   52212   52206      39   52212   52209      40   52218   52215      39   52221
   52215      39   52221   52218      40   52227   52224      39   52230   52224
      39   52230   52227      40   52236   52233      39   52239   52233      39
   52239   52236      40   52245   52242      39   52248   52242      39   52248
   52245      40   52254   52251      39   52257   52251      39   52257   52254
      40   52263   52260      39   52266   52260      39   52266   52263      40
   52272   52269      39   52275   52269      39   52275   52272      40   52281
   52278      39   52284   52278      39   52284   52281      40   52290   52287
      39   52293   52287      39   52293   52290      40   52299   52296      39
   52302   52296      39   52302   52299      40   52308   52305      39   52311
   52305      39   52311   52308      40   52317   52314      39   52320   52314
      39   52320   52317      40   52326   52323      39   52329   52323      39
   52329   52326      40   52335   52332      39   52338   52332      39   52338
   52335      40   52344   52341      39   52347   52341      39   52347   52344
      40   52353   52350      39   52356   52350      39   52356   52353      40
   52362   52359      39   52365   52359      39   52365   52362      40   52371
   52368      39   52374   52368      39   52374   52371      40   52380   52377
      39   52383   52377      39   52383   52380      40   52389   52386      39
   52392   52386      39   52392   52389      40   52398   52395      39   52401
   52395      39   52401   52398      40   52407   52404      39   52410   52404
      39   52410   52407      40   52416   52413      39   52419   52413      39
   52419   52416      40   52425   52422      39   52428   52422      39   52428
   52425      40   52434   52431      39   52437   52431      39   52437   52434
      40   52443   52440      39   52446   52440      39   52446   52443      40
   52452   52449      39   52455   52449      39   52455   52452      40   52461
   52458      39   52464   52458      39   52464   52461      40   52470   52467
      39   52473   52467      39   52473   52470      40   52479   52476      39
   52482   52476      39   52482   52479      40   52488   52485      39   52491
   52485      39   52491   52488      40   52497   52494      39   52500   52494
      39   52500   52497      40   52506   52503      39   52509   52503      39
   52509   52506      40   52515   52512      39   52518   52512      39   52518
   52515      40   52524   52521      39   52527   52521      39   52527   52524
      40   52533   52530      39   52536   52530      39   52536   52533      40
   52542   52539      39   52545   52539      39   52545   52542      40   52551
   52548      39   52554   52548      39   52554   52551      40   52560   52557
      39   52563   52557      39   52563   52560      40   52569   52566      39
   52572   52566      39   52572   52569      40   52578   52575      39   52581
   52575      39   52581   52578      40   52587   52584      39   52590   52584
      39   52590   52587      40   52596   52593      39   52599   52593      39
   52599   52596      40   52605   52602      39   52608   52602      39   52608
   52605      40   52614   52611      39   52617   52611      39   52617   52614
      40   52623   52620      39   52626   52620      39   52626   52623      40
   52632   52629      39   52635   52629      39   52635   52632      40   52641
   52638      39   52644   52638      39   52644   52641      40   52650   52647
      39   52653   52647      39   52653   52650      40   52659   52656      39
   52662   52656      39   52662   52659      40   52668   52665      39   52671
   52665      39   52671   52668      40   52677   52674      39   52680   52674
      39   52680   52677      40   52686   52683      39   52689   52683      39
   52689   52686      40   52695   52692      39   52698   52692      39   52698
   52695      40   52704   52701      39   52707   52701      39   52707   52704
      40   52713   52710      39   52716   52710      39   52716   52713      40
   52722   52719      39   52725   52719      39   52725   52722      40   52731
   52728      39   52734   52728      39   52734   52731      40   52740   52737
      39   52743   52737      39   52743   52740      40   52749   52746      39
   52752   52746      39   52752   52749      40   52758   52755      39   52761
   52755      39   52761   52758      40   52767   52764      39   52770   52764
      39   52770   52767      40   52776   52773      39   52779   52773      39
   52779   52776      40   52785   52782      39   52788   52782      39   52788
   52785      40   52794   52791      39   52797   52791      39   52797   52794
      40   52803   52800      39   52806   52800      39   52806   52803      40
   52812   52809      39   52815   52809      39   52815   52812      40   52821
   52818      39   52824   52818      39   52824   52821      40   52830   52827
      39   52833   52827      39   52833   52830      40   52839   52836      39
   52842   52836      39   52842   52839      40   52848   52845      39   52851
   52845      39   52851   52848      40   52857   52854      39   52860   52854
      39   52860   52857      40   52866   52863      39   52869   52863      39
   52869   52866      40   52875   52872      39   52878   52872      39   52878
   52875      40   52884   52881      39   52887   52881      39   52887   52884
      40   52893   52890      39   52896   52890      39   52896   52893      40
   52902   52899      39   52905   52899      39   52905   52902      40   52911
   52908      39   52914   52908      39   52914   52911      40   52920   52917
      39   52923   52917      39   52923   52920      40   52929   52926      39
   52932   52926      39   52932   52929      40   52938   52935      39   52941
   52935      39   52941   52938      40   52947   52944      39   52950   52944
      39   52950   52947      40   52956   52953      39   52959   52953      39
   52959   52956      40   52965   52962      39   52968   52962      39   52968
   52965      40   52974   52971      39   52977   52971      39   52977   52974
      40   52983   52980      39   52986   52980      39   52986   52983      40
   52992   52989      39   52995   52989      39   52995   52992      40   53001
   52998      39   53004   52998      39   53004   53001      40   53010   53007
      39   53013   53007      39   53013   53010      40   53019   53016      39
   53022   53016      39   53022   53019      40   53028   53025      39   53031
   53025      39   53031   53028      40   53037   53034      39   53040   53034
      39   53040   53037      40   53046   53043      39   53049   53043      39
   53049   53046      40   53055   53052      39   53058   53052      39   53058
   53055      40   53064   53061      39   53067   53061      39   53067   53064
      40   53073   53070      39   53076   53070      39   53076   53073      40
   53082   53079      39   53085   53079      39   53085   53082      40   53091
   53088      39   53094   53088      39   53094   53091      40   53100   53097
      39   53103   53097      39   53103   53100      40   53109   53106      39
   53112   53106      39   53112   53109      40   53118   53115      39   53121
   53115      39   53121   53118      40   53127   53124      39   53130   53124
      39   53130   53127      40   53136   53133      39   53139   53133      39
   53139   53136      40   53145   53142      39   53148   53142      39   53148
   53145      40   53154   53151      39   53157   53151      39   53157   53154
      40   53163   53160      39   53166   53160      39   53166   53163      40
   53172   53169      39   53175   53169      39   53175   53172      40   53181
   53178      39   53184   53178      39   53184   53181      40   53190   53187
      39   53193   53187      39   53193   53190      40   53199   53196      39
   53202   53196      39   53202   53199      40   53208   53205      39   53211
   53205      39   53211   53208      40   53217   53214      39   53220   53214
      39   53220   53217      40   53226   53223      39   53229   53223      39
   53229   53226      40   53235   53232      39   53238   53232      39   53238
   53235      40   53244   53241      39   53247   53241      39   53247   53244
      40   53253   53250      39   53256   53250      39   53256   53253      40
   53262   53259      39   53265   53259      39   53265   53262      40   53271
   53268      39   53274   53268      39   53274   53271      40   53280   53277
      39   53283   53277      39   53283   53280      40   53289   53286      39
   53292   53286      39   53292   53289      40   53298   53295      39   53301
   53295      39   53301   53298      40   53307   53304      39   53310   53304
      39   53310   53307      40   53316   53313      39   53319   53313      39
   53319   53316      40   53325   53322      39   53328   53322      39   53328
   53325      40   53334   53331      39   53337   53331      39   53337   53334
      40   53343   53340      39   53346   53340      39   53346   53343      40
   53352   53349      39   53355   53349      39   53355   53352      40   53361
   53358      39   53364   53358      39   53364   53361      40   53370   53367
      39   53373   53367      39   53373   53370      40   53379   53376      39
   53382   53376      39   53382   53379      40   53388   53385      39   53391
   53385      39   53391   53388      40   53397   53394      39   53400   53394
      39   53400   53397      40   53406   53403      39   53409   53403      39
   53409   53406      40   53415   53412      39   53418   53412      39   53418
   53415      40   53424   53421      39   53427   53421      39   53427   53424
      40   53433   53430      39   53436   53430      39   53436   53433      40
   53442   53439      39   53445   53439      39   53445   53442      40   53451
   53448      39   53454   53448      39   53454   53451      40   53460   53457
      39   53463   53457      39   53463   53460      40   53469   53466      39
   53472   53466      39   53472   53469      40   53478   53475      39   53481
   53475      39   53481   53478      40   53487   53484      39   53490   53484
      39   53490   53487      40   53496   53493      39   53499   53493      39
   53499   53496      40   53505   53502      39   53508   53502      39   53508
   53505      40   53514   53511      39   53517   53511      39   53517   53514
      40   53523   53520      39   53526   53520      39   53526   53523      40
   53532   53529      39   53535   53529      39   53535   53532      40   53541
   53538      39   53544   53538      39   53544   53541      40   53550   53547
      39   53553   53547      39   53553   53550      40   53559   53556      39
   53562   53556      39   53562   53559      40   53568   53565      39   53571
   53565      39   53571   53568      40   53577   53574      39   53580   53574
      39   53580   53577      40   53586   53583      39   53589   53583      39
   53589   53586      40   53595   53592      39   53598   53592      39   53598
   53595      40   53604   53601      39   53607   53601      39   53607   53604
      40   53613   53610      39   53616   53610      39   53616   53613      40
   53622   53619      39   53625   53619      39   53625   53622      40   53631
   53628      39   53634   53628      39   53634   53631      40   53640   53637
      39   53643   53637      39   53643   53640      40   53649   53646      39
   53652   53646      39   53652   53649      40   53658   53655      39   53661
   53655      39   53661   53658      40   53667   53664      39   53670   53664
      39   53670   53667      40   53676   53673      39   53679   53673      39
   53679   53676      40   53685   53682      39   53688   53682      39   53688
   53685      40   53694   53691      39   53697   53691      39   53697   53694
      40   53703   53700      39   53706   53700      39   53706   53703      40
   53712   53709      39   53715   53709      39   53715   53712      40   53721
   53718      39   53724   53718      39   53724   53721      40   53730   53727
      39   53733   53727      39   53733   53730      40   53739   53736      39
   53742   53736      39   53742   53739      40   53748   53745      39   53751
   53745      39   53751   53748      40   53757   53754      39   53760   53754
      39   53760   53757      40   53766   53763      39   53769   53763      39
   53769   53766      40   53775   53772      39   53778   53772      39   53778
   53775      40   53784   53781      39   53787   53781      39   53787   53784
      40   53793   53790      39   53796   53790      39   53796   53793      40
   53802   53799      39   53805   53799      39   53805   53802      40   53811
   53808      39   53814   53808      39   53814   53811      40   53820   53817
      39   53823   53817      39   53823   53820      40   53829   53826      39
   53832   53826      39   53832   53829      40   53838   53835      39   53841
   53835      39   53841   53838      40   53847   53844      39   53850   53844
      39   53850   53847      40   53856   53853      39   53859   53853      39
   53859   53856      40   53865   53862      39   53868   53862      39   53868
   53865      40   53874   53871      39   53877   53871      39   53877   53874
      40   53883   53880      39   53886   53880      39   53886   53883      40
   53892   53889      39   53895   53889      39   53895   53892      40   53901
   53898      39   53904   53898      39   53904   53901      40   53910   53907
      39   53913   53907      39   53913   53910      40   53919   53916      39
   53922   53916      39   53922   53919      40   53928   53925      39   53931
   53925      39   53931   53928      40   53937   53934      39   53940   53934
      39   53940   53937      40   53946   53943      39   53949   53943      39
   53949   53946      40   53955   53952      39   53958   53952      39   53958
   53955      40   53964   53961      39   53967   53961      39   53967   53964
      40   53973   53970      39   53976   53970      39   53976   53973      40
   53982   53979      39   53985   53979      39   53985   53982      40   53991
   53988      39   53994   53988      39   53994   53991      40   54000   53997
      39   54003   53997      39   54003   54000      40   54009   54006      39
   54012   54006      39   54012   54009      40   54018   54015      39   54021
   54015      39   54021   54018      40   54027   54024      39   54030   54024
      39   54030   54027      40   54036   54033      39   54039   54033      39
   54039   54036      40   54045   54042      39   54048   54042      39   54048
   54045      40   54054   54051      39   54057   54051      39   54057   54054
      40   54063   54060      39   54066   54060      39   54066   54063      40
   54072   54069      39   54075   54069      39   54075   54072      40   54081
   54078      39   54084   54078      39   54084   54081      40   54090   54087
      39   54093   54087      39   54093   54090      40   54099   54096      39
   54102   54096      39   54102   54099      40   54108   54105      39   54111
   54105      39   54111   54108      40   54117   54114      39   54120   54114
      39   54120   54117      40   54126   54123      39   54129   54123      39
   54129   54126      40   54135   54132      39   54138   54132      39   54138
   54135      40   54144   54141      39   54147   54141      39   54147   54144
      40   54153   54150      39   54156   54150      39   54156   54153      40
   54162   54159      39   54165   54159      39   54165   54162      40   54171
   54168      39   54174   54168      39   54174   54171      40   54180   54177
      39   54183   54177      39   54183   54180      40   54189   54186      39
   54192   54186      39   54192   54189      40   54198   54195      39   54201
   54195      39   54201   54198      40   54207   54204      39   54210   54204
      39   54210   54207      40   54216   54213      39   54219   54213      39
   54219   54216      40   54225   54222      39   54228   54222      39   54228
   54225      40   54234   54231      39   54237   54231      39   54237   54234
      40   54243   54240      39   54246   54240      39   54246   54243      40
   54252   54249      39   54255   54249      39   54255   54252      40   54261
   54258      39   54264   54258      39   54264   54261      40   54270   54267
      39   54273   54267      39   54273   54270      40   54279   54276      39
   54282   54276      39   54282   54279      40   54288   54285      39   54291
   54285      39   54291   54288      40   54297   54294      39   54300   54294
      39   54300   54297      40   54306   54303      39   54309   54303      39
   54309   54306      40   54315   54312      39   54318   54312      39   54318
   54315      40   54324   54321      39   54327   54321      39   54327   54324
      40   54333   54330      39   54336   54330      39   54336   54333      40
   54342   54339      39   54345   54339      39   54345   54342      40   54351
   54348      39   54354   54348      39   54354   54351      40   54360   54357
      39   54363   54357      39   54363   54360      40   54369   54366      39
   54372   54366      39   54372   54369      40   54378   54375      39   54381
   54375      39   54381   54378      40   54387   54384      39   54390   54384
      39   54390   54387      40   54396   54393      39   54399   54393      39
   54399   54396      40   54405   54402      39   54408   54402      39   54408
   54405      40   54414   54411      39   54417   54411      39   54417   54414
      40   54423   54420      39   54426   54420      39   54426   54423      40
   54432   54429      39   54435   54429      39   54435   54432      40   54441
   54438      39   54444   54438      39   54444   54441      40   54450   54447
      39   54453   54447      39   54453   54450      40   54459   54456      39
   54462   54456      39   54462   54459      40   54468   54465      39   54471
   54465      39   54471   54468      40   54477   54474      39   54480   54474
      39   54480   54477      40   54486   54483      39   54489   54483      39
   54489   54486      40   54495   54492      39   54498   54492      39   54498
   54495      40   54504   54501      39   54507   54501      39   54507   54504
      40   54513   54510      39   54516   54510      39   54516   54513      40
   54522   54519      39   54525   54519      39   54525   54522      40   54531
   54528      39   54534   54528      39   54534   54531      40   54540   54537
      39   54543   54537      39   54543   54540      40   54549   54546      39
   54552   54546      39   54552   54549      40   54558   54555      39   54561
   54555      39   54561   54558      40   54567   54564      39   54570   54564
      39   54570   54567      40   54576   54573      39   54579   54573      39
   54579   54576      40   54585   54582      39   54588   54582      39   54588
   54585      40   54594   54591      39   54597   54591      39   54597   54594
      40   54603   54600      39   54606   54600      39   54606   54603      40
   54612   54609      39   54615   54609      39   54615   54612      40   54621
   54618      39   54624   54618      39   54624   54621      40   54630   54627
      39   54633   54627      39   54633   54630      40   54639   54636      39
   54642   54636      39   54642   54639      40   54648   54645      39   54651
   54645      39   54651   54648      40   54657   54654      39   54660   54654
      39   54660   54657      40   54666   54663      39   54669   54663      39
   54669   54666      40   54675   54672      39   54678   54672      39   54678
   54675      40   54684   54681      39   54687   54681      39   54687   54684
      40   54693   54690      39   54696   54690      39   54696   54693      40
   54702   54699      39   54705   54699      39   54705   54702      40   54711
   54708      39   54714   54708      39   54714   54711      40   54720   54717
      39   54723   54717      39   54723   54720      40   54729   54726      39
   54732   54726      39   54732   54729      40   54738   54735      39   54741
   54735      39   54741   54738      40   54747   54744      39   54750   54744
      39   54750   54747      40   54756   54753      39   54759   54753      39
   54759   54756      40   54765   54762      39   54768   54762      39   54768
   54765      40   54774   54771      39   54777   54771      39   54777   54774
      40   54783   54780      39   54786   54780      39   54786   54783      40
   54792   54789      39   54795   54789      39   54795   54792      40   54801
   54798      39   54804   54798      39   54804   54801      40   54810   54807
      39   54813   54807      39   54813   54810      40   54819   54816      39
   54822   54816      39   54822   54819      40   54828   54825      39   54831
   54825      39   54831   54828      40   54837   54834      39   54840   54834
      39   54840   54837      40   54846   54843      39   54849   54843      39
   54849   54846      40   54855   54852      39   54858   54852      39   54858
   54855      40   54864   54861      39   54867   54861      39   54867   54864
      40   54873   54870      39   54876   54870      39   54876   54873      40
   54882   54879      39   54885   54879      39   54885   54882      40   54891
   54888      39   54894   54888      39   54894   54891      40   54900   54897
      39   54903   54897      39   54903   54900      40   54909   54906      39
   54912   54906      39   54912   54909      40   54918   54915      39   54921
   54915      39   54921   54918      40   54927   54924      39   54930   54924
      39   54930   54927      40   54936   54933      39   54939   54933      39
   54939   54936      40   54945   54942      39   54948   54942      39   54948
   54945      40   54954   54951      39   54957   54951      39   54957   54954
      40   54963   54960      39   54966   54960      39   54966   54963      40
   54972   54969      39   54975   54969      39   54975   54972      40   54981
   54978      39   54984   54978      39   54984   54981      40   54990   54987
      39   54993   54987      39   54993   54990      40   54999   54996      39
   55002   54996      39   55002   54999      40   55008   55005      39   55011
   55005      39   55011   55008      40   55017   55014      39   55020   55014
      39   55020   55017      40   55026   55023      39   55029   55023      39
   55029   55026      40   55035   55032      39   55038   55032      39   55038
   55035      40   55044   55041      39   55047   55041      39   55047   55044
      40   55053   55050      39   55056   55050      39   55056   55053      40
   55062   55059      39   55065   55059      39   55065   55062      40   55071
   55068      39   55074   55068      39   55074   55071      40   55080   55077
      39   55083   55077      39   55083   55080      40   55089   55086      39
   55092   55086      39   55092   55089      40   55098   55095      39   55101
   55095      39   55101   55098      40   55107   55104      39   55110   55104
      39   55110   55107      40   55116   55113      39   55119   55113      39
   55119   55116      40   55125   55122      39   55128   55122      39   55128
   55125      40   55134   55131      39   55137   55131      39   55137   55134
      40   55143   55140      39   55146   55140      39   55146   55143      40
   55152   55149      39   55155   55149      39   55155   55152      40   55161
   55158      39   55164   55158      39   55164   55161      40   55170   55167
      39   55173   55167      39   55173   55170      40   55179   55176      39
   55182   55176      39   55182   55179      40   55188   55185      39   55191
   55185      39   55191   55188      40   55197   55194      39   55200   55194
      39   55200   55197      40   55206   55203      39   55209   55203      39
   55209   55206      40   55215   55212      39   55218   55212      39   55218
   55215      40   55224   55221      39   55227   55221      39   55227   55224
      40   55233   55230      39   55236   55230      39   55236   55233      40
   55242   55239      39   55245   55239      39   55245   55242      40   55251
   55248      39   55254   55248      39   55254   55251      40   55260   55257
      39   55263   55257      39   55263   55260      40   55269   55266      39
   55272   55266      39   55272   55269      40   55278   55275      39   55281
   55275      39   55281   55278      40   55287   55284      39   55290   55284
      39   55290   55287      40   55296   55293      39   55299   55293      39
   55299   55296      40   55305   55302      39   55308   55302      39   55308
   55305      40   55314   55311      39   55317   55311      39   55317   55314
      40   55323   55320      39   55326   55320      39   55326   55323      40
   55332   55329      39   55335   55329      39   55335   55332      40   55341
   55338      39   55344   55338      39   55344   55341      40   55350   55347
      39   55353   55347      39   55353   55350      40   55359   55356      39
   55362   55356      39   55362   55359      40   55368   55365      39   55371
   55365      39   55371   55368      40   55377   55374      39   55380   55374
      39   55380   55377      40   55386   55383      39   55389   55383      39
   55389   55386      40   55395   55392      39   55398   55392      39   55398
   55395      40   55404   55401      39   55407   55401      39   55407   55404
      40   55413   55410      39   55416   55410      39   55416   55413      40
   55422   55419      39   55425   55419      39   55425   55422      40   55431
   55428      39   55434   55428      39   55434   55431      40   55440   55437
      39   55443   55437      39   55443   55440      40   55449   55446      39
   55452   55446      39   55452   55449      40   55458   55455      39   55461
   55455      39   55461   55458      40   55467   55464      39   55470   55464
      39   55470   55467      40   55476   55473      39   55479   55473      39
   55479   55476      40   55485   55482      39   55488   55482      39   55488
   55485      40   55494   55491      39   55497   55491      39   55497   55494
      40   55503   55500      39   55506   55500      39   55506   55503      40
   55512   55509      39   55515   55509      39   55515   55512      40   55521
   55518      39   55524   55518      39   55524   55521      40   55530   55527
      39   55533   55527      39   55533   55530      40   55539   55536      39
   55542   55536      39   55542   55539      40   55548   55545      39   55551
   55545      39   55551   55548      40   55557   55554      39   55560   55554
      39   55560   55557      40   55566   55563      39   55569   55563      39
   55569   55566      40   55575   55572      39   55578   55572      39   55578
   55575      40   55584   55581      39   55587   55581      39   55587   55584
      40   55593   55590      39   55596   55590      39   55596   55593      40
   55602   55599      39   55605   55599      39   55605   55602      40   55611
   55608      39   55614   55608      39   55614   55611      40   55620   55617
      39   55623   55617      39   55623   55620      40   55629   55626      39
   55632   55626      39   55632   55629      40   55638   55635      39   55641
   55635      39   55641   55638      40   55647   55644      39   55650   55644
      39   55650   55647      40   55656   55653      39   55659   55653      39
   55659   55656      40   55665   55662      39   55668   55662      39   55668
   55665      40   55674   55671      39   55677   55671      39   55677   55674
      40   55683   55680      39   55686   55680      39   55686   55683      40
   55692   55689      39   55695   55689      39   55695   55692      40   55701
   55698      39   55704   55698      39   55704   55701      40   55710   55707
      39   55713   55707      39   55713   55710      40   55719   55716      39
   55722   55716      39   55722   55719      40   55728   55725      39   55731
   55725      39   55731   55728      40   55737   55734      39   55740   55734
      39   55740   55737      40   55746   55743      39   55749   55743      39
   55749   55746      40   55755   55752      39   55758   55752      39   55758
   55755      40   55764   55761      39   55767   55761      39   55767   55764
      40   55773   55770      39   55776   55770      39   55776   55773      40
   55782   55779      39   55785   55779      39   55785   55782      40   55791
   55788      39   55794   55788      39   55794   55791      40   55800   55797
      39   55803   55797      39   55803   55800      40   55809   55806      39
   55812   55806      39   55812   55809      40   55818   55815      39   55821
   55815      39   55821   55818      40   55827   55824      39   55830   55824
      39   55830   55827      40   55836   55833      39   55839   55833      39
   55839   55836      40   55845   55842      39   55848   55842      39   55848
   55845      40   55854   55851      39   55857   55851      39   55857   55854
      40   55863   55860      39   55866   55860      39   55866   55863      40
   55872   55869      39   55875   55869      39   55875   55872      40   55881
   55878      39   55884   55878      39   55884   55881      40   55890   55887
      39   55893   55887      39   55893   55890      40   55899   55896      39
   55902   55896      39   55902   55899      40   55908   55905      39   55911
   55905      39   55911   55908      40   55917   55914      39   55920   55914
      39   55920   55917      40   55926   55923      39   55929   55923      39
   55929   55926      40   55935   55932      39   55938   55932      39   55938
   55935      40   55944   55941      39   55947   55941      39   55947   55944
      40   55953   55950      39   55956   55950      39   55956   55953      40
   55962   55959      39   55965   55959      39   55965   55962      40   55971
   55968      39   55974   55968      39   55974   55971      40   55980   55977
      39   55983   55977      39   55983   55980      40   55989   55986      39
   55992   55986      39   55992   55989      40   55998   55995      39   56001
   55995      39   56001   55998      40   56007   56004      39   56010   56004
      39   56010   56007      40   56016   56013      39   56019   56013      39
   56019   56016      40   56025   56022      39   56028   56022      39   56028
   56025      40   56034   56031      39   56037   56031      39   56037   56034
      40   56043   56040      39   56046   56040      39   56046   56043      40
   56052   56049      39   56055   56049      39   56055   56052      40   56061
   56058      39   56064   56058      39   56064   56061      40   56070   56067
      39   56073   56067      39   56073   56070      40   56079   56076      39
   56082   56076      39   56082   56079      40   56088   56085      39   56091
   56085      39   56091   56088      40   56097   56094      39   56100   56094
      39   56100   56097      40   56106   56103      39   56109   56103      39
   56109   56106      40   56115   56112      39   56118   56112      39   56118
   56115      40   56124   56121      39   56127   56121      39   56127   56124
      40   56133   56130      39   56136   56130      39   56136   56133      40
   56142   56139      39   56145   56139      39   56145   56142      40   56151
   56148      39   56154   56148      39   56154   56151      40   56160   56157
      39   56163   56157      39   56163   56160      40   56169   56166      39
   56172   56166      39   56172   56169      40   56178   56175      39   56181
   56175      39   56181   56178      40   56187   56184      39   56190   56184
      39   56190   56187      40   56196   56193      39   56199   56193      39
   56199   56196      40   56205   56202      39   56208   56202      39   56208
   56205      40   56214   56211      39   56217   56211      39   56217   56214
      40   56223   56220      39   56226   56220      39   56226   56223      40
   56232   56229      39   56235   56229      39   56235   56232      40   56241
   56238      39   56244   56238      39   56244   56241      40   56250   56247
      39   56253   56247      39   56253   56250      40   56259   56256      39
   56262   56256      39   56262   56259      40   56268   56265      39   56271
   56265      39   56271   56268      40   56277   56274      39   56280   56274
      39   56280   56277      40   56286   56283      39   56289   56283      39
   56289   56286      40   56295   56292      39   56298   56292      39   56298
   56295      40   56304   56301      39   56307   56301      39   56307   56304
      40   56313   56310      39   56316   56310      39   56316   56313      40
   56322   56319      39   56325   56319      39   56325   56322      40   56331
   56328      39   56334   56328      39   56334   56331      40   56340   56337
      39   56343   56337      39   56343   56340      40   56349   56346      39
   56352   56346      39   56352   56349      40   56358   56355      39   56361
   56355      39   56361   56358      40   56367   56364      39   56370   56364
      39   56370   56367      40   56376   56373      39   56379   56373      39
   56379   56376      40   56385   56382      39   56388   56382      39   56388
   56385      40   56394   56391      39   56397   56391      39   56397   56394
      40   56403   56400      39   56406   56400      39   56406   56403      40
   56412   56409      39   56415   56409      39   56415   56412      40   56421
   56418      39   56424   56418      39   56424   56421      40   56430   56427
      39   56433   56427      39   56433   56430      40   56439   56436      39
   56442   56436      39   56442   56439      40   56448   56445      39   56451
   56445      39   56451   56448      40   56457   56454      39   56460   56454
      39   56460   56457      40   56466   56463      39   56469   56463      39
   56469   56466      40   56475   56472      39   56478   56472      39   56478
   56475      40   56484   56481      39   56487   56481      39   56487   56484
      40   56493   56490      39   56496   56490      39   56496   56493      40
   56502   56499      39   56505   56499      39   56505   56502      40   56511
   56508      39   56514   56508      39   56514   56511      40   56520   56517
      39   56523   56517      39   56523   56520      40   56529   56526      39
   56532   56526      39   56532   56529      40   56538   56535      39   56541
   56535      39   56541   56538      40   56547   56544      39   56550   56544
      39   56550   56547      40   56556   56553      39   56559   56553      39
   56559   56556      40   56565   56562      39   56568   56562      39   56568
   56565      40   56574   56571      39   56577   56571      39   56577   56574
      40   56583   56580      39   56586   56580      39   56586   56583      40
   56592   56589      39   56595   56589      39   56595   56592      40   56601
   56598      39   56604   56598      39   56604   56601      40   56610   56607
      39   56613   56607      39   56613   56610      40   56619   56616      39
   56622   56616      39   56622   56619      40   56628   56625      39   56631
   56625      39   56631   56628      40   56637   56634      39   56640   56634
      39   56640   56637      40   56646   56643      39   56649   56643      39
   56649   56646      40   56655   56652      39   56658   56652      39   56658
   56655      40   56664   56661      39   56667   56661      39   56667   56664
      40   56673   56670      39   56676   56670      39   56676   56673      40
   56682   56679      39   56685   56679      39   56685   56682      40   56691
   56688      39   56694   56688      39   56694   56691      40   56700   56697
      39   56703   56697      39   56703   56700      40   56709   56706      39
   56712   56706      39   56712   56709      40   56718   56715      39   56721
   56715      39   56721   56718      40   56727   56724      39   56730   56724
      39   56730   56727      40   56736   56733      39   56739   56733      39
   56739   56736      40   56745   56742      39   56748   56742      39   56748
   56745      40   56754   56751      39   56757   56751      39   56757   56754
      40   56763   56760      39   56766   56760      39   56766   56763      40
   56772   56769      39   56775   56769      39   56775   56772      40   56781
   56778      39   56784   56778      39   56784   56781      40   56790   56787
      39   56793   56787      39   56793   56790      40   56799   56796      39
   56802   56796      39   56802   56799      40   56808   56805      39   56811
   56805      39   56811   56808      40   56817   56814      39   56820   56814
      39   56820   56817      40   56826   56823      39   56829   56823      39
   56829   56826      40   56835   56832      39   56838   56832      39   56838
   56835      40   56844   56841      39   56847   56841      39   56847   56844
      40   56853   56850      39   56856   56850      39   56856   56853      40
   56862   56859      39   56865   56859      39   56865   56862      40   56871
   56868      39   56874   56868      39   56874   56871      40   56880   56877
      39   56883   56877      39   56883   56880      40   56889   56886      39
   56892   56886      39   56892   56889      40   56898   56895      39   56901
   56895      39   56901   56898      40   56907   56904      39   56910   56904
      39   56910   56907      40   56916   56913      39   56919   56913      39
   56919   56916      40   56925   56922      39   56928   56922      39   56928
   56925      40   56934   56931      39   56937   56931      39   56937   56934
      40   56943   56940      39   56946   56940      39   56946   56943      40
   56952   56949      39   56955   56949      39   56955   56952      40   56961
   56958      39   56964   56958      39   56964   56961      40   56970   56967
      39   56973   56967      39   56973   56970      40   56979   56976      39
   56982   56976      39   56982   56979      40   56988   56985      39   56991
   56985      39   56991   56988      40   56997   56994      39   57000   56994
      39   57000   56997      40   57006   57003      39   57009   57003      39
   57009   57006      40   57015   57012      39   57018   57012      39   57018
   57015      40   57024   57021      39   57027   57021      39   57027   57024
      40   57033   57030      39   57036   57030      39   57036   57033      40
   57042   57039      39   57045   57039      39   57045   57042      40   57051
   57048      39   57054   57048      39   57054   57051      40   57060   57057
      39   57063   57057      39   57063   57060      40   57069   57066      39
   57072   57066      39   57072   57069      40   57078   57075      39   57081
   57075      39   57081   57078      40   57087   57084      39   57090   57084
      39   57090   57087      40   57096   57093      39   57099   57093      39
   57099   57096      40   57105   57102      39   57108   57102      39   57108
   57105      40   57114   57111      39   57117   57111      39   57117   57114
      40   57123   57120      39   57126   57120      39   57126   57123      40
   57132   57129      39   57135   57129      39   57135   57132      40   57141
   57138      39   57144   57138      39   57144   57141      40   57150   57147
      39   57153   57147      39   57153   57150      40   57159   57156      39
   57162   57156      39   57162   57159      40   57168   57165      39   57171
   57165      39   57171   57168      40   57177   57174      39   57180   57174
      39   57180   57177      40   57186   57183      39   57189   57183      39
   57189   57186      40   57195   57192      39   57198   57192      39   57198
   57195      40   57204   57201      39   57207   57201      39   57207   57204
      40   57213   57210      39   57216   57210      39   57216   57213      40
   57222   57219      39   57225   57219      39   57225   57222      40   57231
   57228      39   57234   57228      39   57234   57231      40   57240   57237
      39   57243   57237      39   57243   57240      40   57249   57246      39
   57252   57246      39   57252   57249      40   57258   57255      39   57261
   57255      39   57261   57258      40   57267   57264      39   57270   57264
      39   57270   57267      40   57276   57273      39   57279   57273      39
   57279   57276      40   57285   57282      39   57288   57282      39   57288
   57285      40   57294   57291      39   57297   57291      39   57297   57294
      40   57303   57300      39   57306   57300      39   57306   57303      40
   57312   57309      39   57315   57309      39   57315   57312      40   57321
   57318      39   57324   57318      39   57324   57321      40   57330   57327
      39   57333   57327      39   57333   57330      40   57339   57336      39
   57342   57336      39   57342   57339      40   57348   57345      39   57351
   57345      39   57351   57348      40   57357   57354      39   57360   57354
      39   57360   57357      40   57366   57363      39   57369   57363      39
   57369   57366      40   57375   57372      39   57378   57372      39   57378
   57375      40   57384   57381      39   57387   57381      39   57387   57384
      40   57393   57390      39   57396   57390      39   57396   57393      40
   57402   57399      39   57405   57399      39   57405   57402      40   57411
   57408      39   57414   57408      39   57414   57411      40   57420   57417
      39   57423   57417      39   57423   57420      40   57429   57426      39
   57432   57426      39   57432   57429      40   57438   57435      39   57441
   57435      39   57441   57438      40   57447   57444      39   57450   57444
      39   57450   57447      40   57456   57453      39   57459   57453      39
   57459   57456      40   57465   57462      39   57468   57462      39   57468
   57465      40   57474   57471      39   57477   57471      39   57477   57474
      40   57483   57480      39   57486   57480      39   57486   57483      40
   57492   57489      39   57495   57489      39   57495   57492      40   57501
   57498      39   57504   57498      39   57504   57501      40   57510   57507
      39   57513   57507      39   57513   57510      40   57519   57516      39
   57522   57516      39   57522   57519      40   57528   57525      39   57531
   57525      39   57531   57528      40   57537   57534      39   57540   57534
      39   57540   57537      40   57546   57543      39   57549   57543      39
   57549   57546      40   57555   57552      39   57558   57552      39   57558
   57555      40   57564   57561      39   57567   57561      39   57567   57564
      40   57573   57570      39   57576   57570      39   57576   57573      40
   57582   57579      39   57585   57579      39   57585   57582      40   57591
   57588      39   57594   57588      39   57594   57591      40   57600   57597
      39   57603   57597      39   57603   57600      40   57609   57606      39
   57612   57606      39   57612   57609      40   57618   57615      39   57621
   57615      39   57621   57618      40   57627   57624      39   57630   57624
      39   57630   57627      40   57636   57633      39   57639   57633      39
   57639   57636      40   57645   57642      39   57648   57642      39   57648
   57645      40   57654   57651      39   57657   57651      39   57657   57654
      40   57663   57660      39   57666   57660      39   57666   57663      40
   57672   57669      39   57675   57669      39   57675   57672      40   57681
   57678      39   57684   57678      39   57684   57681      40   57690   57687
      39   57693   57687      39   57693   57690      40   57699   57696      39
   57702   57696      39   57702   57699      40   57708   57705      39   57711
   57705      39   57711   57708      40   57717   57714      39   57720   57714
      39   57720   57717      40   57726   57723      39   57729   57723      39
   57729   57726      40   57735   57732      39   57738   57732      39   57738
   57735      40   57744   57741      39   57747   57741      39   57747   57744
      40   57753   57750      39   57756   57750      39   57756   57753      40
   57762   57759      39   57765   57759      39   57765   57762      40   57771
   57768      39   57774   57768      39   57774   57771      40   57780   57777
      39   57783   57777      39   57783   57780      40   57789   57786      39
   57792   57786      39   57792   57789      40   57798   57795      39   57801
   57795      39   57801   57798      40   57807   57804      39   57810   57804
      39   57810   57807      40   57816   57813      39   57819   57813      39
   57819   57816      40   57825   57822      39   57828   57822      39   57828
   57825      40   57834   57831      39   57837   57831      39   57837   57834
      40   57843   57840      39   57846   57840      39   57846   57843      40
   57852   57849      39   57855   57849      39   57855   57852      40   57861
   57858      39   57864   57858      39   57864   57861      40   57870   57867
      39   57873   57867      39   57873   57870      40   57879   57876      39
   57882   57876      39   57882   57879      40   57888   57885      39   57891
   57885      39   57891   57888      40   57897   57894      39   57900   57894
      39   57900   57897      40   57906   57903      39   57909   57903      39
   57909   57906      40   57915   57912      39   57918   57912      39   57918
   57915      40   57924   57921      39   57927   57921      39   57927   57924
      40   57933   57930      39   57936   57930      39   57936   57933      40
   57942   57939      39   57945   57939      39   57945   57942      40   57951
   57948      39   57954   57948      39   57954   57951      40   57960   57957
      39   57963   57957      39   57963   57960      40   57969   57966      39
   57972   57966      39   57972   57969      40   57978   57975      39   57981
   57975      39   57981   57978      40   57987   57984      39   57990   57984
      39   57990   57987      40   57996   57993      39   57999   57993      39
   57999   57996      40   58005   58002      39   58008   58002      39   58008
   58005      40   58014   58011      39   58017   58011      39   58017   58014
      40   58023   58020      39   58026   58020      39   58026   58023      40
   58032   58029      39   58035   58029      39   58035   58032      40   58041
   58038      39   58044   58038      39   58044   58041      40   58050   58047
      39   58053   58047      39   58053   58050      40   58059   58056      39
   58062   58056      39   58062   58059      40   58068   58065      39   58071
   58065      39   58071   58068      40   58077   58074      39   58080   58074
      39   58080   58077      40   58086   58083      39   58089   58083      39
   58089   58086      40   58095   58092      39   58098   58092      39   58098
   58095      40   58104   58101      39   58107   58101      39   58107   58104
      40   58113   58110      39   58116   58110      39   58116   58113      40
   58122   58119      39   58125   58119      39   58125   58122      40   58131
   58128      39   58134   58128      39   58134   58131      40   58140   58137
      39   58143   58137      39   58143   58140      40   58149   58146      39
   58152   58146      39   58152   58149      40   58158   58155      39   58161
   58155      39   58161   58158      40   58167   58164      39   58170   58164
      39   58170   58167      40   58176   58173      39   58179   58173      39
   58179   58176      40   58185   58182      39   58188   58182      39   58188
   58185      40   58194   58191      39   58197   58191      39   58197   58194
      40   58203   58200      39   58206   58200      39   58206   58203      40
   58212   58209      39   58215   58209      39   58215   58212      40   58221
   58218      39   58224   58218      39   58224   58221      40   58230   58227
      39   58233   58227      39   58233   58230      40   58239   58236      39
   58242   58236      39   58242   58239      40   58248   58245      39   58251
   58245      39   58251   58248      40   58257   58254      39   58260   58254
      39   58260   58257      40   58266   58263      39   58269   58263      39
   58269   58266      40   58275   58272      39   58278   58272      39   58278
   58275      40   58284   58281      39   58287   58281      39   58287   58284
      40   58293   58290      39   58296   58290      39   58296   58293      40
   58302   58299      39   58305   58299      39   58305   58302      40   58311
   58308      39   58314   58308      39   58314   58311      40   58320   58317
      39   58323   58317      39   58323   58320      40   58329   58326      39
   58332   58326      39   58332   58329      40   58338   58335      39   58341
   58335      39   58341   58338      40   58347   58344      39   58350   58344
      39   58350   58347      40   58356   58353      39   58359   58353      39
   58359   58356      40   58365   58362      39   58368   58362      39   58368
   58365      40   58374   58371      39   58377   58371      39   58377   58374
      40   58383   58380      39   58386   58380      39   58386   58383      40
   58392   58389      39   58395   58389      39   58395   58392      40   58401
   58398      39   58404   58398      39   58404   58401      40   58410   58407
      39   58413   58407      39   58413   58410      40   58419   58416      39
   58422   58416      39   58422   58419      40   58428   58425      39   58431
   58425      39   58431   58428      40   58437   58434      39   58440   58434
      39   58440   58437      40   58446   58443      39   58449   58443      39
   58449   58446      40   58455   58452      39   58458   58452      39   58458
   58455      40   58464   58461      39   58467   58461      39   58467   58464
      40   58473   58470      39   58476   58470      39   58476   58473      40
   58482   58479      39   58485   58479      39   58485   58482      40   58491
   58488      39   58494   58488      39   58494   58491      40   58500   58497
      39   58503   58497      39   58503   58500      40   58509   58506      39
   58512   58506      39   58512   58509      40   58518   58515      39   58521
   58515      39   58521   58518      40   58527   58524      39   58530   58524
      39   58530   58527      40   58536   58533      39   58539   58533      39
   58539   58536      40   58545   58542      39   58548   58542      39   58548
   58545      40   58554   58551      39   58557   58551      39   58557   58554
      40   58563   58560      39   58566   58560      39   58566   58563      40
   58572   58569      39   58575   58569      39   58575   58572      40   58581
   58578      39   58584   58578      39   58584   58581      40   58590   58587
      39   58593   58587      39   58593   58590      40   58599   58596      39
   58602   58596      39   58602   58599      40   58608   58605      39   58611
   58605      39   58611   58608      40   58617   58614      39   58620   58614
      39   58620   58617      40   58626   58623      39   58629   58623      39
   58629   58626      40   58635   58632      39   58638   58632      39   58638
   58635      40   58644   58641      39   58647   58641      39   58647   58644
      40   58653   58650      39   58656   58650      39   58656   58653      40
   58662   58659      39   58665   58659      39   58665   58662      40   58671
   58668      39   58674   58668      39   58674   58671      40   58680   58677
      39   58683   58677      39   58683   58680      40   58689   58686      39
   58692   58686      39   58692   58689      40   58698   58695      39   58701
   58695      39   58701   58698      40   58707   58704      39   58710   58704
      39   58710   58707      40   58716   58713      39   58719   58713      39
   58719   58716      40   58725   58722      39   58728   58722      39   58728
   58725      40   58734   58731      39   58737   58731      39   58737   58734
      40   58743   58740      39   58746   58740      39   58746   58743      40
   58752   58749      39   58755   58749      39   58755   58752      40   58761
   58758      39   58764   58758      39   58764   58761      40   58770   58767
      39   58773   58767      39   58773   58770      40   58779   58776      39
   58782   58776      39   58782   58779      40   58788   58785      39   58791
   58785      39   58791   58788      40   58797   58794      39   58800   58794
      39   58800   58797      40   58806   58803      39   58809   58803      39
   58809   58806      40   58815   58812      39   58818   58812      39   58818
   58815      40   58824   58821      39   58827   58821      39   58827   58824
      40   58833   58830      39   58836   58830      39   58836   58833      40
   58842   58839      39   58845   58839      39   58845   58842      40   58851
   58848      39   58854   58848      39   58854   58851      40   58860   58857
      39   58863   58857      39   58863   58860      40   58869   58866      39
   58872   58866      39   58872   58869      40   58878   58875      39   58881
   58875      39   58881   58878      40   58887   58884      39   58890   58884
      39   58890   58887      40   58896   58893      39   58899   58893      39
   58899   58896      40   58905   58902      39   58908   58902      39   58908
   58905      40   58914   58911      39   58917   58911      39   58917   58914
      40   58923   58920      39   58926   58920      39   58926   58923      40
   58932   58929      39   58935   58929      39   58935   58932      40   58941
   58938      39   58944   58938      39   58944   58941      40   58950   58947
      39   58953   58947      39   58953   58950      40   58959   58956      39
   58962   58956      39   58962   58959      40   58968   58965      39   58971
   58965      39   58971   58968      40   58977   58974      39   58980   58974
      39   58980   58977      40   58986   58983      39   58989   58983      39
   58989   58986      40   58995   58992      39   58998   58992      39   58998
   58995      40   59004   59001      39   59007   59001      39   59007   59004
      40   59013   59010      39   59016   59010      39   59016   59013      40
   59022   59019      39   59025   59019      39   59025   59022      40   59031
   59028      39   59034   59028      39   59034   59031      40   59040   59037
      39   59043   59037      39   59043   59040      40   59049   59046      39
   59052   59046      39   59052   59049      40   59058   59055      39   59061
   59055      39   59061   59058      40   59067   59064      39   59070   59064
      39   59070   59067      40   59076   59073      39   59079   59073      39
   59079   59076      40   59085   59082      39   59088   59082      39   59088
   59085      40   59094   59091      39   59097   59091      39   59097   59094
      40   59103   59100      39   59106   59100      39   59106   59103      40
   59112   59109      39   59115   59109      39   59115   59112      40   59121
   59118      39   59124   59118      39   59124   59121      40   59130   59127
      39   59133   59127      39   59133   59130      40   59139   59136      39
   59142   59136      39   59142   59139      40   59148   59145      39   59151
   59145      39   59151   59148      40   59157   59154      39   59160   59154
      39   59160   59157      40   59166   59163      39   59169   59163      39
   59169   59166      40   59175   59172      39   59178   59172      39   59178
   59175      40   59184   59181      39   59187   59181      39   59187   59184
      40   59193   59190      39   59196   59190      39   59196   59193      40
   59202   59199      39   59205   59199      39   59205   59202      40   59211
   59208      39   59214   59208      39   59214   59211      40   59220   59217
      39   59223   59217      39   59223   59220      40   59229   59226      39
   59232   59226      39   59232   59229      40   59238   59235      39   59241
   59235      39   59241   59238      40   59247   59244      39   59250   59244
      39   59250   59247      40   59256   59253      39   59259   59253      39
   59259   59256      40   59265   59262      39   59268   59262      39   59268
   59265      40   59274   59271      39   59277   59271      39   59277   59274
      40   59283   59280      39   59286   59280      39   59286   59283      40
   59292   59289      39   59295   59289      39   59295   59292      40   59301
   59298      39   59304   59298      39   59304   59301      40   59310   59307
      39   59313   59307      39   59313   59310      40   59319   59316      39
   59322   59316      39   59322   59319      40   59328   59325      39   59331
   59325      39   59331   59328      40   59337   59334      39   59340   59334
      39   59340   59337      40   59346   59343      39   59349   59343      39
   59349   59346      40   59355   59352      39   59358   59352      39   59358
   59355      40   59364   59361      39   59367   59361      39   59367   59364
      40   59373   59370      39   59376   59370      39   59376   59373      40
   59382   59379      39   59385   59379      39   59385   59382      40   59391
   59388      39   59394   59388      39   59394   59391      40   59400   59397
      39   59403   59397      39   59403   59400      40   59409   59406      39
   59412   59406      39   59412   59409      40   59418   59415      39   59421
   59415      39   59421   59418      40   59427   59424      39   59430   59424
      39   59430   59427      40   59436   59433      39   59439   59433      39
   59439   59436      40   59445   59442      39   59448   59442      39   59448
   59445      40   59454   59451      39   59457   59451      39   59457   59454
      40   59463   59460      39   59466   59460      39   59466   59463      40
   59472   59469      39   59475   59469      39   59475   59472      40   59481
   59478      39   59484   59478      39   59484   59481      40   59490   59487
      39   59493   59487      39   59493   59490      40   59499   59496      39
   59502   59496      39   59502   59499      40   59508   59505      39   59511
   59505      39   59511   59508      40   59517   59514      39   59520   59514
      39   59520   59517      40   59526   59523      39   59529   59523      39
   59529   59526      40   59535   59532      39   59538   59532      39   59538
   59535      40   59544   59541      39   59547   59541      39   59547   59544
      40   59553   59550      39   59556   59550      39   59556   59553      40
   59562   59559      39   59565   59559      39   59565   59562      40   59571
   59568      39   59574   59568      39   59574   59571      40   59580   59577
      39   59583   59577      39   59583   59580      40   59589   59586      39
   59592   59586      39   59592   59589      40   59598   59595      39   59601
   59595      39   59601   59598      40   59607   59604      39   59610   59604
      39   59610   59607      40   59616   59613      39   59619   59613      39
   59619   59616      40   59625   59622      39   59628   59622      39   59628
   59625      40   59634   59631      39   59637   59631      39   59637   59634
      40   59643   59640      39   59646   59640      39   59646   59643      40
   59652   59649      39   59655   59649      39   59655   59652      40   59661
   59658      39   59664   59658      39   59664   59661      40   59670   59667
      39   59673   59667      39   59673   59670      40   59679   59676      39
   59682   59676      39   59682   59679      40   59688   59685      39   59691
   59685      39   59691   59688      40   59697   59694      39   59700   59694
      39   59700   59697      40   59706   59703      39   59709   59703      39
   59709   59706      40   59715   59712      39   59718   59712      39   59718
   59715      40   59724   59721      39   59727   59721      39   59727   59724
      40   59733   59730      39   59736   59730      39   59736   59733      40
   59742   59739      39   59745   59739      39   59745   59742      40   59751
   59748      39   59754   59748      39   59754   59751      40   59760   59757
      39   59763   59757      39   59763   59760      40   59769   59766      39
   59772   59766      39   59772   59769      40   59778   59775      39   59781
   59775      39   59781   59778      40   59787   59784      39   59790   59784
      39   59790   59787      40   59796   59793      39   59799   59793      39
   59799   59796      40   59805   59802      39   59808   59802      39   59808
   59805      40   59814   59811      39   59817   59811      39   59817   59814
      40   59823   59820      39   59826   59820      39   59826   59823      40
   59832   59829      39   59835   59829      39   59835   59832      40   59841
   59838      39   59844   59838      39   59844   59841      40   59850   59847
      39   59853   59847      39   59853   59850      40   59859   59856      39
   59862   59856      39   59862   59859      40   59868   59865      39   59871
   59865      39   59871   59868      40   59877   59874      39   59880   59874
      39   59880   59877      40   59886   59883      39   59889   59883      39
   59889   59886      40   59895   59892      39   59898   59892      39   59898
   59895      40   59904   59901      39   59907   59901      39   59907   59904
      40   59913   59910      39   59916   59910      39   59916   59913      40
   59922   59919      39   59925   59919      39   59925   59922      40   59931
   59928      39   59934   59928      39   59934   59931      40   59940   59937
      39   59943   59937      39   59943   59940      40   59949   59946      39
   59952   59946      39   59952   59949      40   59958   59955      39   59961
   59955      39   59961   59958      40   59967   59964      39   59970   59964
      39   59970   59967      40   59976   59973      39   59979   59973      39
   59979   59976      40   59985   59982      39   59988   59982      39   59988
   59985      40   59994   59991      39   59997   59991      39   59997   59994
      40   60003   60000      39   60006   60000      39   60006   60003      40
   60012   60009      39   60015   60009      39   60015   60012      40   60021
   60018      39   60024   60018      39   60024   60021      40   60030   60027
      39   60033   60027      39   60033   60030      40   60039   60036      39
   60042   60036      39   60042   60039      40   60048   60045      39   60051
   60045      39   60051   60048      40   60057   60054      39   60060   60054
      39   60060   60057      40   60066   60063      39   60069   60063      39
   60069   60066      40   60075   60072      39   60078   60072      39   60078
   60075      40   60084   60081      39   60087   60081      39   60087   60084
      40   60093   60090      39   60096   60090      39   60096   60093      40
   60102   60099      39   60105   60099      39   60105   60102      40   60111
   60108      39   60114   60108      39   60114   60111      40   60120   60117
      39   60123   60117      39   60123   60120      40   60129   60126      39
   60132   60126      39   60132   60129      40   60138   60135      39   60141
   60135      39   60141   60138      40   60147   60144      39   60150   60144
      39   60150   60147      40   60156   60153      39   60159   60153      39
   60159   60156      40   60165   60162      39   60168   60162      39   60168
   60165      40   60174   60171      39   60177   60171      39   60177   60174
      40   60183   60180      39   60186   60180      39   60186   60183      40
   60192   60189      39   60195   60189      39   60195   60192      40   60201
   60198      39   60204   60198      39   60204   60201      40   60210   60207
      39   60213   60207      39   60213   60210      40   60219   60216      39
   60222   60216      39   60222   60219      40   60228   60225      39   60231
   60225      39   60231   60228      40   60237   60234      39   60240   60234
      39   60240   60237      40   60246   60243      39   60249   60243      39
   60249   60246      40   60255   60252      39   60258   60252      39   60258
   60255      40   60264   60261      39   60267   60261      39   60267   60264
      40   60273   60270      39   60276   60270      39   60276   60273      40
   60282   60279      39   60285   60279      39   60285   60282      40   60291
   60288      39   60294   60288      39   60294   60291      40   60300   60297
      39   60303   60297      39   60303   60300      40   60309   60306      39
   60312   60306      39   60312   60309      40   60318   60315      39   60321
   60315      39   60321   60318      40   60327   60324      39   60330   60324
      39   60330   60327      40   60336   60333      39   60339   60333      39
   60339   60336      40   60345   60342      39   60348   60342      39   60348
   60345      40   60354   60351      39   60357   60351      39   60357   60354
      40   60363   60360      39   60366   60360      39   60366   60363      40
   60372   60369      39   60375   60369      39   60375   60372      40   60381
   60378      39   60384   60378      39   60384   60381      40   60390   60387
      39   60393   60387      39   60393   60390      40   60399   60396      39
   60402   60396      39   60402   60399      40   60408   60405      39   60411
   60405      39   60411   60408      40   60417   60414      39   60420   60414
      39   60420   60417      40   60426   60423      39   60429   60423      39
   60429   60426      40   60435   60432      39   60438   60432      39   60438
   60435      40   60444   60441      39   60447   60441      39   60447   60444
      40   60453   60450      39   60456   60450      39   60456   60453      40
   60462   60459      39   60465   60459      39   60465   60462      40   60471
   60468      39   60474   60468      39   60474   60471      40   60480   60477
      39   60483   60477      39   60483   60480      40   60489   60486      39
   60492   60486      39   60492   60489      40   60498   60495      39   60501
   60495      39   60501   60498      40   60507   60504      39   60510   60504
      39   60510   60507      40   60516   60513      39   60519   60513      39
   60519   60516      40   60525   60522      39   60528   60522      39   60528
   60525      40   60534   60531      39   60537   60531      39   60537   60534
      40   60543   60540      39   60546   60540      39   60546   60543      40
   60552   60549      39   60555   60549      39   60555   60552      40   60561
   60558      39   60564   60558      39   60564   60561      40   60570   60567
      39   60573   60567      39   60573   60570      40   60579   60576      39
   60582   60576      39   60582   60579      40   60588   60585      39   60591
   60585      39   60591   60588      40   60597   60594      39   60600   60594
      39   60600   60597      40   60606   60603      39   60609   60603      39
   60609   60606      40   60615   60612      39   60618   60612      39   60618
   60615      40   60624   60621      39   60627   60621      39   60627   60624
      40   60633   60630      39   60636   60630      39   60636   60633      40
   60642   60639      39   60645   60639      39   60645   60642      40   60651
   60648      39   60654   60648      39   60654   60651      40   60660   60657
      39   60663   60657      39   60663   60660      40   60669   60666      39
   60672   60666      39   60672   60669      40   60678   60675      39   60681
   60675      39   60681   60678      40   60687   60684      39   60690   60684
      39   60690   60687      40   60696   60693      39   60699   60693      39
   60699   60696      40   60705   60702      39   60708   60702      39   60708
   60705      40   60714   60711      39   60717   60711      39   60717   60714
      40   60723   60720      39   60726   60720      39   60726   60723      40
   60732   60729      39   60735   60729      39   60735   60732      40   60741
   60738      39   60744   60738      39   60744   60741      40   60750   60747
      39   60753   60747      39   60753   60750      40   60759   60756      39
   60762   60756      39   60762   60759      40   60768   60765      39   60771
   60765      39   60771   60768      40   60777   60774      39   60780   60774
      39   60780   60777      40   60786   60783      39   60789   60783      39
   60789   60786      40   60795   60792      39   60798   60792      39   60798
   60795      40   60804   60801      39   60807   60801      39   60807   60804
      40   60813   60810      39   60816   60810      39   60816   60813      40
   60822   60819      39   60825   60819      39   60825   60822      40   60831
   60828      39   60834   60828      39   60834   60831      40   60840   60837
      39   60843   60837      39   60843   60840      40   60849   60846      39
   60852   60846      39   60852   60849      40   60858   60855      39   60861
   60855      39   60861   60858      40   60867   60864      39   60870   60864
      39   60870   60867      40   60876   60873      39   60879   60873      39
   60879   60876      40   60885   60882      39   60888   60882      39   60888
   60885      40   60894   60891      39   60897   60891      39   60897   60894
      40   60903   60900      39   60906   60900      39   60906   60903      40
   60912   60909      39   60915   60909      39   60915   60912      40   60921
   60918      39   60924   60918      39   60924   60921      40   60930   60927
      39   60933   60927      39   60933   60930      40   60939   60936      39
   60942   60936      39   60942   60939      40   60948   60945      39   60951
   60945      39   60951   60948      40   60957   60954      39   60960   60954
      39   60960   60957      40   60966   60963      39   60969   60963      39
   60969   60966      40   60975   60972      39   60978   60972      39   60978
   60975      40   60984   60981      39   60987   60981      39   60987   60984
      40   60993   60990      39   60996   60990      39   60996   60993      40
   61002   60999      39   61005   60999      39   61005   61002      40   61011
   61008      39   61014   61008      39   61014   61011      40   61020   61017
      39   61023   61017      39   61023   61020      40   61029   61026      39
   61032   61026      39   61032   61029      40   61038   61035      39   61041
   61035      39   61041   61038      40   61047   61044      39   61050   61044
      39   61050   61047      40   61056   61053      39   61059   61053      39
   61059   61056      40   61065   61062      39   61068   61062      39   61068
   61065      40   61074   61071      39   61077   61071      39   61077   61074
      40   61083   61080      39   61086   61080      39   61086   61083      40
   61092   61089      39   61095   61089      39   61095   61092      40   61101
   61098      39   61104   61098      39   61104   61101      40   61110   61107
      39   61113   61107      39   61113   61110      40   61119   61116      39
   61122   61116      39   61122   61119      40   61128   61125      39   61131
   61125      39   61131   61128      40   61137   61134      39   61140   61134
      39   61140   61137      40   61146   61143      39   61149   61143      39
   61149   61146      40   61155   61152      39   61158   61152      39   61158
   61155      40   61164   61161      39   61167   61161      39   61167   61164
      40   61173   61170      39   61176   61170      39   61176   61173      40
   61182   61179      39   61185   61179      39   61185   61182      40   61191
   61188      39   61194   61188      39   61194   61191      40   61200   61197
      39   61203   61197      39   61203   61200      40   61209   61206      39
   61212   61206      39   61212   61209      40   61218   61215      39   61221
   61215      39   61221   61218      40   61227   61224      39   61230   61224
      39   61230   61227      40   61236   61233      39   61239   61233      39
   61239   61236      40   61245   61242      39   61248   61242      39   61248
   61245      40   61254   61251      39   61257   61251      39   61257   61254
      40   61263   61260      39   61266   61260      39   61266   61263      40
   61272   61269      39   61275   61269      39   61275   61272      40   61281
   61278      39   61284   61278      39   61284   61281      40   61290   61287
      39   61293   61287      39   61293   61290      40   61299   61296      39
   61302   61296      39   61302   61299      40   61308   61305      39   61311
   61305      39   61311   61308      40   61317   61314      39   61320   61314
      39   61320   61317      40   61326   61323      39   61329   61323      39
   61329   61326      40   61335   61332      39   61338   61332      39   61338
   61335      40   61344   61341      39   61347   61341      39   61347   61344
      40   61353   61350      39   61356   61350      39   61356   61353      40
   61362   61359      39   61365   61359      39   61365   61362      40   61371
   61368      39   61374   61368      39   61374   61371      40   61380   61377
      39   61383   61377      39   61383   61380      40   61389   61386      39
   61392   61386      39   61392   61389      40   61398   61395      39   61401
   61395      39   61401   61398      40   61407   61404      39   61410   61404
      39   61410   61407      40   61416   61413      39   61419   61413      39
   61419   61416      40   61425   61422      39   61428   61422      39   61428
   61425      40   61434   61431      39   61437   61431      39   61437   61434
      40   61443   61440      39   61446   61440      39   61446   61443      40
   61452   61449      39   61455   61449      39   61455   61452      40   61461
   61458      39   61464   61458      39   61464   61461      40   61470   61467
      39   61473   61467      39   61473   61470      40   61479   61476      39
   61482   61476      39   61482   61479      40   61488   61485      39   61491
   61485      39   61491   61488      40   61497   61494      39   61500   61494
      39   61500   61497      40   61506   61503      39   61509   61503      39
   61509   61506      40   61515   61512      39   61518   61512      39   61518
   61515      40   61524   61521      39   61527   61521      39   61527   61524
      40   61533   61530      39   61536   61530      39   61536   61533      40
   61542   61539      39   61545   61539      39   61545   61542      40   61551
   61548      39   61554   61548      39   61554   61551      40   61560   61557
      39   61563   61557      39   61563   61560      40   61569   61566      39
   61572   61566      39   61572   61569      40   61578   61575      39   61581
   61575      39   61581   61578      40   61587   61584      39   61590   61584
      39   61590   61587      40   61596   61593      39   61599   61593      39
   61599   61596      40   61605   61602      39   61608   61602      39   61608
   61605      40   61614   61611      39   61617   61611      39   61617   61614
      40   61623   61620      39   61626   61620      39   61626   61623      40
   61632   61629      39   61635   61629      39   61635   61632      40   61641
   61638      39   61644   61638      39   61644   61641      40   61650   61647
      39   61653   61647      39   61653   61650      40   61659   61656      39
   61662   61656      39   61662   61659      40   61668   61665      39   61671
   61665      39   61671   61668      40   61677   61674      39   61680   61674
      39   61680   61677      40   61686   61683      39   61689   61683      39
   61689   61686      40   61695   61692      39   61698   61692      39   61698
   61695      40   61704   61701      39   61707   61701      39   61707   61704
      40   61713   61710      39   61716   61710      39   61716   61713      40
   61722   61719      39   61725   61719      39   61725   61722      40   61731
   61728      39   61734   61728      39   61734   61731      40   61740   61737
      39   61743   61737      39   61743   61740      40   61749   61746      39
   61752   61746      39   61752   61749      40   61758   61755      39   61761
   61755      39   61761   61758      40   61767   61764      39   61770   61764
      39   61770   61767      40   61776   61773      39   61779   61773      39
   61779   61776      40   61785   61782      39   61788   61782      39   61788
   61785      40   61794   61791      39   61797   61791      39   61797   61794
      40   61803   61800      39   61806   61800      39   61806   61803      40
   61812   61809      39   61815   61809      39   61815   61812      40   61821
   61818      39   61824   61818      39   61824   61821      40   61830   61827
      39   61833   61827      39   61833   61830      40   61839   61836      39
   61842   61836      39   61842   61839      40   61848   61845      39   61851
   61845      39   61851   61848      40   61857   61854      39   61860   61854
      39   61860   61857      40   61866   61863      39   61869   61863      39
   61869   61866      40   61875   61872      39   61878   61872      39   61878
   61875      40   61884   61881      39   61887   61881      39   61887   61884
      40   61893   61890      39   61896   61890      39   61896   61893      40
   61902   61899      39   61905   61899      39   61905   61902      40   61911
   61908      39   61914   61908      39   61914   61911      40   61920   61917
      39   61923   61917      39   61923   61920      40   61929   61926      39
   61932   61926      39   61932   61929      40   61938   61935      39   61941
   61935      39   61941   61938      40   61947   61944      39   61950   61944
      39   61950   61947      40   61956   61953      39   61959   61953      39
   61959   61956      40   61965   61962      39   61968   61962      39   61968
   61965      40   61974   61971      39   61977   61971      39   61977   61974
      40   61983   61980      39   61986   61980      39   61986   61983      40
   61992   61989      39   61995   61989      39   61995   61992      40   62001
   61998      39   62004   61998      39   62004   62001      40   62010   62007
      39   62013   62007      39   62013   62010      40   62019   62016      39
   62022   62016      39   62022   62019      40   62028   62025      39   62031
   62025      39   62031   62028      40   62037   62034      39   62040   62034
      39   62040   62037      40   62046   62043      39   62049   62043      39
   62049   62046      40   62055   62052      39   62058   62052      39   62058
   62055      40   62064   62061      39   62067   62061      39   62067   62064
      40   62073   62070      39   62076   62070      39   62076   62073      40
   62082   62079      39   62085   62079      39   62085   62082      40   62091
   62088      39   62094   62088      39   62094   62091      40   62100   62097
      39   62103   62097      39   62103   62100      40   62109   62106      39
   62112   62106      39   62112   62109      40   62118   62115      39   62121
   62115      39   62121   62118      40   62127   62124      39   62130   62124
      39   62130   62127      40   62136   62133      39   62139   62133      39
   62139   62136      40   62145   62142      39   62148   62142      39   62148
   62145      40   62154   62151      39   62157   62151      39   62157   62154
      40   62163   62160      39   62166   62160      39   62166   62163      40
   62172   62169      39   62175   62169      39   62175   62172      40   62181
   62178      39   62184   62178      39   62184   62181      40   62190   62187
      39   62193   62187      39   62193   62190      40   62199   62196      39
   62202   62196      39   62202   62199      40   62208   62205      39   62211
   62205      39   62211   62208      40   62217   62214      39   62220   62214
      39   62220   62217      40   62226   62223      39   62229   62223      39
   62229   62226      40   62235   62232      39   62238   62232      39   62238
   62235      40   62244   62241      39   62247   62241      39   62247   62244
      40   62253   62250      39   62256   62250      39   62256   62253      40
   62262   62259      39   62265   62259      39   62265   62262      40   62271
   62268      39   62274   62268      39   62274   62271      40   62280   62277
      39   62283   62277      39   62283   62280      40   62289   62286      39
   62292   62286      39   62292   62289      40   62298   62295      39   62301
   62295      39   62301   62298      40   62307   62304      39   62310   62304
      39   62310   62307      40   62316   62313      39   62319   62313      39
   62319   62316      40   62325   62322      39   62328   62322      39   62328
   62325      40   62334   62331      39   62337   62331      39   62337   62334
      40   62343   62340      39   62346   62340      39   62346   62343      40
   62352   62349      39   62355   62349      39   62355   62352      40   62361
   62358      39   62364   62358      39   62364   62361      40   62370   62367
      39   62373   62367      39   62373   62370      40   62379   62376      39
   62382   62376      39   62382   62379      40   62388   62385      39   62391
   62385      39   62391   62388      40   62397   62394      39   62400   62394
      39   62400   62397      40   62406   62403      39   62409   62403      39
   62409   62406      40   62415   62412      39   62418   62412      39   62418
   62415      40   62424   62421      39   62427   62421      39   62427   62424
      40   62433   62430      39   62436   62430      39   62436   62433      40
   62442   62439      39   62445   62439      39   62445   62442      40   62451
   62448      39   62454   62448      39   62454   62451      40   62460   62457
      39   62463   62457      39   62463   62460      40   62469   62466      39
   62472   62466      39   62472   62469      40   62478   62475      39   62481
   62475      39   62481   62478      40   62487   62484      39   62490   62484
      39   62490   62487      40   62496   62493      39   62499   62493      39
   62499   62496      40   62505   62502      39   62508   62502      39   62508
   62505      40   62514   62511      39   62517   62511      39   62517   62514
      40   62523   62520      39   62526   62520      39   62526   62523      40
   62532   62529      39   62535   62529      39   62535   62532      40   62541
   62538      39   62544   62538      39   62544   62541      40   62550   62547
      39   62553   62547      39   62553   62550      40   62559   62556      39
   62562   62556      39   62562   62559      40   62568   62565      39   62571
   62565      39   62571   62568      40   62577   62574      39   62580   62574
      39   62580   62577      40   62586   62583      39   62589   62583      39
   62589   62586      40   62595   62592      39   62598   62592      39   62598
   62595      40   62604   62601      39   62607   62601      39   62607   62604
      40   62613   62610      39   62616   62610      39   62616   62613      40
   62622   62619      39   62625   62619      39   62625   62622      40   62631
   62628      39   62634   62628      39   62634   62631      40   62640   62637
      39   62643   62637      39   62643   62640      40   62649   62646      39
   62652   62646      39   62652   62649      40   62658   62655      39   62661
   62655      39   62661   62658      40   62667   62664      39   62670   62664
      39   62670   62667      40   62676   62673      39   62679   62673      39
   62679   62676      40   62685   62682      39   62688   62682      39   62688
   62685      40   62694   62691      39   62697   62691      39   62697   62694
      40   62703   62700      39   62706   62700      39   62706   62703      40
   62712   62709      39   62715   62709      39   62715   62712      40   62721
   62718      39   62724   62718      39   62724   62721      40   62730   62727
      39   62733   62727      39   62733   62730      40   62739   62736      39
   62742   62736      39   62742   62739      40   62748   62745      39   62751
   62745      39   62751   62748      40   62757   62754      39   62760   62754
      39   62760   62757      40   62766   62763      39   62769   62763      39
   62769   62766      40   62775   62772      39   62778   62772      39   62778
   62775      40   62784   62781      39   62787   62781      39   62787   62784
      40   62793   62790      39   62796   62790      39   62796   62793      40
   62802   62799      39   62805   62799      39   62805   62802      40   62811
   62808      39   62814   62808      39   62814   62811      40   62820   62817
      39   62823   62817      39   62823   62820      40   62829   62826      39
   62832   62826      39   62832   62829      40   62838   62835      39   62841
   62835      39   62841   62838      40   62847   62844      39   62850   62844
      39   62850   62847      40   62856   62853      39   62859   62853      39
   62859   62856      40   62865   62862      39   62868   62862      39   62868
   62865      40   62874   62871      39   62877   62871      39   62877   62874
      40   62883   62880      39   62886   62880      39   62886   62883      40
   62892   62889      39   62895   62889      39   62895   62892      40   62901
   62898      39   62904   62898      39   62904   62901      40   62910   62907
      39   62913   62907      39   62913   62910      40   62919   62916      39
   62922   62916      39   62922   62919      40   62928   62925      39   62931
   62925      39   62931   62928      40   62937   62934      39   62940   62934
      39   62940   62937      40   62946   62943      39   62949   62943      39
   62949   62946      40   62955   62952      39   62958   62952      39   62958
   62955      40   62964   62961      39   62967   62961      39   62967   62964
      40   62973   62970      39   62976   62970      39   62976   62973      40
   62982   62979      39   62985   62979      39   62985   62982      40   62991
   62988      39   62994   62988      39   62994   62991      40   63000   62997
      39   63003   62997      39   63003   63000      40   63009   63006      39
   63012   63006      39   63012   63009      40   63018   63015      39   63021
   63015      39   63021   63018      40   63027   63024      39   63030   63024
      39   63030   63027      40   63036   63033      39   63039   63033      39
   63039   63036      40   63045   63042      39   63048   63042      39   63048
   63045      40   63054   63051      39   63057   63051      39   63057   63054
      40   63063   63060      39   63066   63060      39   63066   63063      40
   63072   63069      39   63075   63069      39   63075   63072      40   63081
   63078      39   63084   63078      39   63084   63081      40   63090   63087
      39   63093   63087      39   63093   63090      40   63099   63096      39
   63102   63096      39   63102   63099      40   63108   63105      39   63111
   63105      39   63111   63108      40   63117   63114      39   63120   63114
      39   63120   63117      40   63126   63123      39   63129   63123      39
   63129   63126      40   63135   63132      39   63138   63132      39   63138
   63135      40   63144   63141      39   63147   63141      39   63147   63144
      40   63153   63150      39   63156   63150      39   63156   63153      40
   63162   63159      39   63165   63159      39   63165   63162      40   63171
   63168      39   63174   63168      39   63174   63171      40   63180   63177
      39   63183   63177      39   63183   63180      40   63189   63186      39
   63192   63186      39   63192   63189      40   63198   63195      39   63201
   63195      39   63201   63198      40   63207   63204      39   63210   63204
      39   63210   63207      40   63216   63213      39   63219   63213      39
   63219   63216      40   63225   63222      39   63228   63222      39   63228
   63225      40   63234   63231      39   63237   63231      39   63237   63234
      40   63243   63240      39   63246   63240      39   63246   63243      40
   63252   63249      39   63255   63249      39   63255   63252      40   63261
   63258      39   63264   63258      39   63264   63261      40   63270   63267
      39   63273   63267      39   63273   63270      40   63279   63276      39
   63282   63276      39   63282   63279      40   63288   63285      39   63291
   63285      39   63291   63288      40   63297   63294      39   63300   63294
      39   63300   63297      40   63306   63303      39   63309   63303      39
   63309   63306      40   63315   63312      39   63318   63312      39   63318
   63315      40   63324   63321      39   63327   63321      39   63327   63324
      40   63333   63330      39   63336   63330      39   63336   63333      40
   63342   63339      39   63345   63339      39   63345   63342      40   63351
   63348      39   63354   63348      39   63354   63351      40   63360   63357
      39   63363   63357      39   63363   63360      40   63369   63366      39
   63372   63366      39   63372   63369      40   63378   63375      39   63381
   63375      39   63381   63378      40   63387   63384      39   63390   63384
      39   63390   63387      40   63396   63393      39   63399   63393      39
   63399   63396      40   63405   63402      39   63408   63402      39   63408
   63405      40   63414   63411      39   63417   63411      39   63417   63414
      40   63423   63420      39   63426   63420      39   63426   63423      40
   63432   63429      39   63435   63429      39   63435   63432      40   63441
   63438      39   63444   63438      39   63444   63441      40   63450   63447
      39   63453   63447      39   63453   63450      40   63459   63456      39
   63462   63456      39   63462   63459      40   63468   63465      39   63471
   63465      39   63471   63468      40   63477   63474      39   63480   63474
      39   63480   63477      40   63486   63483      39   63489   63483      39
   63489   63486      40   63495   63492      39   63498   63492      39   63498
   63495      40   63504   63501      39   63507   63501      39   63507   63504
      40   63513   63510      39   63516   63510      39   63516   63513      40
   63522   63519      39   63525   63519      39   63525   63522      40   63531
   63528      39   63534   63528      39   63534   63531      40   63540   63537
      39   63543   63537      39   63543   63540      40   63549   63546      39
   63552   63546      39   63552   63549      40   63558   63555      39   63561
   63555      39   63561   63558      40   63567   63564      39   63570   63564
      39   63570   63567      40   63576   63573      39   63579   63573      39
   63579   63576      40   63585   63582      39   63588   63582      39   63588
   63585      40   63594   63591      39   63597   63591      39   63597   63594
      40   63603   63600      39   63606   63600      39   63606   63603      40
   63612   63609      39   63615   63609      39   63615   63612      40   63621
   63618      39   63624   63618      39   63624   63621      40   63630   63627
      39   63633   63627      39   63633   63630      40   63639   63636      39
   63642   63636      39   63642   63639      40   63648   63645      39   63651
   63645      39   63651   63648      40   63657   63654      39   63660   63654
      39   63660   63657      40   63666   63663      39   63669   63663      39
   63669   63666      40   63675   63672      39   63678   63672      39   63678
   63675      40   63684   63681      39   63687   63681      39   63687   63684
      40   63693   63690      39   63696   63690      39   63696   63693      40
   63702   63699      39   63705   63699      39   63705   63702      40   63711
   63708      39   63714   63708      39   63714   63711      40   63720   63717
      39   63723   63717      39   63723   63720      40   63729   63726      39
   63732   63726      39   63732   63729      40   63738   63735      39   63741
   63735      39   63741   63738      40   63747   63744      39   63750   63744
      39   63750   63747      40   63756   63753      39   63759   63753      39
   63759   63756      40   63765   63762      39   63768   63762      39   63768
   63765      40   63774   63771      39   63777   63771      39   63777   63774
      40   63783   63780      39   63786   63780      39   63786   63783      40
   63792   63789      39   63795   63789      39   63795   63792      40   63801
   63798      39   63804   63798      39   63804   63801      40   63810   63807
      39   63813   63807      39   63813   63810      40   63819   63816      39
   63822   63816      39   63822   63819      40   63828   63825      39   63831
   63825      39   63831   63828      40   63837   63834      39   63840   63834
      39   63840   63837      40   63846   63843      39   63849   63843      39
   63849   63846      40   63855   63852      39   63858   63852      39   63858
   63855      40   63864   63861      39   63867   63861      39   63867   63864
      40   63873   63870      39   63876   63870      39   63876   63873      40
   63882   63879      39   63885   63879      39   63885   63882      40   63891
   63888      39   63894   63888      39   63894   63891      40   63900   63897
      39   63903   63897      39   63903   63900      40   63909   63906      39
   63912   63906      39   63912   63909      40   63918   63915      39   63921
   63915      39   63921   63918      40   63927   63924      39   63930   63924
      39   63930   63927      40   63936   63933      39   63939   63933      39
   63939   63936      40   63945   63942      39   63948   63942      39   63948
   63945      40   63954   63951      39   63957   63951      39   63957   63954
      40   63963   63960      39   63966   63960      39   63966   63963      40
   63972   63969      39   63975   63969      39   63975   63972      40   63981
   63978      39   63984   63978      39   63984   63981      40   63990   63987
      39   63993   63987      39   63993   63990      40   63999   63996      39
   64002   63996      39   64002   63999      40   64008   64005      39   64011
   64005      39   64011   64008      40   64017   64014      39   64020   64014
      39   64020   64017      40   64026   64023      39   64029   64023      39
   64029   64026      40   64035   64032      39   64038   64032      39   64038
   64035      40   64044   64041      39   64047   64041      39   64047   64044
      40   64053   64050      39   64056   64050      39   64056   64053      40
   64062   64059      39   64065   64059      39   64065   64062      40   64071
   64068      39   64074   64068      39   64074   64071      40   64080   64077
      39   64083   64077      39   64083   64080      40   64089   64086      39
   64092   64086      39   64092   64089      40   64098   64095      39   64101
   64095      39   64101   64098      40   64107   64104      39   64110   64104
      39   64110   64107      40   64116   64113      39   64119   64113      39
   64119   64116      40   64125   64122      39   64128   64122      39   64128
   64125      40   64134   64131      39   64137   64131      39   64137   64134
      40   64143   64140      39   64146   64140      39   64146   64143      40
   64152   64149      39   64155   64149      39   64155   64152      40   64161
   64158      39   64164   64158      39   64164   64161      40   64170   64167
      39   64173   64167      39   64173   64170      40   64179   64176      39
   64182   64176      39   64182   64179      40   64188   64185      39   64191
   64185      39   64191   64188      40   64197   64194      39   64200   64194
      39   64200   64197      40   64206   64203      39   64209   64203      39
   64209   64206      40   64215   64212      39   64218   64212      39   64218
   64215      40   64224   64221      39   64227   64221      39   64227   64224
      40   64233   64230      39   64236   64230      39   64236   64233      40
   64242   64239      39   64245   64239      39   64245   64242      40   64251
   64248      39   64254   64248      39   64254   64251      40   64260   64257
      39   64263   64257      39   64263   64260      40   64269   64266      39
   64272   64266      39   64272   64269      40   64278   64275      39   64281
   64275      39   64281   64278      40   64287   64284      39   64290   64284
      39   64290   64287      40   64296   64293      39   64299   64293      39
   64299   64296      40   64305   64302      39   64308   64302      39   64308
   64305      40   64314   64311      39   64317   64311      39   64317   64314
      40   64323   64320      39   64326   64320      39   64326   64323      40
   64332   64329      39   64335   64329      39   64335   64332      40   64341
   64338      39   64344   64338      39   64344   64341      40   64350   64347
      39   64353   64347      39   64353   64350      40   64359   64356      39
   64362   64356      39   64362   64359      40   64368   64365      39   64371
   64365      39   64371   64368      40   64377   64374      39   64380   64374
      39   64380   64377      40   64386   64383      39   64389   64383      39
   64389   64386      40   64395   64392      39   64398   64392      39   64398
   64395      40   64404   64401      39   64407   64401      39   64407   64404
      40   64413   64410      39   64416   64410      39   64416   64413      40
   64422   64419      39   64425   64419      39   64425   64422      40   64431
   64428      39   64434   64428      39   64434   64431      40   64440   64437
      39   64443   64437      39   64443   64440      40   64449   64446      39
   64452   64446      39   64452   64449      40   64458   64455      39   64461
   64455      39   64461   64458      40   64467   64464      39   64470   64464
      39   64470   64467      40   64476   64473      39   64479   64473      39
   64479   64476      40   64485   64482      39   64488   64482      39   64488
   64485      40   64494   64491      39   64497   64491      39   64497   64494
      40   64503   64500      39   64506   64500      39   64506   64503      40
   64512   64509      39   64515   64509      39   64515   64512      40   64521
   64518      39   64524   64518      39   64524   64521      40   64530   64527
      39   64533   64527      39   64533   64530      40   64539   64536      39
   64542   64536      39   64542   64539      40   64548   64545      39   64551
   64545      39   64551   64548      40   64557   64554      39   64560   64554
      39   64560   64557      40   64566   64563      39   64569   64563      39
   64569   64566      40   64575   64572      39   64578   64572      39   64578
   64575      40   64584   64581      39   64587   64581      39   64587   64584
      40   64593   64590      39   64596   64590      39   64596   64593      40
   64602   64599      39   64605   64599      39   64605   64602      40   64611
   64608      39   64614   64608      39   64614   64611      40   64620   64617
      39   64623   64617      39   64623   64620      40   64629   64626      39
   64632   64626      39   64632   64629      40   64638   64635      39   64641
   64635      39   64641   64638      40   64647   64644      39   64650   64644
      39   64650   64647      40   64656   64653      39   64659   64653      39
   64659   64656      40   64665   64662      39   64668   64662      39   64668
   64665      40   64674   64671      39   64677   64671      39   64677   64674
      40   64683   64680      39   64686   64680      39   64686   64683      40
   64692   64689      39   64695   64689      39   64695   64692      40   64701
   64698      39   64704   64698      39   64704   64701      40   64710   64707
      39   64713   64707      39   64713   64710      40   64719   64716      39
   64722   64716      39   64722   64719      40   64728   64725      39   64731
   64725      39   64731   64728      40   64737   64734      39   64740   64734
      39   64740   64737      40   64746   64743      39   64749   64743      39
   64749   64746      40   64755   64752      39   64758   64752      39   64758
   64755      40   64764   64761      39   64767   64761      39   64767   64764
      40   64773   64770      39   64776   64770      39   64776   64773      40
   64782   64779      39   64785   64779      39   64785   64782      40   64791
   64788      39   64794   64788      39   64794   64791      40   64800   64797
      39   64803   64797      39   64803   64800      40   64809   64806      39
   64812   64806      39   64812   64809      40   64818   64815      39   64821
   64815      39   64821   64818      40   64827   64824      39   64830   64824
      39   64830   64827      40   64836   64833      39   64839   64833      39
   64839   64836      40   64845   64842      39   64848   64842      39   64848
   64845      40   64854   64851      39   64857   64851      39   64857   64854
      40   64863   64860      39   64866   64860      39   64866   64863      40
   64872   64869      39   64875   64869      39   64875   64872      40   64881
   64878      39   64884   64878      39   64884   64881      40   64890   64887
      39   64893   64887      39   64893   64890      40   64899   64896      39
   64902   64896      39   64902   64899      40   64908   64905      39   64911
   64905      39   64911   64908      40   64917   64914      39   64920   64914
      39   64920   64917      40   64926   64923      39   64929   64923      39
   64929   64926      40   64935   64932      39   64938   64932      39   64938
   64935      40   64944   64941      39   64947   64941      39   64947   64944
      40   64953   64950      39   64956   64950      39   64956   64953      40
   64962   64959      39   64965   64959      39   64965   64962      40   64971
   64968      39   64974   64968      39   64974   64971      40   64980   64977
      39   64983   64977      39   64983   64980      40   64989   64986      39
   64992   64986      39   64992   64989      40   64998   64995      39   65001
   64995      39   65001   64998      40   65007   65004      39   65010   65004
      39   65010   65007      40   65016   65013      39   65019   65013      39
   65019   65016      40   65025   65022      39   65028   65022      39   65028
   65025      40   65034   65031      39   65037   65031      39   65037   65034
      40   65043   65040      39   65046   65040      39   65046   65043      40
   65052   65049      39   65055   65049      39   65055   65052      40   65061
   65058      39   65064   65058      39   65064   65061      40   65070   65067
      39   65073   65067      39   65073   65070      40   65079   65076      39
   65082   65076      39   65082   65079      40   65088   65085      39   65091
   65085      39   65091   65088      40   65097   65094      39   65100   65094
      39   65100   65097      40   65106   65103      39   65109   65103      39
   65109   65106      40   65115   65112      39   65118   65112      39   65118
   65115      40   65124   65121      39   65127   65121      39   65127   65124
      40   65133   65130      39   65136   65130      39   65136   65133      40
   65142   65139      39   65145   65139      39   65145   65142      40   65151
   65148      39   65154   65148      39   65154   65151      40   65160   65157
      39   65163   65157      39   65163   65160      40   65169   65166      39
   65172   65166      39   65172   65169      40   65178   65175      39   65181
   65175      39   65181   65178      40   65187   65184      39   65190   65184
      39   65190   65187      40   65196   65193      39   65199   65193      39
   65199   65196      40   65205   65202      39   65208   65202      39   65208
   65205      40   65214   65211      39   65217   65211      39   65217   65214
      40   65223   65220      39   65226   65220      39   65226   65223      40
   65232   65229      39   65235   65229      39   65235   65232      40   65241
   65238      39   65244   65238      39   65244   65241      40   65250   65247
      39   65253   65247      39   65253   65250      40   65259   65256      39
   65262   65256      39   65262   65259      40   65268   65265      39   65271
   65265      39   65271   65268      40   65277   65274      39   65280   65274
      39   65280   65277      40   65286   65283      39   65289   65283      39
   65289   65286      40   65295   65292      39   65298   65292      39   65298
   65295      40   65304   65301      39   65307   65301      39   65307   65304
      40   65313   65310      39   65316   65310      39   65316   65313      40
   65322   65319      39   65325   65319      39   65325   65322      40   65331
   65328      39   65334   65328      39   65334   65331      40   65340   65337
      39   65343   65337      39   65343   65340      40   65349   65346      39
   65352   65346      39   65352   65349      40   65358   65355      39   65361
   65355      39   65361   65358      40   65367   65364      39   65370   65364
      39   65370   65367      40   65376   65373      39   65379   65373      39
   65379   65376      40   65385   65382      39   65388   65382      39   65388
   65385      40   65394   65391      39   65397   65391      39   65397   65394
      40   65403   65400      39   65406   65400      39   65406   65403      40
   65412   65409      39   65415   65409      39   65415   65412      40   65421
   65418      39   65424   65418      39   65424   65421      40   65430   65427
      39   65433   65427      39   65433   65430      40   65439   65436      39
   65442   65436      39   65442   65439      40   65448   65445      39   65451
   65445      39   65451   65448      40   65457   65454      39   65460   65454
      39   65460   65457      40   65466   65463      39   65469   65463      39
   65469   65466      40   65475   65472      39   65478   65472      39   65478
   65475      40   65484   65481      39   65487   65481      39   65487   65484
      40   65493   65490      39   65496   65490      39   65496   65493      40
   65502   65499      39   65505   65499      39   65505   65502      40   65511
   65508      39   65514   65508      39   65514   65511      40   65520   65517
      39   65523   65517      39   65523   65520      40   65529   65526      39
   65532   65526      39   65532   65529      40   65538   65535      39   65541
   65535      39   65541   65538      40   65547   65544      39   65550   65544
      39   65550   65547      40   65556   65553      39   65559   65553      39
   65559   65556      40   65565   65562      39   65568   65562      39   65568
   65565      40   65574   65571      39   65577   65571      39   65577   65574
      40   65583   65580      39   65586   65580      39   65586   65583      40
   65592   65589      39   65595   65589      39   65595   65592      40   65601
   65598      39   65604   65598      39   65604   65601      40   65610   65607
      39   65613   65607      39   65613   65610      40   65619   65616      39
   65622   65616      39   65622   65619      40   65628   65625      39   65631
   65625      39   65631   65628      40   65637   65634      39   65640   65634
      39   65640   65637      40   65646   65643      39   65649   65643      39
   65649   65646      40   65655   65652      39   65658   65652      39   65658
   65655      40   65664   65661      39   65667   65661      39   65667   65664
      40   65673   65670      39   65676   65670      39   65676   65673      40
   65682   65679      39   65685   65679      39   65685   65682      40   65691
   65688      39   65694   65688      39   65694   65691      40   65700   65697
      39   65703   65697      39   65703   65700      40   65709   65706      39
   65712   65706      39   65712   65709      40   65718   65715      39   65721
   65715      39   65721   65718      40   65727   65724      39   65730   65724
      39   65730   65727      40   65736   65733      39   65739   65733      39
   65739   65736      40   65745   65742      39   65748   65742      39   65748
   65745      40   65754   65751      39   65757   65751      39   65757   65754
      40   65763   65760      39   65766   65760      39   65766   65763      40
   65772   65769      39   65775   65769      39   65775   65772      40   65781
   65778      39   65784   65778      39   65784   65781      40   65790   65787
      39   65793   65787      39   65793   65790      40   65799   65796      39
   65802   65796      39   65802   65799      40   65808   65805      39   65811
   65805      39   65811   65808      40   65817   65814      39   65820   65814
      39   65820   65817      40   65826   65823      39   65829   65823      39
   65829   65826      40   65835   65832      39   65838   65832      39   65838
   65835      40   65844   65841      39   65847   65841      39   65847   65844
      40   65853   65850      39   65856   65850      39   65856   65853      40
   65862   65859      39   65865   65859      39   65865   65862      40   65871
   65868      39   65874   65868      39   65874   65871      40   65880   65877
      39   65883   65877      39   65883   65880      40   65889   65886      39
   65892   65886      39   65892   65889      40   65898   65895      39   65901
   65895      39   65901   65898      40   65907   65904      39   65910   65904
      39   65910   65907      40   65916   65913      39   65919   65913      39
   65919   65916      40   65925   65922      39   65928   65922      39   65928
   65925      40   65934   65931      39   65937   65931      39   65937   65934
      40   65943   65940      39   65946   65940      39   65946   65943      40
   65952   65949      39   65955   65949      39   65955   65952      40   65961
   65958      39   65964   65958      39   65964   65961      40   65970   65967
      39   65973   65967      39   65973   65970      40   65979   65976      39
   65982   65976      39   65982   65979      40   65988   65985      39   65991
   65985      39   65991   65988      40   65997   65994      39   66000   65994
      39   66000   65997      40   66006   66003      39   66009   66003      39
   66009   66006      40   66015   66012      39   66018   66012      39   66018
   66015      40   66024   66021      39   66027   66021      39   66027   66024
      40   66033   66030      39   66036   66030      39   66036   66033      40
   66042   66039      39   66045   66039      39   66045   66042      40   66051
   66048      39   66054   66048      39   66054   66051      40   66060   66057
      39   66063   66057      39   66063   66060      40   66069   66066      39
   66072   66066      39   66072   66069      40   66078   66075      39   66081
   66075      39   66081   66078      40   66087   66084      39   66090   66084
      39   66090   66087      40   66096   66093      39   66099   66093      39
   66099   66096      40   66105   66102      39   66108   66102      39   66108
   66105      40   66114   66111      39   66117   66111      39   66117   66114
      40   66123   66120      39   66126   66120      39   66126   66123      40
   66132   66129      39   66135   66129      39   66135   66132      40   66141
   66138      39   66144   66138      39   66144   66141      40   66150   66147
      39   66153   66147      39   66153   66150      40   66159   66156      39
   66162   66156      39   66162   66159      40   66168   66165      39   66171
   66165      39   66171   66168      40   66177   66174      39   66180   66174
      39   66180   66177      40   66186   66183      39   66189   66183      39
   66189   66186      40   66195   66192      39   66198   66192      39   66198
   66195      40   66204   66201      39   66207   66201      39   66207   66204
      40   66213   66210      39   66216   66210      39   66216   66213      40
   66222   66219      39   66225   66219      39   66225   66222      40   66231
   66228      39   66234   66228      39   66234   66231      40   66240   66237
      39   66243   66237      39   66243   66240      40   66249   66246      39
   66252   66246      39   66252   66249      40   66258   66255      39   66261
   66255      39   66261   66258      40   66267   66264      39   66270   66264
      39   66270   66267      40   66276   66273      39   66279   66273      39
   66279   66276      40   66285   66282      39   66288   66282      39   66288
   66285      40   66294   66291      39   66297   66291      39   66297   66294
      40   66303   66300      39   66306   66300      39   66306   66303      40
   66312   66309      39   66315   66309      39   66315   66312      40   66321
   66318      39   66324   66318      39   66324   66321      40   66330   66327
      39   66333   66327      39   66333   66330      40   66339   66336      39
   66342   66336      39   66342   66339      40   66348   66345      39   66351
   66345      39   66351   66348      40   66357   66354      39   66360   66354
      39   66360   66357      40   66366   66363      39   66369   66363      39
   66369   66366      40   66375   66372      39   66378   66372      39   66378
   66375      40   66384   66381      39   66387   66381      39   66387   66384
      40   66393   66390      39   66396   66390      39   66396   66393      40
   66402   66399      39   66405   66399      39   66405   66402      40   66411
   66408      39   66414   66408      39   66414   66411      40   66420   66417
      39   66423   66417      39   66423   66420      40   66429   66426      39
   66432   66426      39   66432   66429      40   66438   66435      39   66441
   66435      39   66441   66438      40   66447   66444      39   66450   66444
      39   66450   66447      40   66456   66453      39   66459   66453      39
   66459   66456      40   66465   66462      39   66468   66462      39   66468
   66465      40   66474   66471      39   66477   66471      39   66477   66474
      40   66483   66480      39   66486   66480      39   66486   66483      40
   66492   66489      39   66495   66489      39   66495   66492      40   66501
   66498      39   66504   66498      39   66504   66501      40   66510   66507
      39   66513   66507      39   66513   66510      40   66519   66516      39
   66522   66516      39   66522   66519      40   66528   66525      39   66531
   66525      39   66531   66528      40   66537   66534      39   66540   66534
      39   66540   66537      40   66546   66543      39   66549   66543      39
   66549   66546      40   66555   66552      39   66558   66552      39   66558
   66555      40   66564   66561      39   66567   66561      39   66567   66564
      40   66573   66570      39   66576   66570      39   66576   66573      40
   66582   66579      39   66585   66579      39   66585   66582      40   66591
   66588      39   66594   66588      39   66594   66591      40   66600   66597
      39   66603   66597      39   66603   66600      40   66609   66606      39
   66612   66606      39   66612   66609      40   66618   66615      39   66621
   66615      39   66621   66618      40   66627   66624      39   66630   66624
      39   66630   66627      40   66636   66633      39   66639   66633      39
   66639   66636      40   66645   66642      39   66648   66642      39   66648
   66645      40   66654   66651      39   66657   66651      39   66657   66654
      40   66663   66660      39   66666   66660      39   66666   66663      40
   66672   66669      39   66675   66669      39   66675   66672      40   66681
   66678      39   66684   66678      39   66684   66681      40   66690   66687
      39   66693   66687      39   66693   66690      40   66699   66696      39
   66702   66696      39   66702   66699      40   66708   66705      39   66711
   66705      39   66711   66708      40   66717   66714      39   66720   66714
      39   66720   66717      40   66726   66723      39   66729   66723      39
   66729   66726      40   66735   66732      39   66738   66732      39   66738
   66735      40   66744   66741      39   66747   66741      39   66747   66744
      40   66753   66750      39   66756   66750      39   66756   66753      40
   66762   66759      39   66765   66759      39   66765   66762      40   66771
   66768      39   66774   66768      39   66774   66771      40   66780   66777
      39   66783   66777      39   66783   66780      40   66789   66786      39
   66792   66786      39   66792   66789      40   66798   66795      39   66801
   66795      39   66801   66798      40   66807   66804      39   66810   66804
      39   66810   66807      40   66816   66813      39   66819   66813      39
   66819   66816      40   66825   66822      39   66828   66822      39   66828
   66825      40   66834   66831      39   66837   66831      39   66837   66834
      40   66843   66840      39   66846   66840      39   66846   66843      40
   66852   66849      39   66855   66849      39   66855   66852      40   66861
   66858      39   66864   66858      39   66864   66861      40   66870   66867
      39   66873   66867      39   66873   66870      40   66879   66876      39
   66882   66876      39   66882   66879      40   66888   66885      39   66891
   66885      39   66891   66888      40   66897   66894      39   66900   66894
      39   66900   66897      40   66906   66903      39   66909   66903      39
   66909   66906      40   66915   66912      39   66918   66912      39   66918
   66915      40   66924   66921      39   66927   66921      39   66927   66924
      40   66933   66930      39   66936   66930      39   66936   66933      40
   66942   66939      39   66945   66939      39   66945   66942      40   66951
   66948      39   66954   66948      39   66954   66951      40   66960   66957
      39   66963   66957      39   66963   66960      40   66969   66966      39
   66972   66966      39   66972   66969      40   66978   66975      39   66981
   66975      39   66981   66978      40   66987   66984      39   66990   66984
      39   66990   66987      40   66996   66993      39   66999   66993      39
   66999   66996      40   67005   67002      39   67008   67002      39   67008
   67005      40   67014   67011      39   67017   67011      39   67017   67014
      40   67023   67020      39   67026   67020      39   67026   67023      40
   67032   67029      39   67035   67029      39   67035   67032      40   67041
   67038      39   67044   67038      39   67044   67041      40   67050   67047
      39   67053   67047      39   67053   67050      40   67059   67056      39
   67062   67056      39   67062   67059      40   67068   67065      39   67071
   67065      39   67071   67068      40   67077   67074      39   67080   67074
      39   67080   67077      40   67086   67083      39   67089   67083      39
   67089   67086      40   67095   67092      39   67098   67092      39   67098
   67095      40   67104   67101      39   67107   67101      39   67107   67104
      40   67113   67110      39   67116   67110      39   67116   67113      40
   67122   67119      39   67125   67119      39   67125   67122      40   67131
   67128      39   67134   67128      39   67134   67131      40   67140   67137
      39   67143   67137      39   67143   67140      40   67149   67146      39
   67152   67146      39   67152   67149      40   67158   67155      39   67161
   67155      39   67161   67158      40   67167   67164      39   67170   67164
      39   67170   67167      40   67176   67173      39   67179   67173      39
   67179   67176      40   67185   67182      39   67188   67182      39   67188
   67185      40   67194   67191      39   67197   67191      39   67197   67194
      40   67203   67200      39   67206   67200      39   67206   67203      40
   67212   67209      39   67215   67209      39   67215   67212      40   67221
   67218      39   67224   67218      39   67224   67221      40   67230   67227
      39   67233   67227      39   67233   67230      40   67239   67236      39
   67242   67236      39   67242   67239      40   67248   67245      39   67251
   67245      39   67251   67248      40   67257   67254      39   67260   67254
      39   67260   67257      40   67266   67263      39   67269   67263      39
   67269   67266      40   67275   67272      39   67278   67272      39   67278
   67275      40   67284   67281      39   67287   67281      39   67287   67284
      40   67293   67290      39   67296   67290      39   67296   67293      40
   67302   67299      39   67305   67299      39   67305   67302      40   67311
   67308      39   67314   67308      39   67314   67311      40   67320   67317
      39   67323   67317      39   67323   67320      40   67329   67326      39
   67332   67326      39   67332   67329      40   67338   67335      39   67341
   67335      39   67341   67338      40   67347   67344      39   67350   67344
      39   67350   67347      40   67356   67353      39   67359   67353      39
   67359   67356      40   67365   67362      39   67368   67362      39   67368
   67365      40   67374   67371      39   67377   67371      39   67377   67374
      40   67383   67380      39   67386   67380      39   67386   67383      40
   67392   67389      39   67395   67389      39   67395   67392      40   67401
   67398      39   67404   67398      39   67404   67401      40   67410   67407
      39   67413   67407      39   67413   67410      40   67419   67416      39
   67422   67416      39   67422   67419      40   67428   67425      39   67431
   67425      39   67431   67428      40   67437   67434      39   67440   67434
      39   67440   67437      40   67446   67443      39   67449   67443      39
   67449   67446      40   67455   67452      39   67458   67452      39   67458
   67455      40   67464   67461      39   67467   67461      39   67467   67464
      40   67473   67470      39   67476   67470      39   67476   67473      40
   67482   67479      39   67485   67479      39   67485   67482      40   67491
   67488      39   67494   67488      39   67494   67491      40   67500   67497
      39   67503   67497      39   67503   67500      40   67509   67506      39
   67512   67506      39   67512   67509      40   67518   67515      39   67521
   67515      39   67521   67518      40   67527   67524      39   67530   67524
      39   67530   67527      40   67536   67533      39   67539   67533      39
   67539   67536      40   67545   67542      39   67548   67542      39   67548
   67545      40   67554   67551      39   67557   67551      39   67557   67554
      40   67563   67560      39   67566   67560      39   67566   67563      40
   67572   67569      39   67575   67569      39   67575   67572      40   67581
   67578      39   67584   67578      39   67584   67581      40   67590   67587
      39   67593   67587      39   67593   67590      40   67599   67596      39
   67602   67596      39   67602   67599      40   67608   67605      39   67611
   67605      39   67611   67608      40   67617   67614      39   67620   67614
      39   67620   67617      40   67626   67623      39   67629   67623      39
   67629   67626      40   67635   67632      39   67638   67632      39   67638
   67635      40   67644   67641      39   67647   67641      39   67647   67644
      40   67653   67650      39   67656   67650      39   67656   67653      40
   67662   67659      39   67665   67659      39   67665   67662      40   67671
   67668      39   67674   67668      39   67674   67671      40   67680   67677
      39   67683   67677      39   67683   67680      40   67689   67686      39
   67692   67686      39   67692   67689      40   67698   67695      39   67701
   67695      39   67701   67698      40   67707   67704      39   67710   67704
      39   67710   67707      40   67716   67713      39   67719   67713      39
   67719   67716      40   67725   67722      39   67728   67722      39   67728
   67725      40   67734   67731      39   67737   67731      39   67737   67734
      40   67743   67740      39   67746   67740      39   67746   67743      40
   67752   67749      39   67755   67749      39   67755   67752      40   67761
   67758      39   67764   67758      39   67764   67761      40   67770   67767
      39   67773   67767      39   67773   67770      40   67779   67776      39
   67782   67776      39   67782   67779      40   67788   67785      39   67791
   67785      39   67791   67788      40   67797   67794      39   67800   67794
      39   67800   67797      40   67806   67803      39   67809   67803      39
   67809   67806      40   67815   67812      39   67818   67812      39   67818
   67815      40   67824   67821      39   67827   67821      39   67827   67824
      40   67833   67830      39   67836   67830      39   67836   67833      40
   67842   67839      39   67845   67839      39   67845   67842      40   67851
   67848      39   67854   67848      39   67854   67851      40   67860   67857
      39   67863   67857      39   67863   67860      40   67869   67866      39
   67872   67866      39   67872   67869      40   67878   67875      39   67881
   67875      39   67881   67878      40   67887   67884      39   67890   67884
      39   67890   67887      40   67896   67893      39   67899   67893      39
   67899   67896      40   67905   67902      39   67908   67902      39   67908
   67905      40   67914   67911      39   67917   67911      39   67917   67914
      40   67923   67920      39   67926   67920      39   67926   67923      40
   67932   67929      39   67935   67929      39   67935   67932      40   67941
   67938      39   67944   67938      39   67944   67941      40   67950   67947
      39   67953   67947      39   67953   67950      40   67959   67956      39
   67962   67956      39   67962   67959      40   67968   67965      39   67971
   67965      39   67971   67968      40   67977   67974      39   67980   67974
      39   67980   67977      40   67986   67983      39   67989   67983      39
   67989   67986      40   67995   67992      39   67998   67992      39   67998
   67995      40   68004   68001      39   68007   68001      39   68007   68004
      40   68013   68010      39   68016   68010      39   68016   68013      40
   68022   68019      39   68025   68019      39   68025   68022      40   68031
   68028      39   68034   68028      39   68034   68031      40   68040   68037
      39   68043   68037      39   68043   68040      40   68049   68046      39
   68052   68046      39   68052   68049      40   68058   68055      39   68061
   68055      39   68061   68058      40   68067   68064      39   68070   68064
      39   68070   68067      40   68076   68073      39   68079   68073      39
   68079   68076      40   68085   68082      39   68088   68082      39   68088
   68085      40   68094   68091      39   68097   68091      39   68097   68094
      40   68103   68100      39   68106   68100      39   68106   68103      40
   68112   68109      39   68115   68109      39   68115   68112      40   68121
   68118      39   68124   68118      39   68124   68121      40   68130   68127
      39   68133   68127      39   68133   68130      40   68139   68136      39
   68142   68136      39   68142   68139      40   68148   68145      39   68151
   68145      39   68151   68148      40   68157   68154      39   68160   68154
      39   68160   68157      40   68166   68163      39   68169   68163      39
   68169   68166      40   68175   68172      39   68178   68172      39   68178
   68175      40   68184   68181      39   68187   68181      39   68187   68184
      40   68193   68190      39   68196   68190      39   68196   68193      40
   68202   68199      39   68205   68199      39   68205   68202      40   68211
   68208      39   68214   68208      39   68214   68211      40   68220   68217
      39   68223   68217      39   68223   68220      40   68229   68226      39
   68232   68226      39   68232   68229      40   68238   68235      39   68241
   68235      39   68241   68238      40   68247   68244      39   68250   68244
      39   68250   68247      40   68256   68253      39   68259   68253      39
   68259   68256      40   68265   68262      39   68268   68262      39   68268
   68265      40   68274   68271      39   68277   68271      39   68277   68274
      40   68283   68280      39   68286   68280      39   68286   68283      40
   68292   68289      39   68295   68289      39   68295   68292      40   68301
   68298      39   68304   68298      39   68304   68301      40   68310   68307
      39   68313   68307      39   68313   68310      40   68319   68316      39
   68322   68316      39   68322   68319      40   68328   68325      39   68331
   68325      39   68331   68328      40   68337   68334      39   68340   68334
      39   68340   68337      40   68346   68343      39   68349   68343      39
   68349   68346      40   68355   68352      39   68358   68352      39   68358
   68355      40   68364   68361      39   68367   68361      39   68367   68364
      40   68373   68370      39   68376   68370      39   68376   68373      40
   68382   68379      39   68385   68379      39   68385   68382      40   68391
   68388      39   68394   68388      39   68394   68391      40   68400   68397
      39   68403   68397      39   68403   68400      40   68409   68406      39
   68412   68406      39   68412   68409      40   68418   68415      39   68421
   68415      39   68421   68418      40   68427   68424      39   68430   68424
      39   68430   68427      40   68436   68433      39   68439   68433      39
   68439   68436      40   68445   68442      39   68448   68442      39   68448
   68445      40   68454   68451      39   68457   68451      39   68457   68454
      40   68463   68460      39   68466   68460      39   68466   68463      40
   68472   68469      39   68475   68469      39   68475   68472      40   68481
   68478      39   68484   68478      39   68484   68481      40   68490   68487
      39   68493   68487      39   68493   68490      40   68499   68496      39
   68502   68496      39   68502   68499      40   68508   68505      39   68511
   68505      39   68511   68508      40   68517   68514      39   68520   68514
      39   68520   68517      40   68526   68523      39   68529   68523      39
   68529   68526      40   68535   68532      39   68538   68532      39   68538
   68535      40   68544   68541      39   68547   68541      39   68547   68544
      40   68553   68550      39   68556   68550      39   68556   68553      40
   68562   68559      39   68565   68559      39   68565   68562      40   68571
   68568      39   68574   68568      39   68574   68571      40   68580   68577
      39   68583   68577      39   68583   68580      40   68589   68586      39
   68592   68586      39   68592   68589      40   68598   68595      39   68601
   68595      39   68601   68598      40   68607   68604      39   68610   68604
      39   68610   68607      40   68616   68613      39   68619   68613      39
   68619   68616      40   68625   68622      39   68628   68622      39   68628
   68625      40   68634   68631      39   68637   68631      39   68637   68634
      40   68643   68640      39   68646   68640      39   68646   68643      40
   68652   68649      39   68655   68649      39   68655   68652      40   68661
   68658      39   68664   68658      39   68664   68661      40   68670   68667
      39   68673   68667      39   68673   68670      40   68679   68676      39
   68682   68676      39   68682   68679      40   68688   68685      39   68691
   68685      39   68691   68688      40   68697   68694      39   68700   68694
      39   68700   68697      40   68706   68703      39   68709   68703      39
   68709   68706      40   68715   68712      39   68718   68712      39   68718
   68715      40   68724   68721      39   68727   68721      39   68727   68724
      40   68733   68730      39   68736   68730      39   68736   68733      40
   68742   68739      39   68745   68739      39   68745   68742      40   68751
   68748      39   68754   68748      39   68754   68751      40   68760   68757
      39   68763   68757      39   68763   68760      40   68769   68766      39
   68772   68766      39   68772   68769      40   68778   68775      39   68781
   68775      39   68781   68778      40   68787   68784      39   68790   68784
      39   68790   68787      40   68796   68793      39   68799   68793      39
   68799   68796      40   68805   68802      39   68808   68802      39   68808
   68805      40   68814   68811      39   68817   68811      39   68817   68814
      40   68823   68820      39   68826   68820      39   68826   68823      40
   68832   68829      39   68835   68829      39   68835   68832      40   68841
   68838      39   68844   68838      39   68844   68841      40   68850   68847
      39   68853   68847      39   68853   68850      40   68859   68856      39
   68862   68856      39   68862   68859      40   68868   68865      39   68871
   68865      39   68871   68868      40   68877   68874      39   68880   68874
      39   68880   68877      40   68886   68883      39   68889   68883      39
   68889   68886      40   68895   68892      39   68898   68892      39   68898
   68895      40   68904   68901      39   68907   68901      39   68907   68904
      40   68913   68910      39   68916   68910      39   68916   68913      40
   68922   68919      39   68925   68919      39   68925   68922      40   68931
   68928      39   68934   68928      39   68934   68931      40   68940   68937
      39   68943   68937      39   68943   68940      40   68949   68946      39
   68952   68946      39   68952   68949      40   68958   68955      39   68961
   68955      39   68961   68958      40   68967   68964      39   68970   68964
      39   68970   68967      40   68976   68973      39   68979   68973      39
   68979   68976      40   68985   68982      39   68988   68982      39   68988
   68985      40   68994   68991      39   68997   68991      39   68997   68994
      40   69003   69000      39   69006   69000      39   69006   69003      40
   69012   69009      39   69015   69009      39   69015   69012      40   69021
   69018      39   69024   69018      39   69024   69021      40   69030   69027
      39   69033   69027      39   69033   69030      40   69039   69036      39
   69042   69036      39   69042   69039      40   69048   69045      39   69051
   69045      39   69051   69048      40   69057   69054      39   69060   69054
      39   69060   69057      40   69066   69063      39   69069   69063      39
   69069   69066      40   69075   69072      39   69078   69072      39   69078
   69075      40   69084   69081      39   69087   69081      39   69087   69084
      40   69093   69090      39   69096   69090      39   69096   69093      40
   69102   69099      39   69105   69099      39   69105   69102      40   69111
   69108      39   69114   69108      39   69114   69111      40   69120   69117
      39   69123   69117      39   69123   69120      40   69129   69126      39
   69132   69126      39   69132   69129      40   69138   69135      39   69141
   69135      39   69141   69138      40   69147   69144      39   69150   69144
      39   69150   69147      40   69156   69153      39   69159   69153      39
   69159   69156      40   69165   69162      39   69168   69162      39   69168
   69165      40   69174   69171      39   69177   69171      39   69177   69174
      40   69183   69180      39   69186   69180      39   69186   69183      40
   69192   69189      39   69195   69189      39   69195   69192      40   69201
   69198      39   69204   69198      39   69204   69201      40   69210   69207
      39   69213   69207      39   69213   69210      40   69219   69216      39
   69222   69216      39   69222   69219      40   69228   69225      39   69231
   69225      39   69231   69228      40   69237   69234      39   69240   69234
      39   69240   69237      40   69246   69243      39   69249   69243      39
   69249   69246      40   69255   69252      39   69258   69252      39   69258
   69255      40   69264   69261      39   69267   69261      39   69267   69264
      40   69273   69270      39   69276   69270      39   69276   69273      40
   69282   69279      39   69285   69279      39   69285   69282      40   69291
   69288      39   69294   69288      39   69294   69291      40   69300   69297
      39   69303   69297      39   69303   69300      40   69309   69306      39
   69312   69306      39   69312   69309      40   69318   69315      39   69321
   69315      39   69321   69318      40   69327   69324      39   69330   69324
      39   69330   69327      40   69336   69333      39   69339   69333      39
   69339   69336      40   69345   69342      39   69348   69342      39   69348
   69345      40   69354   69351      39   69357   69351      39   69357   69354
      40   69363   69360      39   69366   69360      39   69366   69363      40
   69372   69369      39   69375   69369      39   69375   69372      40   69381
   69378      39   69384   69378      39   69384   69381      40   69390   69387
      39   69393   69387      39   69393   69390      40   69399   69396      39
   69402   69396      39   69402   69399      40   69408   69405      39   69411
   69405      39   69411   69408      40   69417   69414      39   69420   69414
      39   69420   69417      40   69426   69423      39   69429   69423      39
   69429   69426      40   69435   69432      39   69438   69432      39   69438
   69435      40   69444   69441      39   69447   69441      39   69447   69444
      40   69453   69450      39   69456   69450      39   69456   69453      40
   69462   69459      39   69465   69459      39   69465   69462      40   69471
   69468      39   69474   69468      39   69474   69471      40   69480   69477
      39   69483   69477      39   69483   69480      40   69489   69486      39
   69492   69486      39   69492   69489      40   69498   69495      39   69501
   69495      39   69501   69498      40   69507   69504      39   69510   69504
      39   69510   69507      40   69516   69513      39   69519   69513      39
   69519   69516      40   69525   69522      39   69528   69522      39   69528
   69525      40   69534   69531      39   69537   69531      39   69537   69534
      40   69543   69540      39   69546   69540      39   69546   69543      40
   69552   69549      39   69555   69549      39   69555   69552      40   69561
   69558      39   69564   69558      39   69564   69561      40   69570   69567
      39   69573   69567      39   69573   69570      40   69579   69576      39
   69582   69576      39   69582   69579      40   69588   69585      39   69591
   69585      39   69591   69588      40   69597   69594      39   69600   69594
      39   69600   69597      40   69606   69603      39   69609   69603      39
   69609   69606      40   69615   69612      39   69618   69612      39   69618
   69615      40   69624   69621      39   69627   69621      39   69627   69624
      40   69633   69630      39   69636   69630      39   69636   69633      40
   69642   69639      39   69645   69639      39   69645   69642      40   69651
   69648      39   69654   69648      39   69654   69651      40   69660   69657
      39   69663   69657      39   69663   69660      40   69669   69666      39
   69672   69666      39   69672   69669      40   69678   69675      39   69681
   69675      39   69681   69678      40   69687   69684      39   69690   69684
      39   69690   69687      40   69696   69693      39   69699   69693      39
   69699   69696      40   69705   69702      39   69708   69702      39   69708
   69705      40   69714   69711      39   69717   69711      39   69717   69714
      40   69723   69720      39   69726   69720      39   69726   69723      40
   69732   69729      39   69735   69729      39   69735   69732      40   69741
   69738      39   69744   69738      39   69744   69741      40   69750   69747
      39   69753   69747      39   69753   69750      40   69759   69756      39
   69762   69756      39   69762   69759      40   69768   69765      39   69771
   69765      39   69771   69768      40   69777   69774      39   69780   69774
      39   69780   69777      40   69786   69783      39   69789   69783      39
   69789   69786      40   69795   69792      39   69798   69792      39   69798
   69795      40   69804   69801      39   69807   69801      39   69807   69804
      40   69813   69810      39   69816   69810      39   69816   69813      40
   69822   69819      39   69825   69819      39   69825   69822      40   69831
   69828      39   69834   69828      39   69834   69831      40   69840   69837
      39   69843   69837      39   69843   69840      40   69849   69846      39
   69852   69846      39   69852   69849      40   69858   69855      39   69861
   69855      39   69861   69858      40   69867   69864      39   69870   69864
      39   69870   69867      40   69876   69873      39   69879   69873      39
   69879   69876      40   69885   69882      39   69888   69882      39   69888
   69885      40   69894   69891      39   69897   69891      39   69897   69894
      40   69903   69900      39   69906   69900      39   69906   69903      40
   69912   69909      39   69915   69909      39   69915   69912      40   69921
   69918      39   69924   69918      39   69924   69921      40   69930   69927
      39   69933   69927      39   69933   69930      40   69939   69936      39
   69942   69936      39   69942   69939      40   69948   69945      39   69951
   69945      39   69951   69948      40   69957   69954      39   69960   69954
      39   69960   69957      40   69966   69963      39   69969   69963      39
   69969   69966      40   69975   69972      39   69978   69972      39   69978
   69975      40   69984   69981      39   69987   69981      39   69987   69984
      40   69993   69990      39   69996   69990      39   69996   69993      40
   70002   69999      39   70005   69999      39   70005   70002      40   70011
   70008      39   70014   70008      39   70014   70011      40   70020   70017
      39   70023   70017      39   70023   70020      40   70029   70026      39
   70032   70026      39   70032   70029      40   70038   70035      39   70041
   70035      39   70041   70038      40   70047   70044      39   70050   70044
      39   70050   70047      40   70056   70053      39   70059   70053      39
   70059   70056      40   70065   70062      39   70068   70062      39   70068
   70065      40   70074   70071      39   70077   70071      39   70077   70074
      40   70083   70080      39   70086   70080      39   70086   70083      40
   70092   70089      39   70095   70089      39   70095   70092      40   70101
   70098      39   70104   70098      39   70104   70101      40   70110   70107
      39   70113   70107      39   70113   70110      40   70119   70116      39
   70122   70116      39   70122   70119      40   70128   70125      39   70131
   70125      39   70131   70128      40   70137   70134      39   70140   70134
      39   70140   70137      40   70146   70143      39   70149   70143      39
   70149   70146      40   70155   70152      39   70158   70152      39   70158
   70155      40   70164   70161      39   70167   70161      39   70167   70164
      40   70173   70170      39   70176   70170      39   70176   70173      40
   70182   70179      39   70185   70179      39   70185   70182      40   70191
   70188      39   70194   70188      39   70194   70191      40   70200   70197
      39   70203   70197      39   70203   70200      40   70209   70206      39
   70212   70206      39   70212   70209      40   70218   70215      39   70221
   70215      39   70221   70218      40   70227   70224      39   70230   70224
      39   70230   70227      40   70236   70233      39   70239   70233      39
   70239   70236      40   70245   70242      39   70248   70242      39   70248
   70245      40   70254   70251      39   70257   70251      39   70257   70254
      40   70263   70260      39   70266   70260      39   70266   70263      40
   70272   70269      39   70275   70269      39   70275   70272      40   70281
   70278      39   70284   70278      39   70284   70281      40   70290   70287
      39   70293   70287      39   70293   70290      40   70299   70296      39
   70302   70296      39   70302   70299      40   70308   70305      39   70311
   70305      39   70311   70308      40   70317   70314      39   70320   70314
      39   70320   70317      40   70326   70323      39   70329   70323      39
   70329   70326      40   70335   70332      39   70338   70332      39   70338
   70335      40   70344   70341      39   70347   70341      39   70347   70344
      40   70353   70350      39   70356   70350      39   70356   70353      40
   70362   70359      39   70365   70359      39   70365   70362      40   70371
   70368      39   70374   70368      39   70374   70371      40   70380   70377
      39   70383   70377      39   70383   70380      40   70389   70386      39
   70392   70386      39   70392   70389      40   70398   70395      39   70401
   70395      39   70401   70398      40   70407   70404      39   70410   70404
      39   70410   70407      40   70416   70413      39   70419   70413      39
   70419   70416      40   70425   70422      39   70428   70422      39   70428
   70425      40   70434   70431      39   70437   70431      39   70437   70434
      40   70443   70440      39   70446   70440      39   70446   70443      40
   70452   70449      39   70455   70449      39   70455   70452      40   70461
   70458      39   70464   70458      39   70464   70461      40   70470   70467
      39   70473   70467      39   70473   70470      40   70479   70476      39
   70482   70476      39   70482   70479      40   70488   70485      39   70491
   70485      39   70491   70488      40   70497   70494      39   70500   70494
      39   70500   70497      40   70506   70503      39   70509   70503      39
   70509   70506      40   70515   70512      39   70518   70512      39   70518
   70515      40   70524   70521      39   70527   70521      39   70527   70524
      40   70533   70530      39   70536   70530      39   70536   70533      40
   70542   70539      39   70545   70539      39   70545   70542      40   70551
   70548      39   70554   70548      39   70554   70551      40   70560   70557
      39   70563   70557      39   70563   70560      40   70569   70566      39
   70572   70566      39   70572   70569      40   70578   70575      39   70581
   70575      39   70581   70578      40   70587   70584      39   70590   70584
      39   70590   70587      40   70596   70593      39   70599   70593      39
   70599   70596      40   70605   70602      39   70608   70602      39   70608
   70605      40   70614   70611      39   70617   70611      39   70617   70614
      40   70623   70620      39   70626   70620      39   70626   70623      40
   70632   70629      39   70635   70629      39   70635   70632      40   70641
   70638      39   70644   70638      39   70644   70641      40   70650   70647
      39   70653   70647      39   70653   70650      40   70659   70656      39
   70662   70656      39   70662   70659      40   70668   70665      39   70671
   70665      39   70671   70668      40   70677   70674      39   70680   70674
      39   70680   70677      40   70686   70683      39   70689   70683      39
   70689   70686      40   70695   70692      39   70698   70692      39   70698
   70695      40   70704   70701      39   70707   70701      39   70707   70704
      40   70713   70710      39   70716   70710      39   70716   70713      40
   70722   70719      39   70725   70719      39   70725   70722      40   70731
   70728      39   70734   70728      39   70734   70731      40   70740   70737
      39   70743   70737      39   70743   70740      40   70749   70746      39
   70752   70746      39   70752   70749      40   70758   70755      39   70761
   70755      39   70761   70758      40   70767   70764      39   70770   70764
      39   70770   70767      40   70776   70773      39   70779   70773      39
   70779   70776      40   70785   70782      39   70788   70782      39   70788
   70785      40   70794   70791      39   70797   70791      39   70797   70794
      40   70803   70800      39   70806   70800      39   70806   70803      40
   70812   70809      39   70815   70809      39   70815   70812      40   70821
   70818      39   70824   70818      39   70824   70821      40   70830   70827
      39   70833   70827      39   70833   70830      40   70839   70836      39
   70842   70836      39   70842   70839      40   70848   70845      39   70851
   70845      39   70851   70848      40   70857   70854      39   70860   70854
      39   70860   70857      40   70866   70863      39   70869   70863      39
   70869   70866      40   70875   70872      39   70878   70872      39   70878
   70875      40   70884   70881      39   70887   70881      39   70887   70884
      40   70893   70890      39   70896   70890      39   70896   70893      40
   70902   70899      39   70905   70899      39   70905   70902      40   70911
   70908      39   70914   70908      39   70914   70911      40   70920   70917
      39   70923   70917      39   70923   70920      40   70929   70926      39
   70932   70926      39   70932   70929      40   70938   70935      39   70941
   70935      39   70941   70938      40   70947   70944      39   70950   70944
      39   70950   70947      40   70956   70953      39   70959   70953      39
   70959   70956      40   70965   70962      39   70968   70962      39   70968
   70965      40   70974   70971      39   70977   70971      39   70977   70974
      40   70983   70980      39   70986   70980      39   70986   70983      40
   70992   70989      39   70995   70989      39   70995   70992      40   71001
   70998      39   71004   70998      39   71004   71001      40   71010   71007
      39   71013   71007      39   71013   71010      40   71019   71016      39
   71022   71016      39   71022   71019      40   71028   71025      39   71031
   71025      39   71031   71028      40   71037   71034      39   71040   71034
      39   71040   71037      40   71046   71043      39   71049   71043      39
   71049   71046      40   71055   71052      39   71058   71052      39   71058
   71055      40   71064   71061      39   71067   71061      39   71067   71064
      40   71073   71070      39   71076   71070      39   71076   71073      40
   71082   71079      39   71085   71079      39   71085   71082      40   71091
   71088      39   71094   71088      39   71094   71091      40   71100   71097
      39   71103   71097      39   71103   71100      40   71109   71106      39
   71112   71106      39   71112   71109      40   71118   71115      39   71121
   71115      39   71121   71118      40   71127   71124      39   71130   71124
      39   71130   71127      40   71136   71133      39   71139   71133      39
   71139   71136      40   71145   71142      39   71148   71142      39   71148
   71145      40   71154   71151      39   71157   71151      39   71157   71154
      40   71163   71160      39   71166   71160      39   71166   71163      40
   71172   71169      39   71175   71169      39   71175   71172      40   71181
   71178      39   71184   71178      39   71184   71181      40   71190   71187
      39   71193   71187      39   71193   71190      40   71199   71196      39
   71202   71196      39   71202   71199      40   71208   71205      39   71211
   71205      39   71211   71208      40   71217   71214      39   71220   71214
      39   71220   71217      40   71226   71223      39   71229   71223      39
   71229   71226      40   71235   71232      39   71238   71232      39   71238
   71235      40   71244   71241      39   71247   71241      39   71247   71244
      40   71253   71250      39   71256   71250      39   71256   71253      40
   71262   71259      39   71265   71259      39   71265   71262      40   71271
   71268      39   71274   71268      39   71274   71271      40   71280   71277
      39   71283   71277      39   71283   71280      40   71289   71286      39
   71292   71286      39   71292   71289      40   71298   71295      39   71301
   71295      39   71301   71298      40   71307   71304      39   71310   71304
      39   71310   71307      40   71316   71313      39   71319   71313      39
   71319   71316      40   71325   71322      39   71328   71322      39   71328
   71325      40   71334   71331      39   71337   71331      39   71337   71334
      40   71343   71340      39   71346   71340      39   71346   71343      40
   71352   71349      39   71355   71349      39   71355   71352      40   71361
   71358      39   71364   71358      39   71364   71361      40   71370   71367
      39   71373   71367      39   71373   71370      40   71379   71376      39
   71382   71376      39   71382   71379      40   71388   71385      39   71391
   71385      39   71391   71388      40   71397   71394      39   71400   71394
      39   71400   71397      40   71406   71403      39   71409   71403      39
   71409   71406      40   71415   71412      39   71418   71412      39   71418
   71415      40   71424   71421      39   71427   71421      39   71427   71424
      40   71433   71430      39   71436   71430      39   71436   71433      40
   71442   71439      39   71445   71439      39   71445   71442      40   71451
   71448      39   71454   71448      39   71454   71451      40   71460   71457
      39   71463   71457      39   71463   71460      40   71469   71466      39
   71472   71466      39   71472   71469      40   71478   71475      39   71481
   71475      39   71481   71478      40   71487   71484      39   71490   71484
      39   71490   71487      40   71496   71493      39   71499   71493      39
   71499   71496      40   71505   71502      39   71508   71502      39   71508
   71505      40   71514   71511      39   71517   71511      39   71517   71514
      40   71523   71520      39   71526   71520      39   71526   71523      40
   71532   71529      39   71535   71529      39   71535   71532      40   71541
   71538      39   71544   71538      39   71544   71541      40   71550   71547
      39   71553   71547      39   71553   71550      40   71559   71556      39
   71562   71556      39   71562   71559      40   71568   71565      39   71571
   71565      39   71571   71568      40   71577   71574      39   71580   71574
      39   71580   71577      40   71586   71583      39   71589   71583      39
   71589   71586      40   71595   71592      39   71598   71592      39   71598
   71595      40   71604   71601      39   71607   71601      39   71607   71604
      40   71613   71610      39   71616   71610      39   71616   71613      40
   71622   71619      39   71625   71619      39   71625   71622      40   71631
   71628      39   71634   71628      39   71634   71631      40   71640   71637
      39   71643   71637      39   71643   71640      40   71649   71646      39
   71652   71646      39   71652   71649      40   71658   71655      39   71661
   71655      39   71661   71658      40   71667   71664      39   71670   71664
      39   71670   71667      40   71676   71673      39   71679   71673      39
   71679   71676      40   71685   71682      39   71688   71682      39   71688
   71685      40   71694   71691      39   71697   71691      39   71697   71694
      40   71703   71700      39   71706   71700      39   71706   71703      40
   71712   71709      39   71715   71709      39   71715   71712      40   71721
   71718      39   71724   71718      39   71724   71721      40   71730   71727
      39   71733   71727      39   71733   71730      40   71739   71736      39
   71742   71736      39   71742   71739      40   71748   71745      39   71751
   71745      39   71751   71748      40   71757   71754      39   71760   71754
      39   71760   71757      40   71766   71763      39   71769   71763      39
   71769   71766      40   71775   71772      39   71778   71772      39   71778
   71775      40   71784   71781      39   71787   71781      39   71787   71784
      40   71793   71790      39   71796   71790      39   71796   71793      40
   71802   71799      39   71805   71799      39   71805   71802      40   71811
   71808      39   71814   71808      39   71814   71811      40   71820   71817
      39   71823   71817      39   71823   71820      40   71829   71826      39
   71832   71826      39   71832   71829      40   71838   71835      39   71841
   71835      39   71841   71838      40   71847   71844      39   71850   71844
      39   71850   71847      40   71856   71853      39   71859   71853      39
   71859   71856      40   71865   71862      39   71868   71862      39   71868
   71865      40   71874   71871      39   71877   71871      39   71877   71874
      40   71883   71880      39   71886   71880      39   71886   71883      40
   71892   71889      39   71895   71889      39   71895   71892      40   71901
   71898      39   71904   71898      39   71904   71901      40   71910   71907
      39   71913   71907      39   71913   71910      40   71919   71916      39
   71922   71916      39   71922   71919      40   71928   71925      39   71931
   71925      39   71931   71928      40   71937   71934      39   71940   71934
      39   71940   71937      40   71946   71943      39   71949   71943      39
   71949   71946      40   71955   71952      39   71958   71952      39   71958
   71955      40   71964   71961      39   71967   71961      39   71967   71964
      40   71973   71970      39   71976   71970      39   71976   71973      40
   71982   71979      39   71985   71979      39   71985   71982      40   71991
   71988      39   71994   71988      39   71994   71991      40   72000   71997
      39   72003   71997      39   72003   72000      40   72009   72006      39
   72012   72006      39   72012   72009      40   72018   72015      39   72021
   72015      39   72021   72018      40   72027   72024      39   72030   72024
      39   72030   72027      40   72036   72033      39   72039   72033      39
   72039   72036      40   72045   72042      39   72048   72042      39   72048
   72045      40   72054   72051      39   72057   72051      39   72057   72054
      40   72063   72060      39   72066   72060      39   72066   72063      40
   72072   72069      39   72075   72069      39   72075   72072      40   72081
   72078      39   72084   72078      39   72084   72081      40   72090   72087
      39   72093   72087      39   72093   72090      40   72099   72096      39
   72102   72096      39   72102   72099      40   72108   72105      39   72111
   72105      39   72111   72108      40   72117   72114      39   72120   72114
      39   72120   72117      40   72126   72123      39   72129   72123      39
   72129   72126      40   72135   72132      39   72138   72132      39   72138
   72135      40   72144   72141      39   72147   72141      39   72147   72144
      40   72153   72150      39   72156   72150      39   72156   72153      40
   72162   72159      39   72165   72159      39   72165   72162      40   72171
   72168      39   72174   72168      39   72174   72171      40   72180   72177
      39   72183   72177      39   72183   72180      40   72189   72186      39
   72192   72186      39   72192   72189      40   72198   72195      39   72201
   72195      39   72201   72198      40   72207   72204      39   72210   72204
      39   72210   72207      40   72216   72213      39   72219   72213      39
   72219   72216      40   72225   72222      39   72228   72222      39   72228
   72225      40   72234   72231      39   72237   72231      39   72237   72234
      40   72243   72240      39   72246   72240      39   72246   72243      40
   72252   72249      39   72255   72249      39   72255   72252      40   72261
   72258      39   72264   72258      39   72264   72261      40   72270   72267
      39   72273   72267      39   72273   72270      40   72279   72276      39
   72282   72276      39   72282   72279      40   72288   72285      39   72291
   72285      39   72291   72288      40   72297   72294      39   72300   72294
      39   72300   72297      40   72306   72303      39   72309   72303      39
   72309   72306      40   72315   72312      39   72318   72312      39   72318
   72315      40   72324   72321      39   72327   72321      39   72327   72324
      40   72333   72330      39   72336   72330      39   72336   72333      40
   72342   72339      39   72345   72339      39   72345   72342      40   72351
   72348      39   72354   72348      39   72354   72351      40   72360   72357
      39   72363   72357      39   72363   72360      40   72369   72366      39
   72372   72366      39   72372   72369      40   72378   72375      39   72381
   72375      39   72381   72378      40   72387   72384      39   72390   72384
      39   72390   72387      40   72396   72393      39   72399   72393      39
   72399   72396      40   72405   72402      39   72408   72402      39   72408
   72405      40   72414   72411      39   72417   72411      39   72417   72414
      40   72423   72420      39   72426   72420      39   72426   72423      40
   72432   72429      39   72435   72429      39   72435   72432      40   72441
   72438      39   72444   72438      39   72444   72441      40   72450   72447
      39   72453   72447      39   72453   72450      40   72459   72456      39
   72462   72456      39   72462   72459      40   72468   72465      39   72471
   72465      39   72471   72468      40   72477   72474      39   72480   72474
      39   72480   72477      40   72486   72483      39   72489   72483      39
   72489   72486      40   72495   72492      39   72498   72492      39   72498
   72495      40   72504   72501      39   72507   72501      39   72507   72504
      40   72513   72510      39   72516   72510      39   72516   72513      40
   72522   72519      39   72525   72519      39   72525   72522      40   72531
   72528      39   72534   72528      39   72534   72531      40   72540   72537
      39   72543   72537      39   72543   72540      40   72549   72546      39
   72552   72546      39   72552   72549      40   72558   72555      39   72561
   72555      39   72561   72558      40   72567   72564      39   72570   72564
      39   72570   72567      40   72576   72573      39   72579   72573      39
   72579   72576      40   72585   72582      39   72588   72582      39   72588
   72585      40   72594   72591      39   72597   72591      39   72597   72594
      40   72603   72600      39   72606   72600      39   72606   72603      40
   72612   72609      39   72615   72609      39   72615   72612      40   72621
   72618      39   72624   72618      39   72624   72621      40   72630   72627
      39   72633   72627      39   72633   72630      40   72639   72636      39
   72642   72636      39   72642   72639      40   72648   72645      39   72651
   72645      39   72651   72648      40   72657   72654      39   72660   72654
      39   72660   72657      40   72666   72663      39   72669   72663      39
   72669   72666      40   72675   72672      39   72678   72672      39   72678
   72675      40   72684   72681      39   72687   72681      39   72687   72684
      40   72693   72690      39   72696   72690      39   72696   72693      40
   72702   72699      39   72705   72699      39   72705   72702      40   72711
   72708      39   72714   72708      39   72714   72711      40   72720   72717
      39   72723   72717      39   72723   72720      40   72729   72726      39
   72732   72726      39   72732   72729      40   72738   72735      39   72741
   72735      39   72741   72738      40   72747   72744      39   72750   72744
      39   72750   72747      40   72756   72753      39   72759   72753      39
   72759   72756      40   72765   72762      39   72768   72762      39   72768
   72765      40   72774   72771      39   72777   72771      39   72777   72774
      40   72783   72780      39   72786   72780      39   72786   72783      40
   72792   72789      39   72795   72789      39   72795   72792      40   72801
   72798      39   72804   72798      39   72804   72801      40   72810   72807
      39   72813   72807      39   72813   72810      40   72819   72816      39
   72822   72816      39   72822   72819      40   72828   72825      39   72831
   72825      39   72831   72828      40   72837   72834      39   72840   72834
      39   72840   72837      40   72846   72843      39   72849   72843      39
   72849   72846      40   72855   72852      39   72858   72852      39   72858
   72855      40   72864   72861      39   72867   72861      39   72867   72864
      40   72873   72870      39   72876   72870      39   72876   72873      40
   72882   72879      39   72885   72879      39   72885   72882      40   72891
   72888      39   72894   72888      39   72894   72891      40   72900   72897
      39   72903   72897      39   72903   72900      40   72909   72906      39
   72912   72906      39   72912   72909      40   72918   72915      39   72921
   72915      39   72921   72918      40   72927   72924      39   72930   72924
      39   72930   72927      40   72936   72933      39   72939   72933      39
   72939   72936      40   72945   72942      39   72948   72942      39   72948
   72945      40   72954   72951      39   72957   72951      39   72957   72954
      40   72963   72960      39   72966   72960      39   72966   72963      40
   72972   72969      39   72975   72969      39   72975   72972      40   72981
   72978      39   72984   72978      39   72984   72981      40   72990   72987
      39   72993   72987      39   72993   72990      40   72999   72996      39
   73002   72996      39   73002   72999      40   73008   73005      39   73011
   73005      39   73011   73008      40   73017   73014      39   73020   73014
      39   73020   73017      40   73026   73023      39   73029   73023      39
   73029   73026      40   73035   73032      39   73038   73032      39   73038
   73035      40   73044   73041      39   73047   73041      39   73047   73044
      40   73053   73050      39   73056   73050      39   73056   73053      40
   73062   73059      39   73065   73059      39   73065   73062      40   73071
   73068      39   73074   73068      39   73074   73071      40   73080   73077
      39   73083   73077      39   73083   73080      40   73089   73086      39
   73092   73086      39   73092   73089      40   73098   73095      39   73101
   73095      39   73101   73098      40   73107   73104      39   73110   73104
      39   73110   73107      40   73116   73113      39   73119   73113      39
   73119   73116      40   73125   73122      39   73128   73122      39   73128
   73125      40   73134   73131      39   73137   73131      39   73137   73134
      40   73143   73140      39   73146   73140      39   73146   73143      40
   73152   73149      39   73155   73149      39   73155   73152      40   73161
   73158      39   73164   73158      39   73164   73161      40   73170   73167
      39   73173   73167      39   73173   73170      40   73179   73176      39
   73182   73176      39   73182   73179      40   73188   73185      39   73191
   73185      39   73191   73188      40   73197   73194      39   73200   73194
      39   73200   73197      40   73206   73203      39   73209   73203      39
   73209   73206      40   73215   73212      39   73218   73212      39   73218
   73215      40   73224   73221      39   73227   73221      39   73227   73224
      40   73233   73230      39   73236   73230      39   73236   73233      40
   73242   73239      39   73245   73239      39   73245   73242      40   73251
   73248      39   73254   73248      39   73254   73251      40   73260   73257
      39   73263   73257      39   73263   73260      40   73269   73266      39
   73272   73266      39   73272   73269      40   73278   73275      39   73281
   73275      39   73281   73278      40   73287   73284      39   73290   73284
      39   73290   73287      40   73296   73293      39   73299   73293      39
   73299   73296      40   73305   73302      39   73308   73302      39   73308
   73305      40   73314   73311      39   73317   73311      39   73317   73314
      40   73323   73320      39   73326   73320      39   73326   73323      40
   73332   73329      39   73335   73329      39   73335   73332      40   73341
   73338      39   73344   73338      39   73344   73341      40   73350   73347
      39   73353   73347      39   73353   73350      40   73359   73356      39
   73362   73356      39   73362   73359      40   73368   73365      39   73371
   73365      39   73371   73368      40   73377   73374      39   73380   73374
      39   73380   73377      40   73386   73383      39   73389   73383      39
   73389   73386      40   73395   73392      39   73398   73392      39   73398
   73395      40   73404   73401      39   73407   73401      39   73407   73404
      40   73413   73410      39   73416   73410      39   73416   73413      40
   73422   73419      39   73425   73419      39   73425   73422      40   73431
   73428      39   73434   73428      39   73434   73431      40   73440   73437
      39   73443   73437      39   73443   73440      40   73449   73446      39
   73452   73446      39   73452   73449      40   73458   73455      39   73461
   73455      39   73461   73458      40   73467   73464      39   73470   73464
      39   73470   73467      40   73476   73473      39   73479   73473      39
   73479   73476      40   73485   73482      39   73488   73482      39   73488
   73485      40   73494   73491      39   73497   73491      39   73497   73494
      40   73503   73500      39   73506   73500      39   73506   73503      40
   73512   73509      39   73515   73509      39   73515   73512      40   73521
   73518      39   73524   73518      39   73524   73521      40   73530   73527
      39   73533   73527      39   73533   73530      40   73539   73536      39
   73542   73536      39   73542   73539      40   73548   73545      39   73551
   73545      39   73551   73548      40   73557   73554      39   73560   73554
      39   73560   73557      40   73566   73563      39   73569   73563      39
   73569   73566      40   73575   73572      39   73578   73572      39   73578
   73575      40   73584   73581      39   73587   73581      39   73587   73584
      40   73593   73590      39   73596   73590      39   73596   73593      40
   73602   73599      39   73605   73599      39   73605   73602      40   73611
   73608      39   73614   73608      39   73614   73611      40   73620   73617
      39   73623   73617      39   73623   73620      40   73629   73626      39
   73632   73626      39   73632   73629      40   73638   73635      39   73641
   73635      39   73641   73638      40   73647   73644      39   73650   73644
      39   73650   73647      40   73656   73653      39   73659   73653      39
   73659   73656      40   73665   73662      39   73668   73662      39   73668
   73665      40   73674   73671      39   73677   73671      39   73677   73674
      40   73683   73680      39   73686   73680      39   73686   73683      40
   73692   73689      39   73695   73689      39   73695   73692      40   73701
   73698      39   73704   73698      39   73704   73701      40   73710   73707
      39   73713   73707      39   73713   73710      40   73719   73716      39
   73722   73716      39   73722   73719      40   73728   73725      39   73731
   73725      39   73731   73728      40   73737   73734      39   73740   73734
      39   73740   73737      40   73746   73743      39   73749   73743      39
   73749   73746      40   73755   73752      39   73758   73752      39   73758
   73755      40   73764   73761      39   73767   73761      39   73767   73764
      40   73773   73770      39   73776   73770      39   73776   73773      40
   73782   73779      39   73785   73779      39   73785   73782      40   73791
   73788      39   73794   73788      39   73794   73791      40   73800   73797
      39   73803   73797      39   73803   73800      40   73809   73806      39
   73812   73806      39   73812   73809      40   73818   73815      39   73821
   73815      39   73821   73818      40   73827   73824      39   73830   73824
      39   73830   73827      40   73836   73833      39   73839   73833      39
   73839   73836      40   73845   73842      39   73848   73842      39   73848
   73845      40   73854   73851      39   73857   73851      39   73857   73854
      40   73863   73860      39   73866   73860      39   73866   73863      40
   73872   73869      39   73875   73869      39   73875   73872      40   73881
   73878      39   73884   73878      39   73884   73881      40   73890   73887
      39   73893   73887      39   73893   73890      40   73899   73896      39
   73902   73896      39   73902   73899      40   73908   73905      39   73911
   73905      39   73911   73908      40   73917   73914      39   73920   73914
      39   73920   73917      40   73926   73923      39   73929   73923      39
   73929   73926      40   73935   73932      39   73938   73932      39   73938
   73935      40   73944   73941      39   73947   73941      39   73947   73944
      40   73953   73950      39   73956   73950      39   73956   73953      40
   73962   73959      39   73965   73959      39   73965   73962      40   73971
   73968      39   73974   73968      39   73974   73971      40   73980   73977
      39   73983   73977      39   73983   73980      40   73989   73986      39
   73992   73986      39   73992   73989      40   73998   73995      39   74001
   73995      39   74001   73998      40   74007   74004      39   74010   74004
      39   74010   74007      40   74016   74013      39   74019   74013      39
   74019   74016      40   74025   74022      39   74028   74022      39   74028
   74025      40   74034   74031      39   74037   74031      39   74037   74034
      40   74043   74040      39   74046   74040      39   74046   74043      40
   74052   74049      39   74055   74049      39   74055   74052      40   74061
   74058      39   74064   74058      39   74064   74061      40   74070   74067
      39   74073   74067      39   74073   74070      40   74079   74076      39
   74082   74076      39   74082   74079      40   74088   74085      39   74091
   74085      39   74091   74088      40   74097   74094      39   74100   74094
      39   74100   74097      40   74106   74103      39   74109   74103      39
   74109   74106      40   74115   74112      39   74118   74112      39   74118
   74115      40   74124   74121      39   74127   74121      39   74127   74124
      40   74133   74130      39   74136   74130      39   74136   74133      40
   74142   74139      39   74145   74139      39   74145   74142      40   74151
   74148      39   74154   74148      39   74154   74151      40   74160   74157
      39   74163   74157      39   74163   74160      40   74169   74166      39
   74172   74166      39   74172   74169      40   74178   74175      39   74181
   74175      39   74181   74178      40   74187   74184      39   74190   74184
      39   74190   74187      40   74196   74193      39   74199   74193      39
   74199   74196      40   74205   74202      39   74208   74202      39   74208
   74205      40   74214   74211      39   74217   74211      39   74217   74214
      40   74223   74220      39   74226   74220      39   74226   74223      40
   74232   74229      39   74235   74229      39   74235   74232      40   74241
   74238      39   74244   74238      39   74244   74241      40   74250   74247
      39   74253   74247      39   74253   74250      40   74259   74256      39
   74262   74256      39   74262   74259      40   74268   74265      39   74271
   74265      39   74271   74268      40   74277   74274      39   74280   74274
      39   74280   74277      40   74286   74283      39   74289   74283      39
   74289   74286      40   74295   74292      39   74298   74292      39   74298
   74295      40   74304   74301      39   74307   74301      39   74307   74304
      40   74313   74310      39   74316   74310      39   74316   74313      40
   74322   74319      39   74325   74319      39   74325   74322      40   74331
   74328      39   74334   74328      39   74334   74331      40   74340   74337
      39   74343   74337      39   74343   74340      40   74349   74346      39
   74352   74346      39   74352   74349      40   74358   74355      39   74361
   74355      39   74361   74358      40   74367   74364      39   74370   74364
      39   74370   74367      40   74376   74373      39   74379   74373      39
   74379   74376      40   74385   74382      39   74388   74382      39   74388
   74385      40   74394   74391      39   74397   74391      39   74397   74394
      40   74403   74400      39   74406   74400      39   74406   74403      40
   74412   74409      39   74415   74409      39   74415   74412      40   74421
   74418      39   74424   74418      39   74424   74421      40   74430   74427
      39   74433   74427      39   74433   74430      40   74439   74436      39
   74442   74436      39   74442   74439      40   74448   74445      39   74451
   74445      39   74451   74448      40   74457   74454      39   74460   74454
      39   74460   74457      40   74466   74463      39   74469   74463      39
   74469   74466      40   74475   74472      39   74478   74472      39   74478
   74475      40   74484   74481      39   74487   74481      39   74487   74484
      40   74493   74490      39   74496   74490      39   74496   74493      40
   74502   74499      39   74505   74499      39   74505   74502      40   74511
   74508      39   74514   74508      39   74514   74511      40   74520   74517
      39   74523   74517      39   74523   74520      40   74529   74526      39
   74532   74526      39   74532   74529      40   74538   74535      39   74541
   74535      39   74541   74538      40   74547   74544      39   74550   74544
      39   74550   74547      40   74556   74553      39   74559   74553      39
   74559   74556      40   74565   74562      39   74568   74562      39   74568
   74565      40   74574   74571      39   74577   74571      39   74577   74574
      40   74583   74580      39   74586   74580      39   74586   74583      40
   74592   74589      39   74595   74589      39   74595   74592      40   74601
   74598      39   74604   74598      39   74604   74601      40   74610   74607
      39   74613   74607      39   74613   74610      40   74619   74616      39
   74622   74616      39   74622   74619      40   74628   74625      39   74631
   74625      39   74631   74628      40   74637   74634      39   74640   74634
      39   74640   74637      40   74646   74643      39   74649   74643      39
   74649   74646      40   74655   74652      39   74658   74652      39   74658
   74655      40   74664   74661      39   74667   74661      39   74667   74664
      40   74673   74670      39   74676   74670      39   74676   74673      40
   74682   74679      39   74685   74679      39   74685   74682      40   74691
   74688      39   74694   74688      39   74694   74691      40   74700   74697
      39   74703   74697      39   74703   74700      40   74709   74706      39
   74712   74706      39   74712   74709      40   74718   74715      39   74721
   74715      39   74721   74718      40   74727   74724      39   74730   74724
      39   74730   74727      40   74736   74733      39   74739   74733      39
   74739   74736      40   74745   74742      39   74748   74742      39   74748
   74745      40   74754   74751      39   74757   74751      39   74757   74754
      40   74763   74760      39   74766   74760      39   74766   74763      40
   74772   74769      39   74775   74769      39   74775   74772      40   74781
   74778      39   74784   74778      39   74784   74781      40   74790   74787
      39   74793   74787      39   74793   74790      40   74799   74796      39
   74802   74796      39   74802   74799      40   74808   74805      39   74811
   74805      39   74811   74808      40   74817   74814      39   74820   74814
      39   74820   74817      40   74826   74823      39   74829   74823      39
   74829   74826      40   74835   74832      39   74838   74832      39   74838
   74835      40   74844   74841      39   74847   74841      39   74847   74844
      40   74853   74850      39   74856   74850      39   74856   74853      40
   74862   74859      39   74865   74859      39   74865   74862      40   74871
   74868      39   74874   74868      39   74874   74871      40   74880   74877
      39   74883   74877      39   74883   74880      40   74889   74886      39
   74892   74886      39   74892   74889      40   74898   74895      39   74901
   74895      39   74901   74898      40   74907   74904      39   74910   74904
      39   74910   74907      40   74916   74913      39   74919   74913      39
   74919   74916      40   74925   74922      39   74928   74922      39   74928
   74925      40   74934   74931      39   74937   74931      39   74937   74934
      40   74943   74940      39   74946   74940      39   74946   74943      40
   74952   74949      39   74955   74949      39   74955   74952      40   74961
   74958      39   74964   74958      39   74964   74961      40   74970   74967
      39   74973   74967      39   74973   74970      40   74979   74976      39
   74982   74976      39   74982   74979      40   74988   74985      39   74991
   74985      39   74991   74988      40   74997   74994      39   75000   74994
      39   75000   74997      40   75006   75003      39   75009   75003      39
   75009   75006      40   75015   75012      39   75018   75012      39   75018
   75015      40   75024   75021      39   75027   75021      39   75027   75024
      40   75033   75030      39   75036   75030      39   75036   75033      40
   75042   75039      39   75045   75039      39   75045   75042      40   75051
   75048      39   75054   75048      39   75054   75051      40   75060   75057
      39   75063   75057      39   75063   75060      40   75069   75066      39
   75072   75066      39   75072   75069      40   75078   75075      39   75081
   75075      39   75081   75078      40   75087   75084      39   75090   75084
      39   75090   75087      40   75096   75093      39   75099   75093      39
   75099   75096      40   75105   75102      39   75108   75102      39   75108
   75105      40   75114   75111      39   75117   75111      39   75117   75114
      40   75123   75120      39   75126   75120      39   75126   75123      40
   75132   75129      39   75135   75129      39   75135   75132      40   75141
   75138      39   75144   75138      39   75144   75141      40   75150   75147
      39   75153   75147      39   75153   75150      40   75159   75156      39
   75162   75156      39   75162   75159      40   75168   75165      39   75171
   75165      39   75171   75168      40   75177   75174      39   75180   75174
      39   75180   75177      40   75186   75183      39   75189   75183      39
   75189   75186      40   75195   75192      39   75198   75192      39   75198
   75195      40   75204   75201      39   75207   75201      39   75207   75204
      40   75213   75210      39   75216   75210      39   75216   75213      40
   75222   75219      39   75225   75219      39   75225   75222      40   75231
   75228      39   75234   75228      39   75234   75231      40   75240   75237
      39   75243   75237      39   75243   75240      40   75249   75246      39
   75252   75246      39   75252   75249      40   75258   75255      39   75261
   75255      39   75261   75258      40   75267   75264      39   75270   75264
      39   75270   75267      40   75276   75273      39   75279   75273      39
   75279   75276      40   75285   75282      39   75288   75282      39   75288
   75285      40   75294   75291      39   75297   75291      39   75297   75294
      40   75303   75300      39   75306   75300      39   75306   75303      40
   75312   75309      39   75315   75309      39   75315   75312      40   75321
   75318      39   75324   75318      39   75324   75321      40   75330   75327
      39   75333   75327      39   75333   75330      40   75339   75336      39
   75342   75336      39   75342   75339      40   75348   75345      39   75351
   75345      39   75351   75348      40   75357   75354      39   75360   75354
      39   75360   75357      40   75366   75363      39   75369   75363      39
   75369   75366      40   75375   75372      39   75378   75372      39   75378
   75375      40   75384   75381      39   75387   75381      39   75387   75384
      40   75393   75390      39   75396   75390      39   75396   75393      40
   75402   75399      39   75405   75399      39   75405   75402      40   75411
   75408      39   75414   75408      39   75414   75411      40   75420   75417
      39   75423   75417      39   75423   75420      40   75429   75426      39
   75432   75426      39   75432   75429      40   75438   75435      39   75441
   75435      39   75441   75438      40   75447   75444      39   75450   75444
      39   75450   75447      40   75456   75453      39   75459   75453      39
   75459   75456      40   75465   75462      39   75468   75462      39   75468
   75465      40   75474   75471      39   75477   75471      39   75477   75474
      40   75483   75480      39   75486   75480      39   75486   75483      40
   75492   75489      39   75495   75489      39   75495   75492      40   75501
   75498      39   75504   75498      39   75504   75501      40   75510   75507
      39   75513   75507      39   75513   75510      40   75519   75516      39
   75522   75516      39   75522   75519      40   75528   75525      39   75531
   75525      39   75531   75528      40   75537   75534      39   75540   75534
      39   75540   75537      40   75546   75543      39   75549   75543      39
   75549   75546      40   75555   75552      39   75558   75552      39   75558
   75555      40   75564   75561      39   75567   75561      39   75567   75564
      40   75573   75570      39   75576   75570      39   75576   75573      40
   75582   75579      39   75585   75579      39   75585   75582      40   75591
   75588      39   75594   75588      39   75594   75591      40   75600   75597
      39   75603   75597      39   75603   75600      40   75609   75606      39
   75612   75606      39   75612   75609      40   75618   75615      39   75621
   75615      39   75621   75618      40   75627   75624      39   75630   75624
      39   75630   75627      40   75636   75633      39   75639   75633      39
   75639   75636      40   75645   75642      39   75648   75642      39   75648
   75645      40   75654   75651      39   75657   75651      39   75657   75654
      40   75663   75660      39   75666   75660      39   75666   75663      40
   75672   75669      39   75675   75669      39   75675   75672      40   75681
   75678      39   75684   75678      39   75684   75681      40   75690   75687
      39   75693   75687      39   75693   75690      40   75699   75696      39
   75702   75696      39   75702   75699      40   75708   75705      39   75711
   75705      39   75711   75708      40   75717   75714      39   75720   75714
      39   75720   75717      40   75726   75723      39   75729   75723      39
   75729   75726      40   75735   75732      39   75738   75732      39   75738
   75735      40   75744   75741      39   75747   75741      39   75747   75744
      40   75753   75750      39   75756   75750      39   75756   75753      40
   75762   75759      39   75765   75759      39   75765   75762      40   75771
   75768      39   75774   75768      39   75774   75771      40   75780   75777
      39   75783   75777      39   75783   75780      40   75789   75786      39
   75792   75786      39   75792   75789      40   75798   75795      39   75801
   75795      39   75801   75798      40   75807   75804      39   75810   75804
      39   75810   75807      40   75816   75813      39   75819   75813      39
   75819   75816      40   75825   75822      39   75828   75822      39   75828
   75825      40   75834   75831      39   75837   75831      39   75837   75834
      40   75843   75840      39   75846   75840      39   75846   75843      40
   75852   75849      39   75855   75849      39   75855   75852      40   75861
   75858      39   75864   75858      39   75864   75861      40   75870   75867
      39   75873   75867      39   75873   75870      40   75879   75876      39
   75882   75876      39   75882   75879      40   75888   75885      39   75891
   75885      39   75891   75888      40   75897   75894      39   75900   75894
      39   75900   75897      40   75906   75903      39   75909   75903      39
   75909   75906      40   75915   75912      39   75918   75912      39   75918
   75915      40   75924   75921      39   75927   75921      39   75927   75924
      40   75933   75930      39   75936   75930      39   75936   75933      40
   75942   75939      39   75945   75939      39   75945   75942      40   75951
   75948      39   75954   75948      39   75954   75951      40   75960   75957
      39   75963   75957      39   75963   75960      40   75969   75966      39
   75972   75966      39   75972   75969      40   75978   75975      39   75981
   75975      39   75981   75978      40   75987   75984      39   75990   75984
      39   75990   75987      40   75996   75993      39   75999   75993      39
   75999   75996      40   76005   76002      39   76008   76002      39   76008
   76005      40   76014   76011      39   76017   76011      39   76017   76014
      40   76023   76020      39   76026   76020      39   76026   76023      40
   76032   76029      39   76035   76029      39   76035   76032      40   76041
   76038      39   76044   76038      39   76044   76041      40   76050   76047
      39   76053   76047      39   76053   76050      40   76059   76056      39
   76062   76056      39   76062   76059      40   76068   76065      39   76071
   76065      39   76071   76068      40   76077   76074      39   76080   76074
      39   76080   76077      40   76086   76083      39   76089   76083      39
   76089   76086      40   76095   76092      39   76098   76092      39   76098
   76095      40   76104   76101      39   76107   76101      39   76107   76104
      40   76113   76110      39   76116   76110      39   76116   76113      40
   76122   76119      39   76125   76119      39   76125   76122      40   76131
   76128      39   76134   76128      39   76134   76131      40   76140   76137
      39   76143   76137      39   76143   76140      40   76149   76146      39
   76152   76146      39   76152   76149      40   76158   76155      39   76161
   76155      39   76161   76158      40   76167   76164      39   76170   76164
      39   76170   76167      40   76176   76173      39   76179   76173      39
   76179   76176      40   76185   76182      39   76188   76182      39   76188
   76185      40   76194   76191      39   76197   76191      39   76197   76194
      40   76203   76200      39   76206   76200      39   76206   76203      40
   76212   76209      39   76215   76209      39   76215   76212      40   76221
   76218      39   76224   76218      39   76224   76221      40   76230   76227
      39   76233   76227      39   76233   76230      40   76239   76236      39
   76242   76236      39   76242   76239      40   76248   76245      39   76251
   76245      39   76251   76248      40   76257   76254      39   76260   76254
      39   76260   76257      40   76266   76263      39   76269   76263      39
   76269   76266      40   76275   76272      39   76278   76272      39   76278
   76275      40   76284   76281      39   76287   76281      39   76287   76284
      40   76293   76290      39   76296   76290      39   76296   76293      40
   76302   76299      39   76305   76299      39   76305   76302      40   76311
   76308      39   76314   76308      39   76314   76311      40   76320   76317
      39   76323   76317      39   76323   76320      40   76329   76326      39
   76332   76326      39   76332   76329      40   76338   76335      39   76341
   76335      39   76341   76338      40   76347   76344      39   76350   76344
      39   76350   76347      40   76356   76353      39   76359   76353      39
   76359   76356      40   76365   76362      39   76368   76362      39   76368
   76365      40   76374   76371      39   76377   76371      39   76377   76374
      40   76383   76380      39   76386   76380      39   76386   76383      40
   76392   76389      39   76395   76389      39   76395   76392      40   76401
   76398      39   76404   76398      39   76404   76401      40   76410   76407
      39   76413   76407      39   76413   76410      40   76419   76416      39
   76422   76416      39   76422   76419      40   76428   76425      39   76431
   76425      39   76431   76428      40   76437   76434      39   76440   76434
      39   76440   76437      40   76446   76443      39   76449   76443      39
   76449   76446      40   76455   76452      39   76458   76452      39   76458
   76455      40   76464   76461      39   76467   76461      39   76467   76464
      40   76473   76470      39   76476   76470      39   76476   76473      40
   76482   76479      39   76485   76479      39   76485   76482      40   76491
   76488      39   76494   76488      39   76494   76491      40   76500   76497
      39   76503   76497      39   76503   76500      40   76509   76506      39
   76512   76506      39   76512   76509      40   76518   76515      39   76521
   76515      39   76521   76518      40   76527   76524      39   76530   76524
      39   76530   76527      40   76536   76533      39   76539   76533      39
   76539   76536      40   76545   76542      39   76548   76542      39   76548
   76545      40   76554   76551      39   76557   76551      39   76557   76554
      40   76563   76560      39   76566   76560      39   76566   76563      40
   76572   76569      39   76575   76569      39   76575   76572      40   76581
   76578      39   76584   76578      39   76584   76581      40   76590   76587
      39   76593   76587      39   76593   76590      40   76599   76596      39
   76602   76596      39   76602   76599      40   76608   76605      39   76611
   76605      39   76611   76608      40   76617   76614      39   76620   76614
      39   76620   76617      40   76626   76623      39   76629   76623      39
   76629   76626      40   76635   76632      39   76638   76632      39   76638
   76635      40   76644   76641      39   76647   76641      39   76647   76644
      40   76653   76650      39   76656   76650      39   76656   76653      40
   76662   76659      39   76665   76659      39   76665   76662      40   76671
   76668      39   76674   76668      39   76674   76671      40   76680   76677
      39   76683   76677      39   76683   76680      40   76689   76686      39
   76692   76686      39   76692   76689      40   76698   76695      39   76701
   76695      39   76701   76698      40   76707   76704      39   76710   76704
      39   76710   76707      40   76716   76713      39   76719   76713      39
   76719   76716      40   76725   76722      39   76728   76722      39   76728
   76725      40   76734   76731      39   76737   76731      39   76737   76734
      40   76743   76740      39   76746   76740      39   76746   76743      40
   76752   76749      39   76755   76749      39   76755   76752      40   76761
   76758      39   76764   76758      39   76764   76761      40   76770   76767
      39   76773   76767      39   76773   76770      40   76779   76776      39
   76782   76776      39   76782   76779      40   76788   76785      39   76791
   76785      39   76791   76788      40   76797   76794      39   76800   76794
      39   76800   76797      40   76806   76803      39   76809   76803      39
   76809   76806      40   76815   76812      39   76818   76812      39   76818
   76815      40   76824   76821      39   76827   76821      39   76827   76824
      40   76833   76830      39   76836   76830      39   76836   76833      40
   76842   76839      39   76845   76839      39   76845   76842      40   76851
   76848      39   76854   76848      39   76854   76851      40   76860   76857
      39   76863   76857      39   76863   76860      40   76869   76866      39
   76872   76866      39   76872   76869      40   76878   76875      39   76881
   76875      39   76881   76878      40   76887   76884      39   76890   76884
      39   76890   76887      40   76896   76893      39   76899   76893      39
   76899   76896      40   76905   76902      39   76908   76902      39   76908
   76905      40   76914   76911      39   76917   76911      39   76917   76914
      40   76923   76920      39   76926   76920      39   76926   76923      40
   76932   76929      39   76935   76929      39   76935   76932      40   76941
   76938      39   76944   76938      39   76944   76941      40   76950   76947
      39   76953   76947      39   76953   76950      40   76959   76956      39
   76962   76956      39   76962   76959      40   76968   76965      39   76971
   76965      39   76971   76968      40   76977   76974      39   76980   76974
      39   76980   76977      40   76986   76983      39   76989   76983      39
   76989   76986      40   76995   76992      39   76998   76992      39   76998
   76995      40   77004   77001      39   77007   77001      39   77007   77004
      40   77013   77010      39   77016   77010      39   77016   77013      40
   77022   77019      39   77025   77019      39   77025   77022      40   77031
   77028      39   77034   77028      39   77034   77031      40   77040   77037
      39   77043   77037      39   77043   77040      40   77049   77046      39
   77052   77046      39   77052   77049      40   77058   77055      39   77061
   77055      39   77061   77058      40   77067   77064      39   77070   77064
      39   77070   77067      40   77076   77073      39   77079   77073      39
   77079   77076      40   77085   77082      39   77088   77082      39   77088
   77085      40   77094   77091      39   77097   77091      39   77097   77094
      40   77103   77100      39   77106   77100      39   77106   77103      40
   77112   77109      39   77115   77109      39   77115   77112      40   77121
   77118      39   77124   77118      39   77124   77121      40   77130   77127
      39   77133   77127      39   77133   77130      40   77139   77136      39
   77142   77136      39   77142   77139      40   77148   77145      39   77151
   77145      39   77151   77148      40   77157   77154      39   77160   77154
      39   77160   77157      40   77166   77163      39   77169   77163      39
   77169   77166      40   77175   77172      39   77178   77172      39   77178
   77175      40   77184   77181      39   77187   77181      39   77187   77184
      40   77193   77190      39   77196   77190      39   77196   77193      40
   77202   77199      39   77205   77199      39   77205   77202      40   77211
   77208      39   77214   77208      39   77214   77211      40   77220   77217
      39   77223   77217      39   77223   77220      40   77229   77226      39
   77232   77226      39   77232   77229      40   77238   77235      39   77241
   77235      39   77241   77238      40   77247   77244      39   77250   77244
      39   77250   77247      40   77256   77253      39   77259   77253      39
   77259   77256      40   77265   77262      39   77268   77262      39   77268
   77265      40   77274   77271      39   77277   77271      39   77277   77274
      40   77283   77280      39   77286   77280      39   77286   77283      40
   77292   77289      39   77295   77289      39   77295   77292      40   77301
   77298      39   77304   77298      39   77304   77301      40   77310   77307
      39   77313   77307      39   77313   77310      40   77319   77316      39
   77322   77316      39   77322   77319      40   77328   77325      39   77331
   77325      39   77331   77328      40   77337   77334      39   77340   77334
      39   77340   77337      40   77346   77343      39   77349   77343      39
   77349   77346      40   77355   77352      39   77358   77352      39   77358
   77355      40   77364   77361      39   77367   77361      39   77367   77364
      40   77373   77370      39   77376   77370      39   77376   77373      40
   77382   77379      39   77385   77379      39   77385   77382      40   77391
   77388      39   77394   77388      39   77394   77391      40   77400   77397
      39   77403   77397      39   77403   77400      40   77409   77406      39
   77412   77406      39   77412   77409      40   77418   77415      39   77421
   77415      39   77421   77418      40   77427   77424      39   77430   77424
      39   77430   77427      40   77436   77433      39   77439   77433      39
   77439   77436      40   77445   77442      39   77448   77442      39   77448
   77445      40   77454   77451      39   77457   77451      39   77457   77454
      40   77463   77460      39   77466   77460      39   77466   77463      40
   77472   77469      39   77475   77469      39   77475   77472      40   77481
   77478      39   77484   77478      39   77484   77481      40   77490   77487
      39   77493   77487      39   77493   77490      40   77499   77496      39
   77502   77496      39   77502   77499      40   77508   77505      39   77511
   77505      39   77511   77508      40   77517   77514      39   77520   77514
      39   77520   77517      40   77526   77523      39   77529   77523      39
   77529   77526      40   77535   77532      39   77538   77532      39   77538
   77535      40   77544   77541      39   77547   77541      39   77547   77544
      40   77553   77550      39   77556   77550      39   77556   77553      40
   77562   77559      39   77565   77559      39   77565   77562      40   77571
   77568      39   77574   77568      39   77574   77571      40   77580   77577
      39   77583   77577      39   77583   77580      40   77589   77586      39
   77592   77586      39   77592   77589      40   77598   77595      39   77601
   77595      39   77601   77598      40   77607   77604      39   77610   77604
      39   77610   77607      40   77616   77613      39   77619   77613      39
   77619   77616      40   77625   77622      39   77628   77622      39   77628
   77625      40   77634   77631      39   77637   77631      39   77637   77634
      40   77643   77640      39   77646   77640      39   77646   77643      40
   77652   77649      39   77655   77649      39   77655   77652      40   77661
   77658      39   77664   77658      39   77664   77661      40   77670   77667
      39   77673   77667      39   77673   77670      40   77679   77676      39
   77682   77676      39   77682   77679      40   77688   77685      39   77691
   77685      39   77691   77688      40   77697   77694      39   77700   77694
      39   77700   77697      40   77706   77703      39   77709   77703      39
   77709   77706      40   77715   77712      39   77718   77712      39   77718
   77715      40   77724   77721      39   77727   77721      39   77727   77724
      40   77733   77730      39   77736   77730      39   77736   77733      40
   77742   77739      39   77745   77739      39   77745   77742      40   77751
   77748      39   77754   77748      39   77754   77751      40   77760   77757
      39   77763   77757      39   77763   77760      40   77769   77766      39
   77772   77766      39   77772   77769      40   77778   77775      39   77781
   77775      39   77781   77778      40   77787   77784      39   77790   77784
      39   77790   77787      40   77796   77793      39   77799   77793      39
   77799   77796      40   77805   77802      39   77808   77802      39   77808
   77805      40   77814   77811      39   77817   77811      39   77817   77814
      40   77823   77820      39   77826   77820      39   77826   77823      40
   77832   77829      39   77835   77829      39   77835   77832      40   77841
   77838      39   77844   77838      39   77844   77841      40   77850   77847
      39   77853   77847      39   77853   77850      40   77859   77856      39
   77862   77856      39   77862   77859      40   77868   77865      39   77871
   77865      39   77871   77868      40   77877   77874      39   77880   77874
      39   77880   77877      40   77886   77883      39   77889   77883      39
   77889   77886      40   77895   77892      39   77898   77892      39   77898
   77895      40   77904   77901      39   77907   77901      39   77907   77904
      40   77913   77910      39   77916   77910      39   77916   77913      40
   77922   77919      39   77925   77919      39   77925   77922      40   77931
   77928      39   77934   77928      39   77934   77931      40   77940   77937
      39   77943   77937      39   77943   77940      40   77949   77946      39
   77952   77946      39   77952   77949      40   77958   77955      39   77961
   77955      39   77961   77958      40   77967   77964      39   77970   77964
      39   77970   77967      40   77976   77973      39   77979   77973      39
   77979   77976      40   77985   77982      39   77988   77982      39   77988
   77985      40   77994   77991      39   77997   77991      39   77997   77994
      40   78003   78000      39   78006   78000      39   78006   78003      40
   78012   78009      39   78015   78009      39   78015   78012      40   78021
   78018      39   78024   78018      39   78024   78021      40   78030   78027
      39   78033   78027      39   78033   78030      40   78039   78036      39
   78042   78036      39   78042   78039      40   78048   78045      39   78051
   78045      39   78051   78048      40   78057   78054      39   78060   78054
      39   78060   78057      40   78066   78063      39   78069   78063      39
   78069   78066      40   78075   78072      39   78078   78072      39   78078
   78075      40   78084   78081      39   78087   78081      39   78087   78084
      40   78093   78090      39   78096   78090      39   78096   78093      40
   78102   78099      39   78105   78099      39   78105   78102      40   78111
   78108      39   78114   78108      39   78114   78111      40   78120   78117
      39   78123   78117      39   78123   78120      40   78129   78126      39
   78132   78126      39   78132   78129      40   78138   78135      39   78141
   78135      39   78141   78138      40   78147   78144      39   78150   78144
      39   78150   78147      40   78156   78153      39   78159   78153      39
   78159   78156      40   78165   78162      39   78168   78162      39   78168
   78165      40   78174   78171      39   78177   78171      39   78177   78174
      40   78183   78180      39   78186   78180      39   78186   78183      40
   78192   78189      39   78195   78189      39   78195   78192      40   78201
   78198      39   78204   78198      39   78204   78201      40   78210   78207
      39   78213   78207      39   78213   78210      40   78219   78216      39
   78222   78216      39   78222   78219      40   78228   78225      39   78231
   78225      39   78231   78228      40   78237   78234      39   78240   78234
      39   78240   78237      40   78246   78243      39   78249   78243      39
   78249   78246      40   78255   78252      39   78258   78252      39   78258
   78255      40   78264   78261      39   78267   78261      39   78267   78264
      40   78273   78270      39   78276   78270      39   78276   78273      40
   78282   78279      39   78285   78279      39   78285   78282      40   78291
   78288      39   78294   78288      39   78294   78291      40   78300   78297
      39   78303   78297      39   78303   78300      40   78309   78306      39
   78312   78306      39   78312   78309      40   78318   78315      39   78321
   78315      39   78321   78318      40   78327   78324      39   78330   78324
      39   78330   78327      40   78336   78333      39   78339   78333      39
   78339   78336      40   78345   78342      39   78348   78342      39   78348
   78345      40   78354   78351      39   78357   78351      39   78357   78354
      40   78363   78360      39   78366   78360      39   78366   78363      40
   78372   78369      39   78375   78369      39   78375   78372      40   78381
   78378      39   78384   78378      39   78384   78381      40   78390   78387
      39   78393   78387      39   78393   78390      40   78399   78396      39
   78402   78396      39   78402   78399      40   78408   78405      39   78411
   78405      39   78411   78408      40   78417   78414      39   78420   78414
      39   78420   78417      40   78426   78423      39   78429   78423      39
   78429   78426      40   78435   78432      39   78438   78432      39   78438
   78435      40   78444   78441      39   78447   78441      39   78447   78444
      40   78453   78450      39   78456   78450      39   78456   78453      40
   78462   78459      39   78465   78459      39   78465   78462      40   78471
   78468      39   78474   78468      39   78474   78471      40   78480   78477
      39   78483   78477      39   78483   78480      40   78489   78486      39
   78492   78486      39   78492   78489      40   78498   78495      39   78501
   78495      39   78501   78498      40   78507   78504      39   78510   78504
      39   78510   78507      40   78516   78513      39   78519   78513      39
   78519   78516      40   78525   78522      39   78528   78522      39   78528
   78525      40   78534   78531      39   78537   78531      39   78537   78534
      40   78543   78540      39   78546   78540      39   78546   78543      40
   78552   78549      39   78555   78549      39   78555   78552      40   78561
   78558      39   78564   78558      39   78564   78561      40   78570   78567
      39   78573   78567      39   78573   78570      40   78579   78576      39
   78582   78576      39   78582   78579      40   78588   78585      39   78591
   78585      39   78591   78588      40   78597   78594      39   78600   78594
      39   78600   78597      40   78606   78603      39   78609   78603      39
   78609   78606      40   78615   78612      39   78618   78612      39   78618
   78615      40   78624   78621      39   78627   78621      39   78627   78624
      40   78633   78630      39   78636   78630      39   78636   78633      40
   78642   78639      39   78645   78639      39   78645   78642      40   78651
   78648      39   78654   78648      39   78654   78651      40   78660   78657
      39   78663   78657      39   78663   78660      40   78669   78666      39
   78672   78666      39   78672   78669      40   78678   78675      39   78681
   78675      39   78681   78678      40   78687   78684      39   78690   78684
      39   78690   78687      40   78696   78693      39   78699   78693      39
   78699   78696      40   78705   78702      39   78708   78702      39   78708
   78705      40   78714   78711      39   78717   78711      39   78717   78714
      40   78723   78720      39   78726   78720      39   78726   78723      40
   78732   78729      39   78735   78729      39   78735   78732      40   78741
   78738      39   78744   78738      39   78744   78741      40   78750   78747
      39   78753   78747      39   78753   78750      40   78759   78756      39
   78762   78756      39   78762   78759      40   78768   78765      39   78771
   78765      39   78771   78768      40   78777   78774      39   78780   78774
      39   78780   78777      40   78786   78783      39   78789   78783      39
   78789   78786      40   78795   78792      39   78798   78792      39   78798
   78795      40   78804   78801      39   78807   78801      39   78807   78804
      40   78813   78810      39   78816   78810      39   78816   78813      40
   78822   78819      39   78825   78819      39   78825   78822      40   78831
   78828      39   78834   78828      39   78834   78831      40   78840   78837
      39   78843   78837      39   78843   78840      40   78849   78846      39
   78852   78846      39   78852   78849      40   78858   78855      39   78861
   78855      39   78861   78858      40   78867   78864      39   78870   78864
      39   78870   78867      40   78876   78873      39   78879   78873      39
   78879   78876      40   78885   78882      39   78888   78882      39   78888
   78885      40   78894   78891      39   78897   78891      39   78897   78894
      40   78903   78900      39   78906   78900      39   78906   78903      40
   78912   78909      39   78915   78909      39   78915   78912      40   78921
   78918      39   78924   78918      39   78924   78921      40   78930   78927
      39   78933   78927      39   78933   78930      40   78939   78936      39
   78942   78936      39   78942   78939      40   78948   78945      39   78951
   78945      39   78951   78948      40   78957   78954      39   78960   78954
      39   78960   78957      40   78966   78963      39   78969   78963      39
   78969   78966      40   78975   78972      39   78978   78972      39   78978
   78975      40   78984   78981      39   78987   78981      39   78987   78984
      40   78993   78990      39   78996   78990      39   78996   78993      40
   79002   78999      39   79005   78999      39   79005   79002      40   79011
   79008      39   79014   79008      39   79014   79011      40   79020   79017
      39   79023   79017      39   79023   79020      40   79029   79026      39
   79032   79026      39   79032   79029      40   79038   79035      39   79041
   79035      39   79041   79038      40   79047   79044      39   79050   79044
      39   79050   79047      40   79056   79053      39   79059   79053      39
   79059   79056      40   79065   79062      39   79068   79062      39   79068
   79065      40   79074   79071      39   79077   79071      39   79077   79074
      40   79083   79080      39   79086   79080      39   79086   79083      40
   79092   79089      39   79095   79089      39   79095   79092      40   79101
   79098      39   79104   79098      39   79104   79101      40   79110   79107
      39   79113   79107      39   79113   79110      40   79119   79116      39
   79122   79116      39   79122   79119      40   79128   79125      39   79131
   79125      39   79131   79128      40   79137   79134      39   79140   79134
      39   79140   79137      40   79146   79143      39   79149   79143      39
   79149   79146      40   79155   79152      39   79158   79152      39   79158
   79155      40   79164   79161      39   79167   79161      39   79167   79164
      40   79173   79170      39   79176   79170      39   79176   79173      40
   79182   79179      39   79185   79179      39   79185   79182      40   79191
   79188      39   79194   79188      39   79194   79191      40   79200   79197
      39   79203   79197      39   79203   79200      40   79209   79206      39
   79212   79206      39   79212   79209      40   79218   79215      39   79221
   79215      39   79221   79218      40   79227   79224      39   79230   79224
      39   79230   79227      40   79236   79233      39   79239   79233      39
   79239   79236      40   79245   79242      39   79248   79242      39   79248
   79245      40   79254   79251      39   79257   79251      39   79257   79254
      40   79263   79260      39   79266   79260      39   79266   79263      40
   79272   79269      39   79275   79269      39   79275   79272      40   79281
   79278      39   79284   79278      39   79284   79281      40   79290   79287
      39   79293   79287      39   79293   79290      40   79299   79296      39
   79302   79296      39   79302   79299      40   79308   79305      39   79311
   79305      39   79311   79308      40   79317   79314      39   79320   79314
      39   79320   79317      40   79326   79323      39   79329   79323      39
   79329   79326      40   79335   79332      39   79338   79332      39   79338
   79335      40   79344   79341      39   79347   79341      39   79347   79344
      40   79353   79350      39   79356   79350      39   79356   79353      40
   79362   79359      39   79365   79359      39   79365   79362      40   79371
   79368      39   79374   79368      39   79374   79371      40   79380   79377
      39   79383   79377      39   79383   79380      40   79389   79386      39
   79392   79386      39   79392   79389      40   79398   79395      39   79401
   79395      39   79401   79398      40   79407   79404      39   79410   79404
      39   79410   79407      40   79416   79413      39   79419   79413      39
   79419   79416      40   79425   79422      39   79428   79422      39   79428
   79425      40   79434   79431      39   79437   79431      39   79437   79434
      40   79443   79440      39   79446   79440      39   79446   79443      40
   79452   79449      39   79455   79449      39   79455   79452      40   79461
   79458      39   79464   79458      39   79464   79461      40   79470   79467
      39   79473   79467      39   79473   79470      40   79479   79476      39
   79482   79476      39   79482   79479      40   79488   79485      39   79491
   79485      39   79491   79488      40   79497   79494      39   79500   79494
      39   79500   79497      40   79506   79503      39   79509   79503      39
   79509   79506      40   79515   79512      39   79518   79512      39   79518
   79515      40   79524   79521      39   79527   79521      39   79527   79524
      40   79533   79530      39   79536   79530      39   79536   79533      40
   79542   79539      39   79545   79539      39   79545   79542      40   79551
   79548      39   79554   79548      39   79554   79551      40   79560   79557
      39   79563   79557      39   79563   79560      40   79569   79566      39
   79572   79566      39   79572   79569      40   79578   79575      39   79581
   79575      39   79581   79578      40   79587   79584      39   79590   79584
      39   79590   79587      40   79596   79593      39   79599   79593      39
   79599   79596      40   79605   79602      39   79608   79602      39   79608
   79605      40   79614   79611      39   79617   79611      39   79617   79614
      40   79623   79620      39   79626   79620      39   79626   79623      40
   79632   79629      39   79635   79629      39   79635   79632      40   79641
   79638      39   79644   79638      39   79644   79641      40   79650   79647
      39   79653   79647      39   79653   79650      40   79659   79656      39
   79662   79656      39   79662   79659      40   79668   79665      39   79671
   79665      39   79671   79668      40   79677   79674      39   79680   79674
      39   79680   79677      40   79686   79683      39   79689   79683      39
   79689   79686      40   79695   79692      39   79698   79692      39   79698
   79695      40   79704   79701      39   79707   79701      39   79707   79704
      40   79713   79710      39   79716   79710      39   79716   79713      40
   79722   79719      39   79725   79719      39   79725   79722      40   79731
   79728      39   79734   79728      39   79734   79731      40   79740   79737
      39   79743   79737      39   79743   79740      40   79749   79746      39
   79752   79746      39   79752   79749      40   79758   79755      39   79761
   79755      39   79761   79758      40   79767   79764      39   79770   79764
      39   79770   79767      40   79776   79773      39   79779   79773      39
   79779   79776      40   79785   79782      39   79788   79782      39   79788
   79785      40   79794   79791      39   79797   79791      39   79797   79794
      40   79803   79800      39   79806   79800      39   79806   79803      40
   79812   79809      39   79815   79809      39   79815   79812      40   79821
   79818      39   79824   79818      39   79824   79821      40   79830   79827
      39   79833   79827      39   79833   79830      40   79839   79836      39
   79842   79836      39   79842   79839      40   79848   79845      39   79851
   79845      39   79851   79848      40   79857   79854      39   79860   79854
      39   79860   79857      40   79866   79863      39   79869   79863      39
   79869   79866      40   79875   79872      39   79878   79872      39   79878
   79875      40   79884   79881      39   79887   79881      39   79887   79884
      40   79893   79890      39   79896   79890      39   79896   79893      40
   79902   79899      39   79905   79899      39   79905   79902      40   79911
   79908      39   79914   79908      39   79914   79911      40   79920   79917
      39   79923   79917      39   79923   79920      40   79929   79926      39
   79932   79926      39   79932   79929      40   79938   79935      39   79941
   79935      39   79941   79938      40   79947   79944      39   79950   79944
      39   79950   79947      40   79956   79953      39   79959   79953      39
   79959   79956      40   79965   79962      39   79968   79962      39   79968
   79965      40   79974   79971      39   79977   79971      39   79977   79974
      40   79983   79980      39   79986   79980      39   79986   79983      40
   79992   79989      39   79995   79989      39   79995   79992      40   80001
   79998      39   80004   79998      39   80004   80001      40   80010   80007
      39   80013   80007      39   80013   80010      40   80019   80016      39
   80022   80016      39   80022   80019      40   80028   80025      39   80031
   80025      39   80031   80028      40   80037   80034      39   80040   80034
      39   80040   80037      40   80046   80043      39   80049   80043      39
   80049   80046      40   80055   80052      39   80058   80052      39   80058
   80055      40   80064   80061      39   80067   80061      39   80067   80064
      40   80073   80070      39   80076   80070      39   80076   80073      40
   80082   80079      39   80085   80079      39   80085   80082      40   80091
   80088      39   80094   80088      39   80094   80091      40   80100   80097
      39   80103   80097      39   80103   80100      40   80109   80106      39
   80112   80106      39   80112   80109      40   80118   80115      39   80121
   80115      39   80121   80118      40   80127   80124      39   80130   80124
      39   80130   80127      40   80136   80133      39   80139   80133      39
   80139   80136      40   80145   80142      39   80148   80142      39   80148
   80145      40   80154   80151      39   80157   80151      39   80157   80154
      40   80163   80160      39   80166   80160      39   80166   80163      40
   80172   80169      39   80175   80169      39   80175   80172      40   80181
   80178      39   80184   80178      39   80184   80181      40   80190   80187
      39   80193   80187      39   80193   80190      40   80199   80196      39
   80202   80196      39   80202   80199      40   80208   80205      39   80211
   80205      39   80211   80208      40   80217   80214      39   80220   80214
      39   80220   80217      40   80226   80223      39   80229   80223      39
   80229   80226      40   80235   80232      39   80238   80232      39   80238
   80235      40   80244   80241      39   80247   80241      39   80247   80244
      40   80253   80250      39   80256   80250      39   80256   80253      40
   80262   80259      39   80265   80259      39   80265   80262      40   80271
   80268      39   80274   80268      39   80274   80271      40   80280   80277
      39   80283   80277      39   80283   80280      40   80289   80286      39
   80292   80286      39   80292   80289      40   80298   80295      39   80301
   80295      39   80301   80298      40   80307   80304      39   80310   80304
      39   80310   80307      40   80316   80313      39   80319   80313      39
   80319   80316      40   80325   80322      39   80328   80322      39   80328
   80325      40   80334   80331      39   80337   80331      39   80337   80334
      40   80343   80340      39   80346   80340      39   80346   80343      40
   80352   80349      39   80355   80349      39   80355   80352      40   80361
   80358      39   80364   80358      39   80364   80361      40   80370   80367
      39   80373   80367      39   80373   80370      40   80379   80376      39
   80382   80376      39   80382   80379      40   80388   80385      39   80391
   80385      39   80391   80388      40   80397   80394      39   80400   80394
      39   80400   80397      40   80406   80403      39   80409   80403      39
   80409   80406      40   80415   80412      39   80418   80412      39   80418
   80415      40   80424   80421      39   80427   80421      39   80427   80424
      40   80433   80430      39   80436   80430      39   80436   80433      40
   80442   80439      39   80445   80439      39   80445   80442      40   80451
   80448      39   80454   80448      39   80454   80451      40   80460   80457
      39   80463   80457      39   80463   80460      40   80469   80466      39
   80472   80466      39   80472   80469      40   80478   80475      39   80481
   80475      39   80481   80478      40   80487   80484      39   80490   80484
      39   80490   80487      40   80496   80493      39   80499   80493      39
   80499   80496      40   80505   80502      39   80508   80502      39   80508
   80505      40   80514   80511      39   80517   80511      39   80517   80514
      40   80523   80520      39   80526   80520      39   80526   80523      40
   80532   80529      39   80535   80529      39   80535   80532      40   80541
   80538      39   80544   80538      39   80544   80541      40   80550   80547
      39   80553   80547      39   80553   80550      40   80559   80556      39
   80562   80556      39   80562   80559      40   80568   80565      39   80571
   80565      39   80571   80568      40   80577   80574      39   80580   80574
      39   80580   80577      40   80586   80583      39   80589   80583      39
   80589   80586      40   80595   80592      39   80598   80592      39   80598
   80595      40   80604   80601      39   80607   80601      39   80607   80604
      40   80613   80610      39   80616   80610      39   80616   80613      40
   80622   80619      39   80625   80619      39   80625   80622      40   80631
   80628      39   80634   80628      39   80634   80631      40   80640   80637
      39   80643   80637      39   80643   80640      40   80649   80646      39
   80652   80646      39   80652   80649      40   80658   80655      39   80661
   80655      39   80661   80658      40   80667   80664      39   80670   80664
      39   80670   80667      40   80676   80673      39   80679   80673      39
   80679   80676      40   80685   80682      39   80688   80682      39   80688
   80685      40   80694   80691      39   80697   80691      39   80697   80694
      40   80703   80700      39   80706   80700      39   80706   80703      40
   80712   80709      39   80715   80709      39   80715   80712      40   80721
   80718      39   80724   80718      39   80724   80721      40   80730   80727
      39   80733   80727      39   80733   80730      40   80739   80736      39
   80742   80736      39   80742   80739      40   80748   80745      39   80751
   80745      39   80751   80748      40   80757   80754      39   80760   80754
      39   80760   80757      40   80766   80763      39   80769   80763      39
   80769   80766      40   80775   80772      39   80778   80772      39   80778
   80775      40   80784   80781      39   80787   80781      39   80787   80784
      40   80793   80790      39   80796   80790      39   80796   80793      40
   80802   80799      39   80805   80799      39   80805   80802      40   80811
   80808      39   80814   80808      39   80814   80811      40   80820   80817
      39   80823   80817      39   80823   80820      40   80829   80826      39
   80832   80826      39   80832   80829      40   80838   80835      39   80841
   80835      39   80841   80838      40   80847   80844      39   80850   80844
      39   80850   80847      40   80856   80853      39   80859   80853      39
   80859   80856      40   80865   80862      39   80868   80862      39   80868
   80865      40   80874   80871      39   80877   80871      39   80877   80874
      40   80883   80880      39   80886   80880      39   80886   80883      40
   80892   80889      39   80895   80889      39   80895   80892      40   80901
   80898      39   80904   80898      39   80904   80901      40   80910   80907
      39   80913   80907      39   80913   80910      40   80919   80916      39
   80922   80916      39   80922   80919      40   80928   80925      39   80931
   80925      39   80931   80928      40   80937   80934      39   80940   80934
      39   80940   80937      40   80946   80943      39   80949   80943      39
   80949   80946      40   80955   80952      39   80958   80952      39   80958
   80955      40   80964   80961      39   80967   80961      39   80967   80964
      40   80973   80970      39   80976   80970      39   80976   80973      40
   80982   80979      39   80985   80979      39   80985   80982      40   80991
   80988      39   80994   80988      39   80994   80991      40   81000   80997
      39   81003   80997      39   81003   81000      40   81009   81006      39
   81012   81006      39   81012   81009      40   81018   81015      39   81021
   81015      39   81021   81018      40   81027   81024      39   81030   81024
      39   81030   81027      40   81036   81033      39   81039   81033      39
   81039   81036      40   81045   81042      39   81048   81042      39   81048
   81045      40   81054   81051      39   81057   81051      39   81057   81054
      40   81063   81060      39   81066   81060      39   81066   81063      40
   81072   81069      39   81075   81069      39   81075   81072      40   81081
   81078      39   81084   81078      39   81084   81081      40   81090   81087
      39   81093   81087      39   81093   81090      40   81099   81096      39
   81102   81096      39   81102   81099      40   81108   81105      39   81111
   81105      39   81111   81108      40   81117   81114      39   81120   81114
      39   81120   81117      40   81126   81123      39   81129   81123      39
   81129   81126      40   81135   81132      39   81138   81132      39   81138
   81135      40   81144   81141      39   81147   81141      39   81147   81144
      40   81153   81150      39   81156   81150      39   81156   81153      40
   81162   81159      39   81165   81159      39   81165   81162      40   81171
   81168      39   81174   81168      39   81174   81171      40   81180   81177
      39   81183   81177      39   81183   81180      40   81189   81186      39
   81192   81186      39   81192   81189      40   81198   81195      39   81201
   81195      39   81201   81198      40   81207   81204      39   81210   81204
      39   81210   81207      40   81216   81213      39   81219   81213      39
   81219   81216      40   81225   81222      39   81228   81222      39   81228
   81225      40   81234   81231      39   81237   81231      39   81237   81234
      40   81243   81240      39   81246   81240      39   81246   81243      40
   81252   81249      39   81255   81249      39   81255   81252      40   81261
   81258      39   81264   81258      39   81264   81261      40   81270   81267
      39   81273   81267      39   81273   81270      40   81279   81276      39
   81282   81276      39   81282   81279      40   81288   81285      39   81291
   81285      39   81291   81288      40   81297   81294      39   81300   81294
      39   81300   81297      40   81306   81303      39   81309   81303      39
   81309   81306      40   81315   81312      39   81318   81312      39   81318
   81315      40   81324   81321      39   81327   81321      39   81327   81324
      40   81333   81330      39   81336   81330      39   81336   81333      40
   81342   81339      39   81345   81339      39   81345   81342      40   81351
   81348      39   81354   81348      39   81354   81351      40   81360   81357
      39   81363   81357      39   81363   81360      40   81369   81366      39
   81372   81366      39   81372   81369      40   81378   81375      39   81381
   81375      39   81381   81378      40   81387   81384      39   81390   81384
      39   81390   81387      40   81396   81393      39   81399   81393      39
   81399   81396      40   81405   81402      39   81408   81402      39   81408
   81405      40   81414   81411      39   81417   81411      39   81417   81414
      40   81423   81420      39   81426   81420      39   81426   81423      40
   81432   81429      39   81435   81429      39   81435   81432      40   81441
   81438      39   81444   81438      39   81444   81441      40   81450   81447
      39   81453   81447      39   81453   81450      40   81459   81456      39
   81462   81456      39   81462   81459      40   81468   81465      39   81471
   81465      39   81471   81468      40   81477   81474      39   81480   81474
      39   81480   81477      40   81486   81483      39   81489   81483      39
   81489   81486      40   81495   81492      39   81498   81492      39   81498
   81495      40   81504   81501      39   81507   81501      39   81507   81504
      40   81513   81510      39   81516   81510      39   81516   81513      40
   81522   81519      39   81525   81519      39   81525   81522      40   81531
   81528      39   81534   81528      39   81534   81531      40   81540   81537
      39   81543   81537      39   81543   81540      40   81549   81546      39
   81552   81546      39   81552   81549      40   81558   81555      39   81561
   81555      39   81561   81558      40   81567   81564      39   81570   81564
      39   81570   81567      40   81576   81573      39   81579   81573      39
   81579   81576      40   81585   81582      39   81588   81582      39   81588
   81585      40   81594   81591      39   81597   81591      39   81597   81594
      40   81603   81600      39   81606   81600      39   81606   81603      40
   81612   81609      39   81615   81609      39   81615   81612      40   81621
   81618      39   81624   81618      39   81624   81621      40   81630   81627
      39   81633   81627      39   81633   81630      40   81639   81636      39
   81642   81636      39   81642   81639      40   81648   81645      39   81651
   81645      39   81651   81648      40   81657   81654      39   81660   81654
      39   81660   81657      40   81666   81663      39   81669   81663      39
   81669   81666      40   81675   81672      39   81678   81672      39   81678
   81675      40   81684   81681      39   81687   81681      39   81687   81684
      40   81693   81690      39   81696   81690      39   81696   81693      40
   81702   81699      39   81705   81699      39   81705   81702      40   81711
   81708      39   81714   81708      39   81714   81711      40   81720   81717
      39   81723   81717      39   81723   81720      40   81729   81726      39
   81732   81726      39   81732   81729      40   81738   81735      39   81741
   81735      39   81741   81738      40   81747   81744      39   81750   81744
      39   81750   81747      40   81756   81753      39   81759   81753      39
   81759   81756      40   81765   81762      39   81768   81762      39   81768
   81765      40   81774   81771      39   81777   81771      39   81777   81774
      40   81783   81780      39   81786   81780      39   81786   81783      40
   81792   81789      39   81795   81789      39   81795   81792      40   81801
   81798      39   81804   81798      39   81804   81801      40   81810   81807
      39   81813   81807      39   81813   81810      40   81819   81816      39
   81822   81816      39   81822   81819      40   81828   81825      39   81831
   81825      39   81831   81828      40   81837   81834      39   81840   81834
      39   81840   81837      40   81846   81843      39   81849   81843      39
   81849   81846      40   81855   81852      39   81858   81852      39   81858
   81855      40   81864   81861      39   81867   81861      39   81867   81864
      40   81873   81870      39   81876   81870      39   81876   81873      40
   81882   81879      39   81885   81879      39   81885   81882      40   81891
   81888      39   81894   81888      39   81894   81891      40   81900   81897
      39   81903   81897      39   81903   81900      40   81909   81906      39
   81912   81906      39   81912   81909      40   81918   81915      39   81921
   81915      39   81921   81918      40   81927   81924      39   81930   81924
      39   81930   81927      40   81936   81933      39   81939   81933      39
   81939   81936      40   81945   81942      39   81948   81942      39   81948
   81945      40   81954   81951      39   81957   81951      39   81957   81954
      40   81963   81960      39   81966   81960      39   81966   81963      40
   81972   81969      39   81975   81969      39   81975   81972      40   81981
   81978      39   81984   81978      39   81984   81981      40   81990   81987
      39   81993   81987      39   81993   81990      40   81999   81996      39
   82002   81996      39   82002   81999      40   82008   82005      39   82011
   82005      39   82011   82008      40   82017   82014      39   82020   82014
      39   82020   82017      40   82026   82023      39   82029   82023      39
   82029   82026      40   82035   82032      39   82038   82032      39   82038
   82035      40   82044   82041      39   82047   82041      39   82047   82044
      40   82053   82050      39   82056   82050      39   82056   82053      40
   82062   82059      39   82065   82059      39   82065   82062      40   82071
   82068      39   82074   82068      39   82074   82071      40   82080   82077
      39   82083   82077      39   82083   82080      40   82089   82086      39
   82092   82086      39   82092   82089      40   82098   82095      39   82101
   82095      39   82101   82098      40   82107   82104      39   82110   82104
      39   82110   82107      40   82116   82113      39   82119   82113      39
   82119   82116      40   82125   82122      39   82128   82122      39   82128
   82125      40   82134   82131      39   82137   82131      39   82137   82134
      40   82143   82140      39   82146   82140      39   82146   82143      40
   82152   82149      39   82155   82149      39   82155   82152      40   82161
   82158      39   82164   82158      39   82164   82161      40   82170   82167
      39   82173   82167      39   82173   82170      40   82179   82176      39
   82182   82176      39   82182   82179      40   82188   82185      39   82191
   82185      39   82191   82188      40   82197   82194      39   82200   82194
      39   82200   82197      40   82206   82203      39   82209   82203      39
   82209   82206      40   82215   82212      39   82218   82212      39   82218
   82215      40   82224   82221      39   82227   82221      39   82227   82224
      40   82233   82230      39   82236   82230      39   82236   82233      40
   82242   82239      39   82245   82239      39   82245   82242      40   82251
   82248      39   82254   82248      39   82254   82251      40   82260   82257
      39   82263   82257      39   82263   82260      40   82269   82266      39
   82272   82266      39   82272   82269      40   82278   82275      39   82281
   82275      39   82281   82278      40   82287   82284      39   82290   82284
      39   82290   82287      40   82296   82293      39   82299   82293      39
   82299   82296      40   82305   82302      39   82308   82302      39   82308
   82305      40   82314   82311      39   82317   82311      39   82317   82314
      40   82323   82320      39   82326   82320      39   82326   82323      40
   82332   82329      39   82335   82329      39   82335   82332      40   82341
   82338      39   82344   82338      39   82344   82341      40   82350   82347
      39   82353   82347      39   82353   82350      40   82359   82356      39
   82362   82356      39   82362   82359      40   82368   82365      39   82371
   82365      39   82371   82368      40   82377   82374      39   82380   82374
      39   82380   82377      40   82386   82383      39   82389   82383      39
   82389   82386      40   82395   82392      39   82398   82392      39   82398
   82395      40   82404   82401      39   82407   82401      39   82407   82404
      40   82413   82410      39   82416   82410      39   82416   82413      40
   82422   82419      39   82425   82419      39   82425   82422      40   82431
   82428      39   82434   82428      39   82434   82431      40   82440   82437
      39   82443   82437      39   82443   82440      40   82449   82446      39
   82452   82446      39   82452   82449      40   82458   82455      39   82461
   82455      39   82461   82458      40   82467   82464      39   82470   82464
      39   82470   82467      40   82476   82473      39   82479   82473      39
   82479   82476      40   82485   82482      39   82488   82482      39   82488
   82485      40   82494   82491      39   82497   82491      39   82497   82494
      40   82503   82500      39   82506   82500      39   82506   82503      40
   82512   82509      39   82515   82509      39   82515   82512      40   82521
   82518      39   82524   82518      39   82524   82521      40   82530   82527
      39   82533   82527      39   82533   82530      40   82539   82536      39
   82542   82536      39   82542   82539      40   82548   82545      39   82551
   82545      39   82551   82548      40   82557   82554      39   82560   82554
      39   82560   82557      40   82566   82563      39   82569   82563      39
   82569   82566      40   82575   82572      39   82578   82572      39   82578
   82575      40   82584   82581      39   82587   82581      39   82587   82584
      40   82593   82590      39   82596   82590      39   82596   82593      40
   82602   82599      39   82605   82599      39   82605   82602      40   82611
   82608      39   82614   82608      39   82614   82611      40   82620   82617
      39   82623   82617      39   82623   82620      40   82629   82626      39
   82632   82626      39   82632   82629      40   82638   82635      39   82641
   82635      39   82641   82638      40   82647   82644      39   82650   82644
      39   82650   82647      40   82656   82653      39   82659   82653      39
   82659   82656      40   82665   82662      39   82668   82662      39   82668
   82665      40   82674   82671      39   82677   82671      39   82677   82674
      40   82683   82680      39   82686   82680      39   82686   82683      40
   82692   82689      39   82695   82689      39   82695   82692      40   82701
   82698      39   82704   82698      39   82704   82701      40   82710   82707
      39   82713   82707      39   82713   82710      40   82719   82716      39
   82722   82716      39   82722   82719      40   82728   82725      39   82731
   82725      39   82731   82728      40   82737   82734      39   82740   82734
      39   82740   82737      40   82746   82743      39   82749   82743      39
   82749   82746      40   82755   82752      39   82758   82752      39   82758
   82755      40   82764   82761      39   82767   82761      39   82767   82764
      40   82773   82770      39   82776   82770      39   82776   82773      40
   82782   82779      39   82785   82779      39   82785   82782      40   82791
   82788      39   82794   82788      39   82794   82791      40   82800   82797
      39   82803   82797      39   82803   82800      40   82809   82806      39
   82812   82806      39   82812   82809      40   82818   82815      39   82821
   82815      39   82821   82818      40   82827   82824      39   82830   82824
      39   82830   82827      40   82836   82833      39   82839   82833      39
   82839   82836      40   82845   82842      39   82848   82842      39   82848
   82845      40   82854   82851      39   82857   82851      39   82857   82854
      40   82863   82860      39   82866   82860      39   82866   82863      40
   82872   82869      39   82875   82869      39   82875   82872      40   82881
   82878      39   82884   82878      39   82884   82881      40   82890   82887
      39   82893   82887      39   82893   82890      40   82899   82896      39
   82902   82896      39   82902   82899      40   82908   82905      39   82911
   82905      39   82911   82908      40   82917   82914      39   82920   82914
      39   82920   82917      40   82926   82923      39   82929   82923      39
   82929   82926      40   82935   82932      39   82938   82932      39   82938
   82935      40   82944   82941      39   82947   82941      39   82947   82944
      40   82953   82950      39   82956   82950      39   82956   82953      40
   82962   82959      39   82965   82959      39   82965   82962      40   82971
   82968      39   82974   82968      39   82974   82971      40   82980   82977
      39   82983   82977      39   82983   82980      40   82989   82986      39
   82992   82986      39   82992   82989      40   82998   82995      39   83001
   82995      39   83001   82998      40   83007   83004      39   83010   83004
      39   83010   83007      40   83016   83013      39   83019   83013      39
   83019   83016      40   83025   83022      39   83028   83022      39   83028
   83025      40   83034   83031      39   83037   83031      39   83037   83034
      40   83043   83040      39   83046   83040      39   83046   83043      40
   83052   83049      39   83055   83049      39   83055   83052      40   83061
   83058      39   83064   83058      39   83064   83061      40   83070   83067
      39   83073   83067      39   83073   83070      40   83079   83076      39
   83082   83076      39   83082   83079      40   83088   83085      39   83091
   83085      39   83091   83088      40   83097   83094      39   83100   83094
      39   83100   83097      40   83106   83103      39   83109   83103      39
   83109   83106      40   83115   83112      39   83118   83112      39   83118
   83115      40   83124   83121      39   83127   83121      39   83127   83124
      40   83133   83130      39   83136   83130      39   83136   83133      40
   83142   83139      39   83145   83139      39   83145   83142      40   83151
   83148      39   83154   83148      39   83154   83151      40   83160   83157
      39   83163   83157      39   83163   83160      40   83169   83166      39
   83172   83166      39   83172   83169      40   83178   83175      39   83181
   83175      39   83181   83178      40   83187   83184      39   83190   83184
      39   83190   83187      40   83196   83193      39   83199   83193      39
   83199   83196      40   83205   83202      39   83208   83202      39   83208
   83205      40   83214   83211      39   83217   83211      39   83217   83214
      40   83223   83220      39   83226   83220      39   83226   83223      40
   83232   83229      39   83235   83229      39   83235   83232      40   83241
   83238      39   83244   83238      39   83244   83241      40   83250   83247
      39   83253   83247      39   83253   83250      40   83259   83256      39
   83262   83256      39   83262   83259      40   83268   83265      39   83271
   83265      39   83271   83268      40   83277   83274      39   83280   83274
      39   83280   83277      40   83286   83283      39   83289   83283      39
   83289   83286      40   83295   83292      39   83298   83292      39   83298
   83295      40   83304   83301      39   83307   83301      39   83307   83304
      40   83313   83310      39   83316   83310      39   83316   83313      40
   83322   83319      39   83325   83319      39   83325   83322      40   83331
   83328      39   83334   83328      39   83334   83331      40   83340   83337
      39   83343   83337      39   83343   83340      40   83349   83346      39
   83352   83346      39   83352   83349      40   83358   83355      39   83361
   83355      39   83361   83358      40   83367   83364      39   83370   83364
      39   83370   83367      40   83376   83373      39   83379   83373      39
   83379   83376      40   83385   83382      39   83388   83382      39   83388
   83385      40   83394   83391      39   83397   83391      39   83397   83394
      40   83403   83400      39   83406   83400      39   83406   83403      40
   83412   83409      39   83415   83409      39   83415   83412      40   83421
   83418      39   83424   83418      39   83424   83421      40   83430   83427
      39   83433   83427      39   83433   83430      40   83439   83436      39
   83442   83436      39   83442   83439      40   83448   83445      39   83451
   83445      39   83451   83448      40   83457   83454      39   83460   83454
      39   83460   83457      40   83466   83463      39   83469   83463      39
   83469   83466      40   83475   83472      39   83478   83472      39   83478
   83475      40   83484   83481      39   83487   83481      39   83487   83484
      40   83493   83490      39   83496   83490      39   83496   83493      40
   83502   83499      39   83505   83499      39   83505   83502      40   83511
   83508      39   83514   83508      39   83514   83511      40   83520   83517
      39   83523   83517      39   83523   83520      40   83529   83526      39
   83532   83526      39   83532   83529      40   83538   83535      39   83541
   83535      39   83541   83538      40   83547   83544      39   83550   83544
      39   83550   83547      40   83556   83553      39   83559   83553      39
   83559   83556      40   83565   83562      39   83568   83562      39   83568
   83565      40   83574   83571      39   83577   83571      39   83577   83574
      40   83583   83580      39   83586   83580      39   83586   83583      40
   83592   83589      39   83595   83589      39   83595   83592      40   83601
   83598      39   83604   83598      39   83604   83601      40   83610   83607
      39   83613   83607      39   83613   83610      40   83619   83616      39
   83622   83616      39   83622   83619      40   83628   83625      39   83631
   83625      39   83631   83628      40   83637   83634      39   83640   83634
      39   83640   83637      40   83646   83643      39   83649   83643      39
   83649   83646      40   83655   83652      39   83658   83652      39   83658
   83655      40   83664   83661      39   83667   83661      39   83667   83664
      40   83673   83670      39   83676   83670      39   83676   83673      40
   83682   83679      39   83685   83679      39   83685   83682      40   83691
   83688      39   83694   83688      39   83694   83691      40   83700   83697
      39   83703   83697      39   83703   83700      40   83709   83706      39
   83712   83706      39   83712   83709      40   83718   83715      39   83721
   83715      39   83721   83718      40   83727   83724      39   83730   83724
      39   83730   83727      40   83736   83733      39   83739   83733      39
   83739   83736      40   83745   83742      39   83748   83742      39   83748
   83745      40   83754   83751      39   83757   83751      39   83757   83754
      40   83763   83760      39   83766   83760      39   83766   83763      40
   83772   83769      39   83775   83769      39   83775   83772      40   83781
   83778      39   83784   83778      39   83784   83781      40   83790   83787
      39   83793   83787      39   83793   83790      40   83799   83796      39
   83802   83796      39   83802   83799      40   83808   83805      39   83811
   83805      39   83811   83808      40   83817   83814      39   83820   83814
      39   83820   83817      40   83826   83823      39   83829   83823      39
   83829   83826      40   83835   83832      39   83838   83832      39   83838
   83835      40   83844   83841      39   83847   83841      39   83847   83844
      40   83853   83850      39   83856   83850      39   83856   83853      40
   83862   83859      39   83865   83859      39   83865   83862      40   83871
   83868      39   83874   83868      39   83874   83871      40   83880   83877
      39   83883   83877      39   83883   83880      40   83889   83886      39
   83892   83886      39   83892   83889      40   83898   83895      39   83901
   83895      39   83901   83898      40   83907   83904      39   83910   83904
      39   83910   83907      40   83916   83913      39   83919   83913      39
   83919   83916      40   83925   83922      39   83928   83922      39   83928
   83925      40   83934   83931      39   83937   83931      39   83937   83934
      40   83943   83940      39   83946   83940      39   83946   83943      40
   83952   83949      39   83955   83949      39   83955   83952      40   83961
   83958      39   83964   83958      39   83964   83961      40   83970   83967
      39   83973   83967      39   83973   83970      40   83979   83976      39
   83982   83976      39   83982   83979      40   83988   83985      39   83991
   83985      39   83991   83988      40   83997   83994      39   84000   83994
      39   84000   83997      40   84006   84003      39   84009   84003      39
   84009   84006      40   84015   84012      39   84018   84012      39   84018
   84015      40   84024   84021      39   84027   84021      39   84027   84024
      40   84033   84030      39   84036   84030      39   84036   84033      40
   84042   84039      39   84045   84039      39   84045   84042      40   84051
   84048      39   84054   84048      39   84054   84051      40   84060   84057
      39   84063   84057      39   84063   84060      40   84069   84066      39
   84072   84066      39   84072   84069      40   84078   84075      39   84081
   84075      39   84081   84078      40   84087   84084      39   84090   84084
      39   84090   84087      40   84096   84093      39   84099   84093      39
   84099   84096      40   84105   84102      39   84108   84102      39   84108
   84105      40   84114   84111      39   84117   84111      39   84117   84114
      40   84123   84120      39   84126   84120      39   84126   84123      40
   84132   84129      39   84135   84129      39   84135   84132      40   84141
   84138      39   84144   84138      39   84144   84141      40   84150   84147
      39   84153   84147      39   84153   84150      40   84159   84156      39
   84162   84156      39   84162   84159      40   84168   84165      39   84171
   84165      39   84171   84168      40   84177   84174      39   84180   84174
      39   84180   84177      40   84186   84183      39   84189   84183      39
   84189   84186      40   84195   84192      39   84198   84192      39   84198
   84195      40   84204   84201      39   84207   84201      39   84207   84204
      40   84213   84210      39   84216   84210      39   84216   84213      40
   84222   84219      39   84225   84219      39   84225   84222      40   84231
   84228      39   84234   84228      39   84234   84231      40   84240   84237
      39   84243   84237      39   84243   84240      40   84249   84246      39
   84252   84246      39   84252   84249      40   84258   84255      39   84261
   84255      39   84261   84258      40   84267   84264      39   84270   84264
      39   84270   84267      40   84276   84273      39   84279   84273      39
   84279   84276      40   84285   84282      39   84288   84282      39   84288
   84285      40   84294   84291      39   84297   84291      39   84297   84294
      40   84303   84300      39   84306   84300      39   84306   84303      40
   84312   84309      39   84315   84309      39   84315   84312      40   84321
   84318      39   84324   84318      39   84324   84321      40   84330   84327
      39   84333   84327      39   84333   84330      40   84339   84336      39
   84342   84336      39   84342   84339      40   84348   84345      39   84351
   84345      39   84351   84348      40   84357   84354      39   84360   84354
      39   84360   84357      40   84366   84363      39   84369   84363      39
   84369   84366      40   84375   84372      39   84378   84372      39   84378
   84375      40   84384   84381      39   84387   84381      39   84387   84384
      40   84393   84390      39   84396   84390      39   84396   84393      40
   84402   84399      39   84405   84399      39   84405   84402      40   84411
   84408      39   84414   84408      39   84414   84411      40   84420   84417
      39   84423   84417      39   84423   84420      40   84429   84426      39
   84432   84426      39   84432   84429      40   84438   84435      39   84441
   84435      39   84441   84438      40   84447   84444      39   84450   84444
      39   84450   84447      40   84456   84453      39   84459   84453      39
   84459   84456      40   84465   84462      39   84468   84462      39   84468
   84465      40   84474   84471      39   84477   84471      39   84477   84474
      40   84483   84480      39   84486   84480      39   84486   84483      40
   84492   84489      39   84495   84489      39   84495   84492      40   84501
   84498      39   84504   84498      39   84504   84501      40   84510   84507
      39   84513   84507      39   84513   84510      40   84519   84516      39
   84522   84516      39   84522   84519      40   84528   84525      39   84531
   84525      39   84531   84528      40   84537   84534      39   84540   84534
      39   84540   84537      40   84546   84543      39   84549   84543      39
   84549   84546      40   84555   84552      39   84558   84552      39   84558
   84555      40   84564   84561      39   84567   84561      39   84567   84564
      40   84573   84570      39   84576   84570      39   84576   84573      40
   84582   84579      39   84585   84579      39   84585   84582      40   84591
   84588      39   84594   84588      39   84594   84591      40   84600   84597
      39   84603   84597      39   84603   84600      40   84609   84606      39
   84612   84606      39   84612   84609      40   84618   84615      39   84621
   84615      39   84621   84618      40   84627   84624      39   84630   84624
      39   84630   84627      40   84636   84633      39   84639   84633      39
   84639   84636      40   84645   84642      39   84648   84642      39   84648
   84645      40   84654   84651      39   84657   84651      39   84657   84654
      40   84663   84660      39   84666   84660      39   84666   84663      40
   84672   84669      39   84675   84669      39   84675   84672      40   84681
   84678      39   84684   84678      39   84684   84681      40   84690   84687
      39   84693   84687      39   84693   84690      40   84699   84696      39
   84702   84696      39   84702   84699      40   84708   84705      39   84711
   84705      39   84711   84708      40   84717   84714      39   84720   84714
      39   84720   84717      40   84726   84723      39   84729   84723      39
   84729   84726      40   84735   84732      39   84738   84732      39   84738
   84735      40   84744   84741      39   84747   84741      39   84747   84744
      40   84753   84750      39   84756   84750      39   84756   84753      40
   84762   84759      39   84765   84759      39   84765   84762      40   84771
   84768      39   84774   84768      39   84774   84771      40   84780   84777
      39   84783   84777      39   84783   84780      40   84789   84786      39
   84792   84786      39   84792   84789      40   84798   84795      39   84801
   84795      39   84801   84798      40   84807   84804      39   84810   84804
      39   84810   84807      40   84816   84813      39   84819   84813      39
   84819   84816      40   84825   84822      39   84828   84822      39   84828
   84825      40   84834   84831      39   84837   84831      39   84837   84834
      40   84843   84840      39   84846   84840      39   84846   84843      40
   84852   84849      39   84855   84849      39   84855   84852      40   84861
   84858      39   84864   84858      39   84864   84861      40   84870   84867
      39   84873   84867      39   84873   84870      40   84879   84876      39
   84882   84876      39   84882   84879      40   84888   84885      39   84891
   84885      39   84891   84888      40   84897   84894      39   84900   84894
      39   84900   84897      40   84906   84903      39   84909   84903      39
   84909   84906      40   84915   84912      39   84918   84912      39   84918
   84915      40   84924   84921      39   84927   84921      39   84927   84924
      40   84933   84930      39   84936   84930      39   84936   84933      40
   84942   84939      39   84945   84939      39   84945   84942      40   84951
   84948      39   84954   84948      39   84954   84951      40   84960   84957
      39   84963   84957      39   84963   84960      40   84969   84966      39
   84972   84966      39   84972   84969      40   84978   84975      39   84981
   84975      39   84981   84978      40   84987   84984      39   84990   84984
      39   84990   84987      40   84996   84993      39   84999   84993      39
   84999   84996      40   85005   85002      39   85008   85002      39   85008
   85005      40   85014   85011      39   85017   85011      39   85017   85014
      40   85023   85020      39   85026   85020      39   85026   85023      40
   85032   85029      39   85035   85029      39   85035   85032      40   85041
   85038      39   85044   85038      39   85044   85041      40   85050   85047
      39   85053   85047      39   85053   85050      40   85059   85056      39
   85062   85056      39   85062   85059      40   85068   85065      39   85071
   85065      39   85071   85068      40   85077   85074      39   85080   85074
      39   85080   85077      40   85086   85083      39   85089   85083      39
   85089   85086      40   85095   85092      39   85098   85092      39   85098
   85095      40   85104   85101      39   85107   85101      39   85107   85104
      40   85113   85110      39   85116   85110      39   85116   85113      40
   85122   85119      39   85125   85119      39   85125   85122      40   85131
   85128      39   85134   85128      39   85134   85131      40   85140   85137
      39   85143   85137      39   85143   85140      40   85149   85146      39
   85152   85146      39   85152   85149      40   85158   85155      39   85161
   85155      39   85161   85158      40   85167   85164      39   85170   85164
      39   85170   85167      40   85176   85173      39   85179   85173      39
   85179   85176      40   85185   85182      39   85188   85182      39   85188
   85185      40   85194   85191      39   85197   85191      39   85197   85194
      40   85203   85200      39   85206   85200      39   85206   85203      40
   85212   85209      39   85215   85209      39   85215   85212      40   85221
   85218      39   85224   85218      39   85224   85221      40   85230   85227
      39   85233   85227      39   85233   85230      40   85239   85236      39
   85242   85236      39   85242   85239      40   85248   85245      39   85251
   85245      39   85251   85248      40   85257   85254      39   85260   85254
      39   85260   85257      40   85266   85263      39   85269   85263      39
   85269   85266      40   85275   85272      39   85278   85272      39   85278
   85275      40   85284   85281      39   85287   85281      39   85287   85284
      40   85293   85290      39   85296   85290      39   85296   85293      40
   85302   85299      39   85305   85299      39   85305   85302      40   85311
   85308      39   85314   85308      39   85314   85311      40   85320   85317
      39   85323   85317      39   85323   85320      40   85329   85326      39
   85332   85326      39   85332   85329      40   85338   85335      39   85341
   85335      39   85341   85338      40   85347   85344      39   85350   85344
      39   85350   85347      40   85356   85353      39   85359   85353      39
   85359   85356      40   85365   85362      39   85368   85362      39   85368
   85365      40   85374   85371      39   85377   85371      39   85377   85374
      40   85383   85380      39   85386   85380      39   85386   85383      40
   85392   85389      39   85395   85389      39   85395   85392      40   85401
   85398      39   85404   85398      39   85404   85401      40   85410   85407
      39   85413   85407      39   85413   85410      40   85419   85416      39
   85422   85416      39   85422   85419      40   85428   85425      39   85431
   85425      39   85431   85428      40   85437   85434      39   85440   85434
      39   85440   85437      40   85446   85443      39   85449   85443      39
   85449   85446      40   85455   85452      39   85458   85452      39   85458
   85455      40   85464   85461      39   85467   85461      39   85467   85464
      40   85473   85470      39   85476   85470      39   85476   85473      40
   85482   85479      39   85485   85479      39   85485   85482      40   85491
   85488      39   85494   85488      39   85494   85491      40   85500   85497
      39   85503   85497      39   85503   85500      40   85509   85506      39
   85512   85506      39   85512   85509      40   85518   85515      39   85521
   85515      39   85521   85518      40   85527   85524      39   85530   85524
      39   85530   85527      40   85536   85533      39   85539   85533      39
   85539   85536      40   85545   85542      39   85548   85542      39   85548
   85545      40   85554   85551      39   85557   85551      39   85557   85554
      40   85563   85560      39   85566   85560      39   85566   85563      40
   85572   85569      39   85575   85569      39   85575   85572      40   85581
   85578      39   85584   85578      39   85584   85581      40   85590   85587
      39   85593   85587      39   85593   85590      40   85599   85596      39
   85602   85596      39   85602   85599      40   85608   85605      39   85611
   85605      39   85611   85608      40   85617   85614      39   85620   85614
      39   85620   85617      40   85626   85623      39   85629   85623      39
   85629   85626      40   85635   85632      39   85638   85632      39   85638
   85635      40   85644   85641      39   85647   85641      39   85647   85644
      40   85653   85650      39   85656   85650      39   85656   85653      40
   85662   85659      39   85665   85659      39   85665   85662      40   85671
   85668      39   85674   85668      39   85674   85671      40   85680   85677
      39   85683   85677      39   85683   85680      40   85689   85686      39
   85692   85686      39   85692   85689      40   85698   85695      39   85701
   85695      39   85701   85698      40   85707   85704      39   85710   85704
      39   85710   85707      40   85716   85713      39   85719   85713      39
   85719   85716      40   85725   85722      39   85728   85722      39   85728
   85725      40   85734   85731      39   85737   85731      39   85737   85734
      40   85743   85740      39   85746   85740      39   85746   85743      40
   85752   85749      39   85755   85749      39   85755   85752      40   85761
   85758      39   85764   85758      39   85764   85761      40   85770   85767
      39   85773   85767      39   85773   85770      40   85779   85776      39
   85782   85776      39   85782   85779      40   85788   85785      39   85791
   85785      39   85791   85788      40   85797   85794      39   85800   85794
      39   85800   85797      40   85806   85803      39   85809   85803      39
   85809   85806      40   85815   85812      39   85818   85812      39   85818
   85815      40   85824   85821      39   85827   85821      39   85827   85824
      40   85833   85830      39   85836   85830      39   85836   85833      40
   85842   85839      39   85845   85839      39   85845   85842      40   85851
   85848      39   85854   85848      39   85854   85851      40   85860   85857
      39   85863   85857      39   85863   85860      40   85869   85866      39
   85872   85866      39   85872   85869      40   85878   85875      39   85881
   85875      39   85881   85878      40   85887   85884      39   85890   85884
      39   85890   85887      40   85896   85893      39   85899   85893      39
   85899   85896      40   85905   85902      39   85908   85902      39   85908
   85905      40   85914   85911      39   85917   85911      39   85917   85914
      40   85923   85920      39   85926   85920      39   85926   85923      40
   85932   85929      39   85935   85929      39   85935   85932      40   85941
   85938      39   85944   85938      39   85944   85941      40   85950   85947
      39   85953   85947      39   85953   85950      40   85959   85956      39
   85962   85956      39   85962   85959      40   85968   85965      39   85971
   85965      39   85971   85968      40   85977   85974      39   85980   85974
      39   85980   85977      40   85986   85983      39   85989   85983      39
   85989   85986      40   85995   85992      39   85998   85992      39   85998
   85995      40   86004   86001      39   86007   86001      39   86007   86004
      40   86013   86010      39   86016   86010      39   86016   86013      40
   86022   86019      39   86025   86019      39   86025   86022      40   86031
   86028      39   86034   86028      39   86034   86031      40   86040   86037
      39   86043   86037      39   86043   86040      40   86049   86046      39
   86052   86046      39   86052   86049      40   86058   86055      39   86061
   86055      39   86061   86058      40   86067   86064      39   86070   86064
      39   86070   86067      40   86076   86073      39   86079   86073      39
   86079   86076      40   86085   86082      39   86088   86082      39   86088
   86085      40   86094   86091      39   86097   86091      39   86097   86094
      40   86103   86100      39   86106   86100      39   86106   86103      40
   86112   86109      39   86115   86109      39   86115   86112      40   86121
   86118      39   86124   86118      39   86124   86121      40   86130   86127
      39   86133   86127      39   86133   86130      40   86139   86136      39
   86142   86136      39   86142   86139      40   86148   86145      39   86151
   86145      39   86151   86148      40   86157   86154      39   86160   86154
      39   86160   86157      40   86166   86163      39   86169   86163      39
   86169   86166      40   86175   86172      39   86178   86172      39   86178
   86175      40   86184   86181      39   86187   86181      39   86187   86184
      40   86193   86190      39   86196   86190      39   86196   86193      40
   86202   86199      39   86205   86199      39   86205   86202      40   86211
   86208      39   86214   86208      39   86214   86211      40   86220   86217
      39   86223   86217      39   86223   86220      40   86229   86226      39
   86232   86226      39   86232   86229      40   86238   86235      39   86241
   86235      39   86241   86238      40   86247   86244      39   86250   86244
      39   86250   86247      40   86256   86253      39   86259   86253      39
   86259   86256      40   86265   86262      39   86268   86262      39   86268
   86265      40   86274   86271      39   86277   86271      39   86277   86274
      40   86283   86280      39   86286   86280      39   86286   86283      40
   86292   86289      39   86295   86289      39   86295   86292      40   86301
   86298      39   86304   86298      39   86304   86301      40   86310   86307
      39   86313   86307      39   86313   86310      40   86319   86316      39
   86322   86316      39   86322   86319      40   86328   86325      39   86331
   86325      39   86331   86328      40   86337   86334      39   86340   86334
      39   86340   86337      40   86346   86343      39   86349   86343      39
   86349   86346      40   86355   86352      39   86358   86352      39   86358
   86355      40   86364   86361      39   86367   86361      39   86367   86364
      40   86373   86370      39   86376   86370      39   86376   86373      40
   86382   86379      39   86385   86379      39   86385   86382      40   86391
   86388      39   86394   86388      39   86394   86391      40   86400   86397
      39   86403   86397      39   86403   86400      40   86409   86406      39
   86412   86406      39   86412   86409      40   86418   86415      39   86421
   86415      39   86421   86418      40   86427   86424      39   86430   86424
      39   86430   86427      40   86436   86433      39   86439   86433      39
   86439   86436      40   86445   86442      39   86448   86442      39   86448
   86445      40   86454   86451      39   86457   86451      39   86457   86454
      40   86463   86460      39   86466   86460      39   86466   86463      40
   86472   86469      39   86475   86469      39   86475   86472      40   86481
   86478      39   86484   86478      39   86484   86481      40   86490   86487
      39   86493   86487      39   86493   86490      40   86499   86496      39
   86502   86496      39   86502   86499      40   86508   86505      39   86511
   86505      39   86511   86508      40   86517   86514      39   86520   86514
      39   86520   86517      40   86526   86523      39   86529   86523      39
   86529   86526      40   86535   86532      39   86538   86532      39   86538
   86535      40   86544   86541      39   86547   86541      39   86547   86544
      40   86553   86550      39   86556   86550      39   86556   86553      40
   86562   86559      39   86565   86559      39   86565   86562      40   86571
   86568      39   86574   86568      39   86574   86571      40   86580   86577
      39   86583   86577      39   86583   86580      40   86589   86586      39
   86592   86586      39   86592   86589      40   86598   86595      39   86601
   86595      39   86601   86598      40   86607   86604      39   86610   86604
      39   86610   86607      40   86616   86613      39   86619   86613      39
   86619   86616      40   86625   86622      39   86628   86622      39   86628
   86625      40   86634   86631      39   86637   86631      39   86637   86634
      40   86643   86640      39   86646   86640      39   86646   86643      40
   86652   86649      39   86655   86649      39   86655   86652      40   86661
   86658      39   86664   86658      39   86664   86661      40   86670   86667
      39   86673   86667      39   86673   86670      40   86679   86676      39
   86682   86676      39   86682   86679      40   86688   86685      39   86691
   86685      39   86691   86688      40   86697   86694      39   86700   86694
      39   86700   86697      40   86706   86703      39   86709   86703      39
   86709   86706      40   86715   86712      39   86718   86712      39   86718
   86715      40   86724   86721      39   86727   86721      39   86727   86724
      40   86733   86730      39   86736   86730      39   86736   86733      40
   86742   86739      39   86745   86739      39   86745   86742      40   86751
   86748      39   86754   86748      39   86754   86751      40   86760   86757
      39   86763   86757      39   86763   86760      40   86769   86766      39
   86772   86766      39   86772   86769      40   86778   86775      39   86781
   86775      39   86781   86778      40   86787   86784      39   86790   86784
      39   86790   86787      40   86796   86793      39   86799   86793      39
   86799   86796      40   86805   86802      39   86808   86802      39   86808
   86805      40   86814   86811      39   86817   86811      39   86817   86814
      40   86823   86820      39   86826   86820      39   86826   86823      40
   86832   86829      39   86835   86829      39   86835   86832      40   86841
   86838      39   86844   86838      39   86844   86841      40   86850   86847
      39   86853   86847      39   86853   86850      40   86859   86856      39
   86862   86856      39   86862   86859      40   86868   86865      39   86871
   86865      39   86871   86868      40   86877   86874      39   86880   86874
      39   86880   86877      40   86886   86883      39   86889   86883      39
   86889   86886      40   86895   86892      39   86898   86892      39   86898
   86895      40   86904   86901      39   86907   86901      39   86907   86904
      40   86913   86910      39   86916   86910      39   86916   86913      40
   86922   86919      39   86925   86919      39   86925   86922      40   86931
   86928      39   86934   86928      39   86934   86931      40   86940   86937
      39   86943   86937      39   86943   86940      40   86949   86946      39
   86952   86946      39   86952   86949      40   86958   86955      39   86961
   86955      39   86961   86958      40   86967   86964      39   86970   86964
      39   86970   86967      40   86976   86973      39   86979   86973      39
   86979   86976      40   86985   86982      39   86988   86982      39   86988
   86985      40   86994   86991      39   86997   86991      39   86997   86994
      40   87003   87000      39   87006   87000      39   87006   87003      40
   87012   87009      39   87015   87009      39   87015   87012      40   87021
   87018      39   87024   87018      39   87024   87021      40   87030   87027
      39   87033   87027      39   87033   87030      40   87039   87036      39
   87042   87036      39   87042   87039      40   87048   87045      39   87051
   87045      39   87051   87048      40   87057   87054      39   87060   87054
      39   87060   87057      40   87066   87063      39   87069   87063      39
   87069   87066      40   87075   87072      39   87078   87072      39   87078
   87075      40   87084   87081      39   87087   87081      39   87087   87084
      40   87093   87090      39   87096   87090      39   87096   87093      40
   87102   87099      39   87105   87099      39   87105   87102      40   87111
   87108      39   87114   87108      39   87114   87111      40   87120   87117
      39   87123   87117      39   87123   87120      40   87129   87126      39
   87132   87126      39   87132   87129      40   87138   87135      39   87141
   87135      39   87141   87138      40   87147   87144      39   87150   87144
      39   87150   87147      40   87156   87153      39   87159   87153      39
   87159   87156      40   87165   87162      39   87168   87162      39   87168
   87165      40   87174   87171      39   87177   87171      39   87177   87174
      40   87183   87180      39   87186   87180      39   87186   87183      40
   87192   87189      39   87195   87189      39   87195   87192      40   87201
   87198      39   87204   87198      39   87204   87201      40   87210   87207
      39   87213   87207      39   87213   87210      40   87219   87216      39
   87222   87216      39   87222   87219      40   87228   87225      39   87231
   87225      39   87231   87228      40   87237   87234      39   87240   87234
      39   87240   87237      40   87246   87243      39   87249   87243      39
   87249   87246      40   87255   87252      39   87258   87252      39   87258
   87255      40   87264   87261      39   87267   87261      39   87267   87264
      40   87273   87270      39   87276   87270      39   87276   87273      40
   87282   87279      39   87285   87279      39   87285   87282      40   87291
   87288      39   87294   87288      39   87294   87291      40   87300   87297
      39   87303   87297      39   87303   87300      40   87309   87306      39
   87312   87306      39   87312   87309      40   87318   87315      39   87321
   87315      39   87321   87318      40   87327   87324      39   87330   87324
      39   87330   87327      40   87336   87333      39   87339   87333      39
   87339   87336      40   87345   87342      39   87348   87342      39   87348
   87345      40   87354   87351      39   87357   87351      39   87357   87354
      40   87363   87360      39   87366   87360      39   87366   87363      40
   87372   87369      39   87375   87369      39   87375   87372      40   87381
   87378      39   87384   87378      39   87384   87381      40   87390   87387
      39   87393   87387      39   87393   87390      40   87399   87396      39
   87402   87396      39   87402   87399      40   87408   87405      39   87411
   87405      39   87411   87408      40   87417   87414      39   87420   87414
      39   87420   87417      40   87426   87423      39   87429   87423      39
   87429   87426      40   87435   87432      39   87438   87432      39   87438
   87435      40   87444   87441      39   87447   87441      39   87447   87444
      40   87453   87450      39   87456   87450      39   87456   87453      40
   87462   87459      39   87465   87459      39   87465   87462      40   87471
   87468      39   87474   87468      39   87474   87471      40   87480   87477
      39   87483   87477      39   87483   87480      40   87489   87486      39
   87492   87486      39   87492   87489      40   87498   87495      39   87501
   87495      39   87501   87498      40   87507   87504      39   87510   87504
      39   87510   87507      40   87516   87513      39   87519   87513      39
   87519   87516      40   87525   87522      39   87528   87522      39   87528
   87525      40   87534   87531      39   87537   87531      39   87537   87534
      40   87543   87540      39   87546   87540      39   87546   87543      40
   87552   87549      39   87555   87549      39   87555   87552      40   87561
   87558      39   87564   87558      39   87564   87561      40   87570   87567
      39   87573   87567      39   87573   87570      40   87579   87576      39
   87582   87576      39   87582   87579      40   87588   87585      39   87591
   87585      39   87591   87588      40   87597   87594      39   87600   87594
      39   87600   87597      40   87606   87603      39   87609   87603      39
   87609   87606      40   87615   87612      39   87618   87612      39   87618
   87615      40   87624   87621      39   87627   87621      39   87627   87624
      40   87633   87630      39   87636   87630      39   87636   87633      40
   87642   87639      39   87645   87639      39   87645   87642      40   87651
   87648      39   87654   87648      39   87654   87651      40   87660   87657
      39   87663   87657      39   87663   87660      40   87669   87666      39
   87672   87666      39   87672   87669      40   87678   87675      39   87681
   87675      39   87681   87678      40   87687   87684      39   87690   87684
      39   87690   87687      40   87696   87693      39   87699   87693      39
   87699   87696      40   87705   87702      39   87708   87702      39   87708
   87705      40   87714   87711      39   87717   87711      39   87717   87714
      40   87723   87720      39   87726   87720      39   87726   87723      40
   87732   87729      39   87735   87729      39   87735   87732      40   87741
   87738      39   87744   87738      39   87744   87741      40   87750   87747
      39   87753   87747      39   87753   87750      40   87759   87756      39
   87762   87756      39   87762   87759      40   87768   87765      39   87771
   87765      39   87771   87768      40   87777   87774      39   87780   87774
      39   87780   87777      40   87786   87783      39   87789   87783      39
   87789   87786      40   87795   87792      39   87798   87792      39   87798
   87795      40   87804   87801      39   87807   87801      39   87807   87804
      40   87813   87810      39   87816   87810      39   87816   87813      40
   87822   87819      39   87825   87819      39   87825   87822      40   87831
   87828      39   87834   87828      39   87834   87831      40   87840   87837
      39   87843   87837      39   87843   87840      40   87849   87846      39
   87852   87846      39   87852   87849      40   87858   87855      39   87861
   87855      39   87861   87858      40   87867   87864      39   87870   87864
      39   87870   87867      40   87876   87873      39   87879   87873      39
   87879   87876      40   87885   87882      39   87888   87882      39   87888
   87885      40   87894   87891      39   87897   87891      39   87897   87894
      40   87903   87900      39   87906   87900      39   87906   87903      40
   87912   87909      39   87915   87909      39   87915   87912      40   87921
   87918      39   87924   87918      39   87924   87921      40   87930   87927
      39   87933   87927      39   87933   87930      40   87939   87936      39
   87942   87936      39   87942   87939      40   87948   87945      39   87951
   87945      39   87951   87948      40   87957   87954      39   87960   87954
      39   87960   87957      40   87966   87963      39   87969   87963      39
   87969   87966      40   87975   87972      39   87978   87972      39   87978
   87975      40   87984   87981      39   87987   87981      39   87987   87984
      40   87993   87990      39   87996   87990      39   87996   87993      40
   88002   87999      39   88005   87999      39   88005   88002      40   88011
   88008      39   88014   88008      39   88014   88011      40   88020   88017
      39   88023   88017      39   88023   88020      40   88029   88026      39
   88032   88026      39   88032   88029      40   88038   88035      39   88041
   88035      39   88041   88038      40   88047   88044      39   88050   88044
      39   88050   88047      40   88056   88053      39   88059   88053      39
   88059   88056      40   88065   88062      39   88068   88062      39   88068
   88065      40   88074   88071      39   88077   88071      39   88077   88074
      40   88083   88080      39   88086   88080      39   88086   88083      40
   88092   88089      39   88095   88089      39   88095   88092      40   88101
   88098      39   88104   88098      39   88104   88101      40   88110   88107
      39   88113   88107      39   88113   88110      40   88119   88116      39
   88122   88116      39   88122   88119      40   88128   88125      39   88131
   88125      39   88131   88128      40   88137   88134      39   88140   88134
      39   88140   88137      40   88146   88143      39   88149   88143      39
   88149   88146      40   88155   88152      39   88158   88152      39   88158
   88155      40   88164   88161      39   88167   88161      39   88167   88164
      40   88173   88170      39   88176   88170      39   88176   88173      40
   88182   88179      39   88185   88179      39   88185   88182      40   88191
   88188      39   88194   88188      39   88194   88191      40   88200   88197
      39   88203   88197      39   88203   88200      40   88209   88206      39
   88212   88206      39   88212   88209      40   88218   88215      39   88221
   88215      39   88221   88218      40   88227   88224      39   88230   88224
      39   88230   88227      40   88236   88233      39   88239   88233      39
   88239   88236      40   88245   88242      39   88248   88242      39   88248
   88245      40   88254   88251      39   88257   88251      39   88257   88254
      40   88263   88260      39   88266   88260      39   88266   88263      40
   88272   88269      39   88275   88269      39   88275   88272      40   88281
   88278      39   88284   88278      39   88284   88281      40   88290   88287
      39   88293   88287      39   88293   88290      40   88299   88296      39
   88302   88296      39   88302   88299      40   88308   88305      39   88311
   88305      39   88311   88308      40   88317   88314      39   88320   88314
      39   88320   88317      40   88326   88323      39   88329   88323      39
   88329   88326      40   88335   88332      39   88338   88332      39   88338
   88335      40   88344   88341      39   88347   88341      39   88347   88344
      40   88353   88350      39   88356   88350      39   88356   88353      40
   88362   88359      39   88365   88359      39   88365   88362      40   88371
   88368      39   88374   88368      39   88374   88371      40   88380   88377
      39   88383   88377      39   88383   88380      40   88389   88386      39
   88392   88386      39   88392   88389      40   88398   88395      39   88401
   88395      39   88401   88398      40   88407   88404      39   88410   88404
      39   88410   88407      40   88416   88413      39   88419   88413      39
   88419   88416      40   88425   88422      39   88428   88422      39   88428
   88425      40   88434   88431      39   88437   88431      39   88437   88434
      40   88443   88440      39   88446   88440      39   88446   88443      40
   88452   88449      39   88455   88449      39   88455   88452      40   88461
   88458      39   88464   88458      39   88464   88461      40   88470   88467
      39   88473   88467      39   88473   88470      40   88479   88476      39
   88482   88476      39   88482   88479      40   88488   88485      39   88491
   88485      39   88491   88488      40   88497   88494      39   88500   88494
      39   88500   88497      40   88506   88503      39   88509   88503      39
   88509   88506      40   88515   88512      39   88518   88512      39   88518
   88515      40   88524   88521      39   88527   88521      39   88527   88524
      40   88533   88530      39   88536   88530      39   88536   88533      40
   88542   88539      39   88545   88539      39   88545   88542      40   88551
   88548      39   88554   88548      39   88554   88551      40   88560   88557
      39   88563   88557      39   88563   88560      40   88569   88566      39
   88572   88566      39   88572   88569      40   88578   88575      39   88581
   88575      39   88581   88578      40   88587   88584      39   88590   88584
      39   88590   88587      40   88596   88593      39   88599   88593      39
   88599   88596      40   88605   88602      39   88608   88602      39   88608
   88605      40   88614   88611      39   88617   88611      39   88617   88614
      40   88623   88620      39   88626   88620      39   88626   88623      40
   88632   88629      39   88635   88629      39   88635   88632      40   88641
   88638      39   88644   88638      39   88644   88641      40   88650   88647
      39   88653   88647      39   88653   88650      40   88659   88656      39
   88662   88656      39   88662   88659      40   88668   88665      39   88671
   88665      39   88671   88668      40   88677   88674      39   88680   88674
      39   88680   88677      40   88686   88683      39   88689   88683      39
   88689   88686      40   88695   88692      39   88698   88692      39   88698
   88695      40   88704   88701      39   88707   88701      39   88707   88704
      40   88713   88710      39   88716   88710      39   88716   88713      40
   88722   88719      39   88725   88719      39   88725   88722      40   88731
   88728      39   88734   88728      39   88734   88731      40   88740   88737
      39   88743   88737      39   88743   88740      40   88749   88746      39
   88752   88746      39   88752   88749      40   88758   88755      39   88761
   88755      39   88761   88758      40   88767   88764      39   88770   88764
      39   88770   88767      40   88776   88773      39   88779   88773      39
   88779   88776      40   88785   88782      39   88788   88782      39   88788
   88785      40   88794   88791      39   88797   88791      39   88797   88794
      40   88803   88800      39   88806   88800      39   88806   88803      40
   88812   88809      39   88815   88809      39   88815   88812      40   88821
   88818      39   88824   88818      39   88824   88821      40   88830   88827
      39   88833   88827      39   88833   88830      40   88839   88836      39
   88842   88836      39   88842   88839      40   88848   88845      39   88851
   88845      39   88851   88848      40   88857   88854      39   88860   88854
      39   88860   88857      40   88866   88863      39   88869   88863      39
   88869   88866      40   88875   88872      39   88878   88872      39   88878
   88875      40   88884   88881      39   88887   88881      39   88887   88884
      40   88893   88890      39   88896   88890      39   88896   88893      40
   88902   88899      39   88905   88899      39   88905   88902      40   88911
   88908      39   88914   88908      39   88914   88911      40   88920   88917
      39   88923   88917      39   88923   88920      40   88929   88926      39
   88932   88926      39   88932   88929      40   88938   88935      39   88941
   88935      39   88941   88938      40   88947   88944      39   88950   88944
      39   88950   88947      40   88956   88953      39   88959   88953      39
   88959   88956      40   88965   88962      39   88968   88962      39   88968
   88965      40   88974   88971      39   88977   88971      39   88977   88974
      40   88983   88980      39   88986   88980      39   88986   88983      40
   88992   88989      39   88995   88989      39   88995   88992      40   89001
   88998      39   89004   88998      39   89004   89001      40   89010   89007
      39   89013   89007      39   89013   89010      40   89019   89016      39
   89022   89016      39   89022   89019      40   89028   89025      39   89031
   89025      39   89031   89028      40   89037   89034      39   89040   89034
      39   89040   89037      40   89046   89043      39   89049   89043      39
   89049   89046      40   89055   89052      39   89058   89052      39   89058
   89055      40   89064   89061      39   89067   89061      39   89067   89064
      40   89073   89070      39   89076   89070      39   89076   89073      40
   89082   89079      39   89085   89079      39   89085   89082      40   89091
   89088      39   89094   89088      39   89094   89091      40   89100   89097
      39   89103   89097      39   89103   89100      40   89109   89106      39
   89112   89106      39   89112   89109      40   89118   89115      39   89121
   89115      39   89121   89118      40   89127   89124      39   89130   89124
      39   89130   89127      40   89136   89133      39   89139   89133      39
   89139   89136      40   89145   89142      39   89148   89142      39   89148
   89145      40   89154   89151      39   89157   89151      39   89157   89154
      40   89163   89160      39   89166   89160      39   89166   89163      40
   89172   89169      39   89175   89169      39   89175   89172      40   89181
   89178      39   89184   89178      39   89184   89181      40   89190   89187
      39   89193   89187      39   89193   89190      40   89199   89196      39
   89202   89196      39   89202   89199      40   89208   89205      39   89211
   89205      39   89211   89208      40   89217   89214      39   89220   89214
      39   89220   89217      40   89226   89223      39   89229   89223      39
   89229   89226      40   89235   89232      39   89238   89232      39   89238
   89235      40   89244   89241      39   89247   89241      39   89247   89244
      40   89253   89250      39   89256   89250      39   89256   89253      40
   89262   89259      39   89265   89259      39   89265   89262      40   89271
   89268      39   89274   89268      39   89274   89271      40   89280   89277
      39   89283   89277      39   89283   89280      40   89289   89286      39
   89292   89286      39   89292   89289      40   89298   89295      39   89301
   89295      39   89301   89298      40   89307   89304      39   89310   89304
      39   89310   89307      40   89316   89313      39   89319   89313      39
   89319   89316      40   89325   89322      39   89328   89322      39   89328
   89325      40   89334   89331      39   89337   89331      39   89337   89334
      40   89343   89340      39   89346   89340      39   89346   89343      40
   89352   89349      39   89355   89349      39   89355   89352      40   89361
   89358      39   89364   89358      39   89364   89361      40   89370   89367
      39   89373   89367      39   89373   89370      40   89379   89376      39
   89382   89376      39   89382   89379      40   89388   89385      39   89391
   89385      39   89391   89388      40   89397   89394      39   89400   89394
      39   89400   89397      40   89406   89403      39   89409   89403      39
   89409   89406      40   89415   89412      39   89418   89412      39   89418
   89415      40   89424   89421      39   89427   89421      39   89427   89424
      40   89433   89430      39   89436   89430      39   89436   89433      40
   89442   89439      39   89445   89439      39   89445   89442      40   89451
   89448      39   89454   89448      39   89454   89451      40   89460   89457
      39   89463   89457      39   89463   89460      40   89469   89466      39
   89472   89466      39   89472   89469      40   89478   89475      39   89481
   89475      39   89481   89478      40   89487   89484      39   89490   89484
      39   89490   89487      40   89496   89493      39   89499   89493      39
   89499   89496      40   89505   89502      39   89508   89502      39   89508
   89505      40   89514   89511      39   89517   89511      39   89517   89514
      40   89523   89520      39   89526   89520      39   89526   89523      40
   89532   89529      39   89535   89529      39   89535   89532      40   89541
   89538      39   89544   89538      39   89544   89541      40   89550   89547
      39   89553   89547      39   89553   89550      40   89559   89556      39
   89562   89556      39   89562   89559      40   89568   89565      39   89571
   89565      39   89571   89568      40   89577   89574      39   89580   89574
      39   89580   89577      40   89586   89583      39   89589   89583      39
   89589   89586      40   89595   89592      39   89598   89592      39   89598
   89595      40   89604   89601      39   89607   89601      39   89607   89604
      40   89613   89610      39   89616   89610      39   89616   89613      40
   89622   89619      39   89625   89619      39   89625   89622      40   89631
   89628      39   89634   89628      39   89634   89631      40   89640   89637
      39   89643   89637      39   89643   89640      40   89649   89646      39
   89652   89646      39   89652   89649      40   89658   89655      39   89661
   89655      39   89661   89658      40   89667   89664      39   89670   89664
      39   89670   89667      40   89676   89673      39   89679   89673      39
   89679   89676      40   89685   89682      39   89688   89682      39   89688
   89685      40   89694   89691      39   89697   89691      39   89697   89694
      40   89703   89700      39   89706   89700      39   89706   89703      40
   89712   89709      39   89715   89709      39   89715   89712      40   89721
   89718      39   89724   89718      39   89724   89721      40   89730   89727
      39   89733   89727      39   89733   89730      40   89739   89736      39
   89742   89736      39   89742   89739      40   89748   89745      39   89751
   89745      39   89751   89748      40   89757   89754      39   89760   89754
      39   89760   89757      40   89766   89763      39   89769   89763      39
   89769   89766      40   89775   89772      39   89778   89772      39   89778
   89775      40   89784   89781      39   89787   89781      39   89787   89784
      40   89793   89790      39   89796   89790      39   89796   89793      40
   89802   89799      39   89805   89799      39   89805   89802      40   89811
   89808      39   89814   89808      39   89814   89811      40   89820   89817
      39   89823   89817      39   89823   89820      40   89829   89826      39
   89832   89826      39   89832   89829      40   89838   89835      39   89841
   89835      39   89841   89838      40   89847   89844      39   89850   89844
      39   89850   89847      40   89856   89853      39   89859   89853      39
   89859   89856      40   89865   89862      39   89868   89862      39   89868
   89865      40   89874   89871      39   89877   89871      39   89877   89874
      40   89883   89880      39   89886   89880      39   89886   89883      40
   89892   89889      39   89895   89889      39   89895   89892      40   89901
   89898      39   89904   89898      39   89904   89901      40   89910   89907
      39   89913   89907      39   89913   89910      40   89919   89916      39
   89922   89916      39   89922   89919      40   89928   89925      39   89931
   89925      39   89931   89928      40   89937   89934      39   89940   89934
      39   89940   89937      40   89946   89943      39   89949   89943      39
   89949   89946      40   89955   89952      39   89958   89952      39   89958
   89955      40   89964   89961      39   89967   89961      39   89967   89964
      40   89973   89970      39   89976   89970      39   89976   89973      40
   89982   89979      39   89985   89979      39   89985   89982      40   89991
   89988      39   89994   89988      39   89994   89991      40   90000   89997
      39   90003   89997      39   90003   90000      40   90009   90006      39
   90012   90006      39   90012   90009      40   90018   90015      39   90021
   90015      39   90021   90018      40   90027   90024      39   90030   90024
      39   90030   90027      40   90036   90033      39   90039   90033      39
   90039   90036      40   90045   90042      39   90048   90042      39   90048
   90045      40   90054   90051      39   90057   90051      39   90057   90054
      40   90063   90060      39   90066   90060      39   90066   90063      40
   90072   90069      39   90075   90069      39   90075   90072      40   90081
   90078      39   90084   90078      39   90084   90081      40   90090   90087
      39   90093   90087      39   90093   90090      40   90099   90096      39
   90102   90096      39   90102   90099      40   90108   90105      39   90111
   90105      39   90111   90108      40   90117   90114      39   90120   90114
      39   90120   90117      40   90126   90123      39   90129   90123      39
   90129   90126      40   90135   90132      39   90138   90132      39   90138
   90135      40   90144   90141      39   90147   90141      39   90147   90144
      40   90153   90150      39   90156   90150      39   90156   90153      40
   90162   90159      39   90165   90159      39   90165   90162      40   90171
   90168      39   90174   90168      39   90174   90171      40   90180   90177
      39   90183   90177      39   90183   90180      40   90189   90186      39
   90192   90186      39   90192   90189      40   90198   90195      39   90201
   90195      39   90201   90198      40   90207   90204      39   90210   90204
      39   90210   90207      40   90216   90213      39   90219   90213      39
   90219   90216      40   90225   90222      39   90228   90222      39   90228
   90225      40   90234   90231      39   90237   90231      39   90237   90234
      40   90243   90240      39   90246   90240      39   90246   90243      40
   90252   90249      39   90255   90249      39   90255   90252      40   90261
   90258      39   90264   90258      39   90264   90261      40   90270   90267
      39   90273   90267      39   90273   90270      40   90279   90276      39
   90282   90276      39   90282   90279      40   90288   90285      39   90291
   90285      39   90291   90288      40   90297   90294      39   90300   90294
      39   90300   90297      40   90306   90303      39   90309   90303      39
   90309   90306      40   90315   90312      39   90318   90312      39   90318
   90315      40   90324   90321      39   90327   90321      39   90327   90324
      40   90333   90330      39   90336   90330      39   90336   90333      40
   90342   90339      39   90345   90339      39   90345   90342      40   90351
   90348      39   90354   90348      39   90354   90351      40   90360   90357
      39   90363   90357      39   90363   90360      40   90369   90366      39
   90372   90366      39   90372   90369      40   90378   90375      39   90381
   90375      39   90381   90378      40   90387   90384      39   90390   90384
      39   90390   90387      40   90396   90393      39   90399   90393      39
   90399   90396      40   90405   90402      39   90408   90402      39   90408
   90405      40   90414   90411      39   90417   90411      39   90417   90414
      40   90423   90420      39   90426   90420      39   90426   90423      40
   90432   90429      39   90435   90429      39   90435   90432      40   90441
   90438      39   90444   90438      39   90444   90441      40   90450   90447
      39   90453   90447      39   90453   90450      40   90459   90456      39
   90462   90456      39   90462   90459      40   90468   90465      39   90471
   90465      39   90471   90468      40   90477   90474      39   90480   90474
      39   90480   90477      40   90486   90483      39   90489   90483      39
   90489   90486      40   90495   90492      39   90498   90492      39   90498
   90495      40   90504   90501      39   90507   90501      39   90507   90504
      40   90513   90510      39   90516   90510      39   90516   90513      40
   90522   90519      39   90525   90519      39   90525   90522      40   90531
   90528      39   90534   90528      39   90534   90531      40   90540   90537
      39   90543   90537      39   90543   90540      40   90549   90546      39
   90552   90546      39   90552   90549      40   90558   90555      39   90561
   90555      39   90561   90558      40   90567   90564      39   90570   90564
      39   90570   90567      40   90576   90573      39   90579   90573      39
   90579   90576      40   90585   90582      39   90588   90582      39   90588
   90585      40   90594   90591      39   90597   90591      39   90597   90594
      40   90603   90600      39   90606   90600      39   90606   90603      40
   90612   90609      39   90615   90609      39   90615   90612      40   90621
   90618      39   90624   90618      39   90624   90621      40   90630   90627
      39   90633   90627      39   90633   90630      40   90639   90636      39
   90642   90636      39   90642   90639      40   90648   90645      39   90651
   90645      39   90651   90648      40   90657   90654      39   90660   90654
      39   90660   90657      40   90666   90663      39   90669   90663      39
   90669   90666      40   90675   90672      39   90678   90672      39   90678
   90675      40   90684   90681      39   90687   90681      39   90687   90684
      40   90693   90690      39   90696   90690      39   90696   90693      40
   90702   90699      39   90705   90699      39   90705   90702      40   90711
   90708      39   90714   90708      39   90714   90711      40   90720   90717
      39   90723   90717      39   90723   90720      40   90729   90726      39
   90732   90726      39   90732   90729      40   90738   90735      39   90741
   90735      39   90741   90738      40   90747   90744      39   90750   90744
      39   90750   90747      40   90756   90753      39   90759   90753      39
   90759   90756      40   90765   90762      39   90768   90762      39   90768
   90765      40   90774   90771      39   90777   90771      39   90777   90774
      40   90783   90780      39   90786   90780      39   90786   90783      40
   90792   90789      39   90795   90789      39   90795   90792      40   90801
   90798      39   90804   90798      39   90804   90801      40   90810   90807
      39   90813   90807      39   90813   90810      40   90819   90816      39
   90822   90816      39   90822   90819      40   90828   90825      39   90831
   90825      39   90831   90828      40   90837   90834      39   90840   90834
      39   90840   90837      40   90846   90843      39   90849   90843      39
   90849   90846      40   90855   90852      39   90858   90852      39   90858
   90855      40   90864   90861      39   90867   90861      39   90867   90864
      40   90873   90870      39   90876   90870      39   90876   90873      40
   90882   90879      39   90885   90879      39   90885   90882      40   90891
   90888      39   90894   90888      39   90894   90891      40   90900   90897
      39   90903   90897      39   90903   90900      40   90909   90906      39
   90912   90906      39   90912   90909      40   90918   90915      39   90921
   90915      39   90921   90918      40   90927   90924      39   90930   90924
      39   90930   90927      40   90936   90933      39   90939   90933      39
   90939   90936      40   90945   90942      39   90948   90942      39   90948
   90945      40   90954   90951      39   90957   90951      39   90957   90954
      40   90963   90960      39   90966   90960      39   90966   90963      40
   90972   90969      39   90975   90969      39   90975   90972      40   90981
   90978      39   90984   90978      39   90984   90981      40   90990   90987
      39   90993   90987      39   90993   90990      40   90999   90996      39
   91002   90996      39   91002   90999      40   91008   91005      39   91011
   91005      39   91011   91008      40   91017   91014      39   91020   91014
      39   91020   91017      40   91026   91023      39   91029   91023      39
   91029   91026      40   91035   91032      39   91038   91032      39   91038
   91035      40   91044   91041      39   91047   91041      39   91047   91044
      40   91053   91050      39   91056   91050      39   91056   91053      40
   91062   91059      39   91065   91059      39   91065   91062      40   91071
   91068      39   91074   91068      39   91074   91071      40   91080   91077
      39   91083   91077      39   91083   91080      40   91089   91086      39
   91092   91086      39   91092   91089      40   91098   91095      39   91101
   91095      39   91101   91098      40   91107   91104      39   91110   91104
      39   91110   91107      40   91116   91113      39   91119   91113      39
   91119   91116      40   91125   91122      39   91128   91122      39   91128
   91125      40   91134   91131      39   91137   91131      39   91137   91134
      40   91143   91140      39   91146   91140      39   91146   91143      40
   91152   91149      39   91155   91149      39   91155   91152      40   91161
   91158      39   91164   91158      39   91164   91161      40   91170   91167
      39   91173   91167      39   91173   91170      40   91179   91176      39
   91182   91176      39   91182   91179      40   91188   91185      39   91191
   91185      39   91191   91188      40   91197   91194      39   91200   91194
      39   91200   91197      40   91206   91203      39   91209   91203      39
   91209   91206      40   91215   91212      39   91218   91212      39   91218
   91215      40   91224   91221      39   91227   91221      39   91227   91224
      40   91233   91230      39   91236   91230      39   91236   91233      40
   91242   91239      39   91245   91239      39   91245   91242      40   91251
   91248      39   91254   91248      39   91254   91251      40   91260   91257
      39   91263   91257      39   91263   91260      40   91269   91266      39
   91272   91266      39   91272   91269      40   91278   91275      39   91281
   91275      39   91281   91278      40   91287   91284      39   91290   91284
      39   91290   91287      40   91296   91293      39   91299   91293      39
   91299   91296      40   91305   91302      39   91308   91302      39   91308
   91305      40   91314   91311      39   91317   91311      39   91317   91314
      40   91323   91320      39   91326   91320      39   91326   91323      40
   91332   91329      39   91335   91329      39   91335   91332      40   91341
   91338      39   91344   91338      39   91344   91341      40   91350   91347
      39   91353   91347      39   91353   91350      40   91359   91356      39
   91362   91356      39   91362   91359      40   91368   91365      39   91371
   91365      39   91371   91368      40   91377   91374      39   91380   91374
      39   91380   91377      40   91386   91383      39   91389   91383      39
   91389   91386      40   91395   91392      39   91398   91392      39   91398
   91395      40   91404   91401      39   91407   91401      39   91407   91404
      40   91413   91410      39   91416   91410      39   91416   91413      40
   91422   91419      39   91425   91419      39   91425   91422      40   91431
   91428      39   91434   91428      39   91434   91431      40   91440   91437
      39   91443   91437      39   91443   91440      40   91449   91446      39
   91452   91446      39   91452   91449      40   91458   91455      39   91461
   91455      39   91461   91458      40   91467   91464      39   91470   91464
      39   91470   91467      40   91476   91473      39   91479   91473      39
   91479   91476      40   91485   91482      39   91488   91482      39   91488
   91485      40   91494   91491      39   91497   91491      39   91497   91494
      40   91503   91500      39   91506   91500      39   91506   91503      40
   91512   91509      39   91515   91509      39   91515   91512      40   91521
   91518      39   91524   91518      39   91524   91521      40   91530   91527
      39   91533   91527      39   91533   91530      40   91539   91536      39
   91542   91536      39   91542   91539      40   91548   91545      39   91551
   91545      39   91551   91548      40   91557   91554      39   91560   91554
      39   91560   91557      40   91566   91563      39   91569   91563      39
   91569   91566      40   91575   91572      39   91578   91572      39   91578
   91575      40   91584   91581      39   91587   91581      39   91587   91584
      40   91593   91590      39   91596   91590      39   91596   91593      40
   91602   91599      39   91605   91599      39   91605   91602      40   91611
   91608      39   91614   91608      39   91614   91611      40   91620   91617
      39   91623   91617      39   91623   91620      40   91629   91626      39
   91632   91626      39   91632   91629      40   91638   91635      39   91641
   91635      39   91641   91638      40   91647   91644      39   91650   91644
      39   91650   91647      40   91656   91653      39   91659   91653      39
   91659   91656      40   91665   91662      39   91668   91662      39   91668
   91665      40   91674   91671      39   91677   91671      39   91677   91674
      40   91683   91680      39   91686   91680      39   91686   91683      40
   91692   91689      39   91695   91689      39   91695   91692      40   91701
   91698      39   91704   91698      39   91704   91701      40   91710   91707
      39   91713   91707      39   91713   91710      40   91719   91716      39
   91722   91716      39   91722   91719      40   91728   91725      39   91731
   91725      39   91731   91728      40   91737   91734      39   91740   91734
      39   91740   91737      40   91746   91743      39   91749   91743      39
   91749   91746      40   91755   91752      39   91758   91752      39   91758
   91755      40   91764   91761      39   91767   91761      39   91767   91764
      40   91773   91770      39   91776   91770      39   91776   91773      40
   91782   91779      39   91785   91779      39   91785   91782      40   91791
   91788      39   91794   91788      39   91794   91791      40   91800   91797
      39   91803   91797      39   91803   91800      40   91809   91806      39
   91812   91806      39   91812   91809      40   91818   91815      39   91821
   91815      39   91821   91818      40   91827   91824      39   91830   91824
      39   91830   91827      40   91836   91833      39   91839   91833      39
   91839   91836      40   91845   91842      39   91848   91842      39   91848
   91845      40   91854   91851      39   91857   91851      39   91857   91854
      40   91863   91860      39   91866   91860      39   91866   91863      40
   91872   91869      39   91875   91869      39   91875   91872      40   91881
   91878      39   91884   91878      39   91884   91881      40   91890   91887
      39   91893   91887      39   91893   91890      40   91899   91896      39
   91902   91896      39   91902   91899      40   91908   91905      39   91911
   91905      39   91911   91908      40   91917   91914      39   91920   91914
      39   91920   91917      40   91926   91923      39   91929   91923      39
   91929   91926      40   91935   91932      39   91938   91932      39   91938
   91935      40   91944   91941      39   91947   91941      39   91947   91944
      40   91953   91950      39   91956   91950      39   91956   91953      40
   91962   91959      39   91965   91959      39   91965   91962      40   91971
   91968      39   91974   91968      39   91974   91971      40   91980   91977
      39   91983   91977      39   91983   91980      40   91989   91986      39
   91992   91986      39   91992   91989      40   91998   91995      39   92001
   91995      39   92001   91998      40   92007   92004      39   92010   92004
      39   92010   92007      40   92016   92013      39   92019   92013      39
   92019   92016      40   92025   92022      39   92028   92022      39   92028
   92025      40   92034   92031      39   92037   92031      39   92037   92034
      40
%FLAG BONDS_WITHOUT_HYDROGEN
%FORMAT(10I8)
      21      24       1      21      27       2      12      21       4       0
      12       6      78      81       1      78      84       2      57      66
       8      39      45       8      39      57       8      33      39      10
      33      78       4      27      33      12     126     129       1     126
     132       2      96     102       8      96     114       8      90      96
      10      90     126       4      84      90      12     174     177       1
     174     189       2     162     165      14     162     168      14     153
     162      15     144     153       8     138     144      10     138     174
       4     132     138      12     234     237       1     234     240       2
     219     222       1     219     225       2     210     219      15     201
     210       8     195     201      10     195     234       4     189     195
      12     264     267       1     264     270       2     261     453      16
     252     261      18     246     252      10     246     264       4     240
     246      12     294     297       1     294     300       2     291    1299
      16     282     291      18     276     282      10     276     294       4
     270     276      12     336     339       1     336     342       2     312
     318       8     312     330      19     306     312      10     306     336
       4     300     306      12     369     372       1     369     375       2
     354     363      19     348     354      10     348     369       4     342
     348      12     426     429       1     426     432       2     405     414
       8     387     393       8     387     405       8     381     387      10
     381     426       4     375     381      12     456     459       1     456
     462       2     444     453      18     438     444      10     438     456
       4     432     438      12     489     492       1     489     495       2
     474     483      19     468     474      10     468     489       4     462
     468      12     546     549       1     546     552       2     516     522
       8     516     534       8     507     516       8     501     507      10
     501     546       4     495     501      12     609     612       1     609
     615       2     597     603      21     588     591      14     588     597
      22     582     588      22     576     582      21     573     576      21
     573     603      21     564     573      23     558     564      10     558
     609       4     552     558      12     660     663       1     660     666
       2     645     648       1     645     651       2     636     645      15
     627     636       8     621     627      10     621     660       4     615
     621      12     717     720       1     717     723       2     687     693
       8     687     705       8     678     687       8     672     678      10
     672     717       4     666     672      12     765     768       1     765
     780       2     753     756      14     753     759      14     744     753
      15     735     744       8     729     735      10     729     765       4
     723     729      12     816     819       1     816     822       2     801
     804       1     801     807       2     792     801      15     786     792
      10     786     816       4     780     786      12     879     882       1
     879     885       2     867     873      21     858     861      14     858
     867      22     852     858      22     846     852      21     843     846
      21     843     873      21     834     843      23     828     834      10
     828     879       4     822     828      12     909     912       1     909
     915       2     906    1854      16     897     906      18     891     897
      10     891     909       4     885     891      12     951     954      24
     951     957      24     936     939       1     936     942       2     927
     936      15     921     927      10     921     951       4     915     921
      12    1020    1023       1    1020    1026       2    1008    1014      21
    1002    1008      21     996    1002      21     990     996      21     987
     990      21     987    1014      21     978     987      23     972     978
      10     972    1020       4     960     972       6    1068    1071       1
    1068    1074       2    1038    1044       8    1038    1056       8    1032
    1038      10    1032    1068       4    1026    1032      12    1110    1113
       1    1110    1116       2    1095    1098       1    1095    1101       2
    1086    1095      15    1080    1086      10    1080    1110       4    1074
    1080      12    1161    1164       1    1161    1167       2    1146    1149
       1    1146    1152       2    1137    1146      15    1128    1137       8
    1122    1128      10    1122    1161       4    1116    1122      12    1215
    1218       1    1215    1221       2    1203    1209      27    1197    1203
      29    1191    1197      29    1188    1191      30    1188    1209      31
    1179    1188      32    1173    1179      10    1173    1215       4    1167
    1173      12    1272    1275       1    1272    1278       2    1242    1248
       8    1242    1260       8    1233    1242       8    1227    1233      10
    1227    1272       4    1221    1227      12    1302    1305       1    1302
    1308       2    1290    1299      18    1284    1290      10    1284    1302
       4    1278    1284      12    1323    1326       1    1323    1329       2
    1314    1323       4    1308    1314      12    1356    1359       1    1356
    1362       2    1341    1350      19    1335    1341      10    1335    1356
       4    1329    1335      12    1410    1413       1    1410    1416       2
    1398    1404      27    1392    1398      29    1386    1392      29    1383
    1386      30    1383    1404      31    1374    1383      32    1368    1374
      10    1368    1410       4    1362    1368      12    1467    1470       1
    1467    1473       2    1437    1443       8    1437    1455       8    1428
    1437       8    1422    1428      10    1422    1467       4    1416    1422
      12    1515    1518       1    1515    1521       2    1485    1491       8
    1485    1503       8    1479    1485      10    1479    1515       4    1473
    1479      12    1563    1566       1    1563    1578       2    1551    1554
      14    1551    1557      14    1542    1551      15    1533    1542       8
    1527    1533      10    1527    1563       4    1521    1527      12    1602
    1605       1    1602    1608       2    1584    1590      10    1584    1602
       4    1578    1584      12    1659    1662       1    1659    1665       2
    1629    1635       8    1629    1647       8    1620    1629       8    1614
    1620      10    1614    1659       4    1608    1614      12    1722    1725
       1    1722    1728       2    1710    1716      21    1701    1704      14
    1701    1710      22    1695    1701      22    1689    1695      21    1686
    1689      21    1686    1716      21    1677    1686      23    1671    1677
      10    1671    1722       4    1665    1671      12    1779    1782       1
    1779    1785       2    1749    1755       8    1749    1767       8    1740
    1749       8    1734    1740      10    1734    1779       4    1728    1734
      12    1827    1830       1    1827    1833       2    1797    1803       8
    1797    1815       8    1791    1797      10    1791    1827       4    1785
    1791      12    1857    1860       1    1857    1863       2    1845    1854
      18    1839    1845      10    1839    1857       4    1833    1839      12
    1878    1881       1    1878    1884       2    1869    1878       4    1863
    1869      12    1926    1929       1    1926    1941       2    1914    1917
      14    1914    1920      14    1905    1914      15    1896    1905       8
    1890    1896      10    1890    1926       4    1884    1890      12    2007
    2010       1    2007    2013       2    1986    1989      34    1986    1998
      34    1980    1986      34    1971    1980      35    1962    1971       8
    1953    1962       8    1947    1953      10    1947    2007       4    1941
    1947      12    2028    2031       1    2028    2034       2    2019    2028
       4    2013    2019      12    2088    2091       1    2088    2094       2
    2076    2082      21    2070    2076      21    2064    2070      21    2058
    2064      21    2055    2058      21    2055    2082      21    2046    2055
      23    2040    2046      10    2040    2088       4    2034    2040      12
    2148    2151       1    2148    2154       2    2136    2142      21    2130
    2136      21    2124    2130      21    2118    2124      21    2115    2118
      21    2115    2142      21    2106    2115      23    2100    2106      10
    2100    2148       4    2094    2100      12    2211    2214       1    2211
    2217       2    2199    2205      21    2190    2193      14    2190    2199
      22    2184    2190      22    2178    2184      21    2175    2178      21
    2175    2205      21    2166    2175      23    2160    2166      10    2160
    2211       4    2154    2160      12    2253    2256       1    2253    2259
       2    2229    2235       8    2229    2247      19    2223    2229      10
    2223    2253       4    2217    2223      12    2295    2298       1    2295
    2301       2    2289    2295       4    2280    2289      10    2271    2280
       8    2262    2271       8    2259    2262      36    2259    2289      12
    2361    2364       1    2361    2367       2    2340    2349      38    2331
    2340       8    2322    2331       8    2313    2322       8    2307    2313
      10    2307    2361       4    2301    2307      12    2391    2394      24
    2391    2397      24    2373    2379      10    2373    2391       4    2367
    2373      12
%FLAG ANGLES_INC_HYDROGEN
%FORMAT(10I8)
      21      27      30       2      18      12      21       4      15      12
      18       5      15      12      21       4       9       0      12       8
       6       0       9       9       6       0      12       8       3       0
       6       9       3       0       9       9       3       0      12       8
       0      12      15      10       0      12      18      10      78      84
      87       2      72      66      75      12      69      66      72      12
      69      66      75      12      63      57      66      13      60      57
      63      12      60      57      66      13      57      66      69      13
      57      66      72      13      57      66      75      13      51      45
      54      12      48      45      51      12      48      45      54      12
      42      39      45      13      42      39      57      13      39      45
      48      13      39      45      51      13      39      45      54      13
      39      57      60      13      39      57      63      13      36      33
      39      16      36      33      78      17      33      39      42      18
      30      27      33      20      27      33      36      21     126     132
     135       2     120     114     123      12     117     114     120      12
     117     114     123      12     108     102     111      12     105     102
     108      12     105     102     111      12      99      96     102      13
      99      96     114      13      96     102     105      13      96     102
     108      13      96     102     111      13      96     114     117      13
      96     114     120      13      96     114     123      13      93      90
      96      16      93      90     126      17      90      96      99      18
      87      84      90      20      84      90      93      21     183     165
     186      24     174     189     192       2     171     168     180      24
     162     165     183      26     162     165     186      26     162     168
     171      26     162     168     180      26     159     153     162      27
     156     153     159      12     156     153     162      27     150     144
     153      13     147     144     150      12     147     144     153      13
     144     153     156      13     144     153     159      13     141     138
     144      16     141     138     174      17     138     144     147      18
     138     144     150      18     135     132     138      20     132     138
     141      21     234     240     243       2     228     225     231      30
     219     225     228       2     219     225     231       2     216     210
     219      27     213     210     216      12     213     210     219      27
     207     201     210      13     204     201     207      12     204     201
     210      13     201     210     213      13     201     210     216      13
     198     195     201      16     198     195     234      17     195     201
     204      18     195     201     207      18     192     189     195      20
     189     195     198      21     264     270     273       2     258     252
     261      34     255     252     258      35     255     252     261      34
     249     246     252      16     249     246     264      17     246     252
     255      36     246     252     258      36     243     240     246      20
     240     246     249      21     294     300     303       2     288     282
     291      34     285     282     288      35     285     282     291      34
     279     276     282      16     279     276     294      17     276     282
     285      36     276     282     288      36     273     270     276      20
     270     276     279      21     336     342     345       2     324     318
     327      12     321     318     324      12     321     318     327      12
     315     312     318      39     315     312     330      40     312     318
     321      13     312     318     324      13     312     318     327      13
     312     330     333      41     309     306     312      16     309     306
     336      17     306     312     315      36     303     300     306      20
     300     306     309      21     369     375     378       2     360     354
     363      40     357     354     360      35     357     354     363      40
     354     363     366      41     351     348     354      16     351     348
     369      17     348     354     357      36     348     354     360      36
     345     342     348      20     342     348     351      21     426     432
     435       2     420     414     423      12     417     414     420      12
     417     414     423      12     411     405     414      13     408     405
     411      12     408     405     414      13     405     414     417      13
     405     414     420      13     405     414     423      13     399     393
     402      12     396     393     399      12     396     393     402      12
     390     387     393      13     390     387     405      13     387     393
     396      13     387     393     399      13     387     393     402      13
     387     405     408      13     387     405     411      13     384     381
     387      16     384     381     426      17     381     387     390      18
     378     375     381      20     375     381     384      21     456     462
     465       2     450     444     453      34     447     444     450      35
     447     444     453      34     441     438     444      16     441     438
     456      17     438     444     447      36     438     444     450      36
     435     432     438      20     432     438     441      21     489     495
     498       2     480     474     483      40     477     474     480      35
     477     474     483      40     474     483     486      41     471     468
     474      16     471     468     489      17     468     474     477      36
     468     474     480      36     465     462     468      20     462     468
     471      21     546     552     555       2     540     534     543      12
     537     534     540      12     537     534     543      12     528     522
     531      12     525     522     528      12     525     522     531      12
     519     516     522      13     519     516     534      13     516     522
     525      13     516     522     528      13     516     522     531      13
     516     534     537      13     516     534     540      13     516     534
     543      13     513     507     516      13     510     507     513      12
     510     507     516      13     507     516     519      13     504     501
     507      16     504     501     546      17     501     507     510      18
     501     507     513      18     498     495     501      20     495     501
     504      21     609     615     618       2     600     597     603      43
     597     603     606      43     588     591     594      26     588     597
     600      45     585     582     588      45     579     576     582      43
     576     582     585      43     573     576     579      43     573     603
     606      43     570     564     573      49     567     564     570      12
     567     564     573      49     561     558     564      16     561     558
     609      17     558     564     567      18     558     564     570      18
     555     552     558      20     552     558     561      21     660     666
     669       2     654     651     657      30     645     651     654       2
     645     651     657       2     642     636     645      27     639     636
     642      12     639     636     645      27     633     627     636      13
     630     627     633      12     630     627     636      13     627     636
     639      13     627     636     642      13     624     621     627      16
     624     621     660      17     621     627     630      18     621     627
     633      18     618     615     621      20     615     621     624      21
     717     723     726       2     711     705     714      12     708     705
     711      12     708     705     714      12     699     693     702      12
     696     693     699      12     696     693     702      12     690     687
     693      13     690     687     705      13     687     693     696      13
     687     693     699      13     687     693     702      13     687     705
     708      13     687     705     711      13     687     705     714      13
     684     678     687      13     681     678     684      12     681     678
     687      13     678     687     690      13     675     672     678      16
     675     672     717      17     672     678     681      18     672     678
     684      18     669     666     672      20     666     672     675      21
     774     756     777      24     765     780     783       2     762     759
     771      24     753     756     774      26     753     756     777      26
     753     759     762      26     753     759     771      26     750     744
     753      27     747     744     750      12     747     744     753      27
     741     735     744      13     738     735     741      12     738     735
     744      13     735     744     747      13     735     744     750      13
     732     729     735      16     732     729     765      17     729     735
     738      18     729     735     741      18     726     723     729      20
     723     729     732      21     816     822     825       2     810     807
     813      30     801     807     810       2     801     807     813       2
     798     792     801      27     795     792     798      12     795     792
     801      27     789     786     792      16     789     786     816      17
     786     792     795      18     786     792     798      18     783     780
     786      20     780     786     789      21     879     885     888       2
     870     867     873      43     867     873     876      43     858     861
     864      26     858     867     870      45     855     852     858      45
     849     846     852      43     846     852     855      43     843     846
     849      43     843     873     876      43     840     834     843      49
     837     834     840      12     837     834     843      49     831     828
     834      16     831     828     879      17     828     834     837      18
     828     834     840      18     825     822     828      20     822     828
     831      21     909     915     918       2     903     897     906      34
     900     897     903      35     900     897     906      34     894     891
     897      16     894     891     909      17     891     897     900      36
     891     897     903      36     888     885     891      20     885     891
     894      21     945     942     948      30     936     942     945       2
     936     942     948       2     933     927     936      27     930     927
     933      12     930     927     936      27     924     921     927      16
     924     921     951      17     921     927     930      18     921     927
     933      18     918     915     921      20     915     921     924      21
    1020    1026    1029       2    1011    1008    1014      43    1008    1014
    1017      43    1005    1002    1008      43    1002    1008    1011      43
     999     996    1002      43     996    1002    1005      43     993     990
     996      43     990     996     999      43     987     990     993      43
     987    1014    1017      43     984     978     987      49     981     978
     984      12     981     978     987      49     975     972     978      55
     975     972    1020       4     972     978     981      18     972     978
     984      18     969     960     972       8     966     960     969       9
     966     960     972       8     963     960     966       9     963     960
     969       9     963     960     972       8     960     972     975      10
    1068    1074    1077       2    1062    1056    1065      12    1059    1056
    1062      12    1059    1056    1065      12    1050    1044    1053      12
    1047    1044    1050      12    1047    1044    1053      12    1041    1038
    1044      13    1041    1038    1056      13    1038    1044    1047      13
    1038    1044    1050      13    1038    1044    1053      13    1038    1056
    1059      13    1038    1056    1062      13    1038    1056    1065      13
    1035    1032    1038      16    1035    1032    1068      17    1032    1038
    1041      18    1029    1026    1032      20    1026    1032    1035      21
    1110    1116    1119       2    1104    1101    1107      30    1095    1101
    1104       2    1095    1101    1107       2    1092    1086    1095      27
    1089    1086    1092      12    1089    1086    1095      27    1083    1080
    1086      16    1083    1080    1110      17    1080    1086    1089      18
    1080    1086    1092      18    1077    1074    1080      20    1074    1080
    1083      21    1161    1167    1170       2    1155    1152    1158      30
    1146    1152    1155       2    1146    1152    1158       2    1143    1137
    1146      27    1140    1137    1143      12    1140    1137    1146      27
    1134    1128    1137      13    1131    1128    1134      12    1131    1128
    1137      13    1128    1137    1140      13    1128    1137    1143      13
    1125    1122    1128      16    1125    1122    1161      17    1122    1128
    1131      18    1122    1128    1134      18    1119    1116    1122      20
    1116    1122    1125      21    1215    1221    1224       2    1206    1203
    1209      57    1203    1209    1212      58    1200    1197    1203      59
    1197    1203    1206      60    1194    1191    1197      60    1191    1197
    1200      59    1188    1191    1194      64    1188    1209    1212      67
    1185    1179    1188      68    1182    1179    1185      12    1182    1179
    1188      68    1176    1173    1179      16    1176    1173    1215      17
    1173    1179    1182      18    1173    1179    1185      18    1170    1167
    1173      20    1167    1173    1176      21    1272    1278    1281       2
    1266    1260    1269      12    1263    1260    1266      12    1263    1260
    1269      12    1254    1248    1257      12    1251    1248    1254      12
    1251    1248    1257      12    1245    1242    1248      13    1245    1242
    1260      13    1242    1248    1251      13    1242    1248    1254      13
    1242    1248    1257      13    1242    1260    1263      13    1242    1260
    1266      13    1242    1260    1269      13    1239    1233    1242      13
    1236    1233    1239      12    1236    1233    1242      13    1233    1242
    1245      13    1230    1227    1233      16    1230    1227    1272      17
    1227    1233    1236      18    1227    1233    1239      18    1224    1221
    1227      20    1221    1227    1230      21    1302    1308    1311       2
    1296    1290    1299      34    1293    1290    1296      35    1293    1290
    1299      34    1287    1284    1290      16    1287    1284    1302      17
    1284    1290    1293      36    1284    1290    1296      36    1281    1278
    1284      20    1278    1284    1287      21    1323    1329    1332       2
    1320    1314    1323      17    1317    1314    1320      72    1317    1314
    1323      17    1311    1308    1314      20    1308    1314    1317      21
    1308    1314    1320      21    1356    1362    1365       2    1347    1341
    1350      40    1344    1341    1347      35    1344    1341    1350      40
    1341    1350    1353      41    1338    1335    1341      16    1338    1335
    1356      17    1335    1341    1344      36    1335    1341    1347      36
    1332    1329    1335      20    1329    1335    1338      21    1410    1416
    1419       2    1401    1398    1404      57    1398    1404    1407      58
    1395    1392    1398      59    1392    1398    1401      60    1389    1386
    1392      60    1386    1392    1395      59    1383    1386    1389      64
    1383    1404    1407      67    1380    1374    1383      68    1377    1374
    1380      12    1377    1374    1383      68    1371    1368    1374      16
    1371    1368    1410      17    1368    1374    1377      18    1368    1374
    1380      18    1365    1362    1368      20    1362    1368    1371      21
    1467    1473    1476       2    1461    1455    1464      12    1458    1455
    1461      12    1458    1455    1464      12    1449    1443    1452      12
    1446    1443    1449      12    1446    1443    1452      12    1440    1437
    1443      13    1440    1437    1455      13    1437    1443    1446      13
    1437    1443    1449      13    1437    1443    1452      13    1437    1455
    1458      13    1437    1455    1461      13    1437    1455    1464      13
    1434    1428    1437      13    1431    1428    1434      12    1431    1428
    1437      13    1428    1437    1440      13    1425    1422    1428      16
    1425    1422    1467      17    1422    1428    1431      18    1422    1428
    1434      18    1419    1416    1422      20    1416    1422    1425      21
    1515    1521    1524       2    1509    1503    1512      12    1506    1503
    1509      12    1506    1503    1512      12    1497    1491    1500      12
    1494    1491    1497      12    1494    1491    1500      12    1488    1485
    1491      13    1488    1485    1503      13    1485    1491    1494      13
    1485    1491    1497      13    1485    1491    1500      13    1485    1503
    1506      13    1485    1503    1509      13    1485    1503    1512      13
    1482    1479    1485      16    1482    1479    1515      17    1479    1485
    1488      18    1476    1473    1479      20    1473    1479    1482      21
    1572    1554    1575      24    1563    1578    1581       2    1560    1557
    1569      24    1551    1554    1572      26    1551    1554    1575      26
    1551    1557    1560      26    1551    1557    1569      26    1548    1542
    1551      27    1545    1542    1548      12    1545    1542    1551      27
    1539    1533    1542      13    1536    1533    1539      12    1536    1533
    1542      13    1533    1542    1545      13    1533    1542    1548      13
    1530    1527    1533      16    1530    1527    1563      17    1527    1533
    1536      18    1527    1533    1539      18    1524    1521    1527      20
    1521    1527    1530      21    1602    1608    1611       2    1596    1590
    1599      12    1593    1590    1596      12    1593    1590    1599      12
    1587    1584    1590      16    1587    1584    1602      17    1584    1590
    1593      18    1584    1590    1596      18    1584    1590    1599      18
    1581    1578    1584      20    1578    1584    1587      21    1659    1665
    1668       2    1653    1647    1656      12    1650    1647    1653      12
    1650    1647    1656      12    1641    1635    1644      12    1638    1635
    1641      12    1638    1635    1644      12    1632    1629    1635      13
    1632    1629    1647      13    1629    1635    1638      13    1629    1635
    1641      13    1629    1635    1644      13    1629    1647    1650      13
    1629    1647    1653      13    1629    1647    1656      13    1626    1620
    1629      13    1623    1620    1626      12    1623    1620    1629      13
    1620    1629    1632      13    1617    1614    1620      16    1617    1614
    1659      17    1614    1620    1623      18    1614    1620    1626      18
    1611    1608    1614      20    1608    1614    1617      21    1722    1728
    1731       2    1713    1710    1716      43    1710    1716    1719      43
    1701    1704    1707      26    1701    1710    1713      45    1698    1695
    1701      45    1692    1689    1695      43    1689    1695    1698      43
    1686    1689    1692      43    1686    1716    1719      43    1683    1677
    1686      49    1680    1677    1683      12    1680    1677    1686      49
    1674    1671    1677      16    1674    1671    1722      17    1671    1677
    1680      18    1671    1677    1683      18    1668    1665    1671      20
    1665    1671    1674      21    1779    1785    1788       2    1773    1767
    1776      12    1770    1767    1773      12    1770    1767    1776      12
    1761    1755    1764      12    1758    1755    1761      12    1758    1755
    1764      12    1752    1749    1755      13    1752    1749    1767      13
    1749    1755    1758      13    1749    1755    1761      13    1749    1755
    1764      13    1749    1767    1770      13    1749    1767    1773      13
    1749    1767    1776      13    1746    1740    1749      13    1743    1740
    1746      12    1743    1740    1749      13    1740    1749    1752      13
    1737    1734    1740      16    1737    1734    1779      17    1734    1740
    1743      18    1734    1740    1746      18    1731    1728    1734      20
    1728    1734    1737      21    1827    1833    1836       2    1821    1815
    1824      12    1818    1815    1821      12    1818    1815    1824      12
    1809    1803    1812      12    1806    1803    1809      12    1806    1803
    1812      12    1800    1797    1803      13    1800    1797    1815      13
    1797    1803    1806      13    1797    1803    1809      13    1797    1803
    1812      13    1797    1815    1818      13    1797    1815    1821      13
    1797    1815    1824      13    1794    1791    1797      16    1794    1791
    1827      17    1791    1797    1800      18    1788    1785    1791      20
    1785    1791    1794      21    1857    1863    1866       2    1851    1845
    1854      34    1848    1845    1851      35    1848    1845    1854      34
    1842    1839    1845      16    1842    1839    1857      17    1839    1845
    1848      36    1839    1845    1851      36    1836    1833    1839      20
    1833    1839    1842      21    1878    1884    1887       2    1875    1869
    1878      17    1872    1869    1875      72    1872    1869    1878      17
    1866    1863    1869      20    1863    1869    1872      21    1863    1869
    1875      21    1935    1917    1938      24    1926    1941    1944       2
    1923    1920    1932      24    1914    1917    1935      26    1914    1917
    1938      26    1914    1920    1923      26    1914    1920    1932      26
    1911    1905    1914      27    1908    1905    1911      12    1908    1905
    1914      27    1902    1896    1905      13    1899    1896    1902      12
    1899    1896    1905      13    1896    1905    1908      13    1896    1905
    1911      13    1893    1890    1896      16    1893    1890    1926      17
    1890    1896    1899      18    1890    1896    1902      18    1887    1884
    1890      20    1884    1890    1893      21    2007    2013    2016       2
    2001    1998    2004      73    1992    1989    1995      73    1986    1989
    1992      75    1986    1989    1995      75    1986    1998    2001      75
    1986    1998    2004      75    1983    1980    1986      75    1977    1971
    1980      76    1974    1971    1977      35    1974    1971    1980      76
    1971    1980    1983      77    1968    1962    1971      13    1965    1962
    1968      12    1965    1962    1971      13    1962    1971    1974      39
    1962    1971    1977      39    1959    1953    1962      13    1956    1953
    1959      12    1956    1953    1962      13    1953    1962    1965      13
    1953    1962    1968      13    1950    1947    1953      16    1950    1947
    2007      17    1947    1953    1956      18    1947    1953    1959      18
    1944    1941    1947      20    1941    1947    1950      21    2028    2034
    2037       2    2025    2019    2028      17    2022    2019    2025      72
    2022    2019    2028      17    2016    2013    2019      20    2013    2019
    2022      21    2013    2019    2025      21    2088    2094    2097       2
    2079    2076    2082      43    2076    2082    2085      43    2073    2070
    2076      43    2070    2076    2079      43    2067    2064    2070      43
    2064    2070    2073      43    2061    2058    2064      43    2058    2064
    2067      43    2055    2058    2061      43    2055    2082    2085      43
    2052    2046    2055      49    2049    2046    2052      12    2049    2046
    2055      49    2043    2040    2046      16    2043    2040    2088      17
    2040    2046    2049      18    2040    2046    2052      18    2037    2034
    2040      20    2034    2040    2043      21    2148    2154    2157       2
    2139    2136    2142      43    2136    2142    2145      43    2133    2130
    2136      43    2130    2136    2139      43    2127    2124    2130      43
    2124    2130    2133      43    2121    2118    2124      43    2118    2124
    2127      43    2115    2118    2121      43    2115    2142    2145      43
    2112    2106    2115      49    2109    2106    2112      12    2109    2106
    2115      49    2103    2100    2106      16    2103    2100    2148      17
    2100    2106    2109      18    2100    2106    2112      18    2097    2094
    2100      20    2094    2100    2103      21    2211    2217    2220       2
    2202    2199    2205      43    2199    2205    2208      43    2190    2193
    2196      26    2190    2199    2202      45    2187    2184    2190      45
    2181    2178    2184      43    2178    2184    2187      43    2175    2178
    2181      43    2175    2205    2208      43    2172    2166    2175      49
    2169    2166    2172      12    2169    2166    2175      49    2163    2160
    2166      16    2163    2160    2211      17    2160    2166    2169      18
    2160    2166    2172      18    2157    2154    2160      20    2154    2160
    2163      21    2241    2235    2244      12    2238    2235    2241      12
    2238    2235    2244      12    2232    2229    2235      39    2232    2229
    2247      40    2229    2235    2238      13    2229    2235    2241      13
    2229    2235    2244      13    2229    2247    2250      41    2226    2223
    2229      16    2226    2223    2253      17    2223    2229    2232      36
    2220    2217    2223      20    2217    2223    2226      21    2295    2301
    2304       2    2292    2289    2295      17    2286    2280    2289      18
    2283    2280    2286      12    2283    2280    2289      18    2280    2289
    2292      16    2277    2271    2280      13    2274    2271    2277      12
    2274    2271    2280      13    2271    2280    2283      13    2271    2280
    2286      13    2268    2262    2271      39    2265    2262    2268      35
    2265    2262    2271      39    2262    2271    2274      13    2262    2271
    2277      13    2259    2262    2265      82    2259    2262    2268      82
    2259    2289    2292      21    2361    2367    2370       2    2355    2349
    2358       9    2352    2349    2355       9    2352    2349    2358       9
    2346    2340    2349      84    2343    2340    2346      85    2343    2340
    2349      84    2340    2349    2352      86    2340    2349    2355      86
    2340    2349    2358      86    2337    2331    2340      13    2334    2331
    2337      12    2334    2331    2340      13    2331    2340    2343      87
    2331    2340    2346      87    2328    2322    2331      13    2325    2322
    2328      12    2325    2322    2331      13    2322    2331    2334      13
    2322    2331    2337      13    2319    2313    2322      13    2316    2313
    2319      12    2316    2313    2322      13    2313    2322    2325      13
    2313    2322    2328      13    2310    2307    2313      16    2310    2307
    2361      17    2307    2313    2316      18    2307    2313    2319      18
    2304    2301    2307      20    2301    2307    2310      21    2385    2379
    2388      12    2382    2379    2385      12    2382    2379    2388      12
    2376    2373    2379      16    2376    2373    2391      17    2373    2379
    2382      18    2373    2379    2385      18    2373    2379    2388      18
    2370    2367    2373      20    2367    2373    2376      21
%FLAG ANGLES_WITHOUT_HYDROGEN
%FORMAT(10I8)
      24      21      27       1      21      27      33       3      12      21
      24       6      12      21      27       7       0      12      21      11
      81      78      84       1      78      84      90       3      45      39
      57      14      39      33      78      15      39      57      66      14
      33      39      45      19      33      39      57      19      33      78
      81       6      33      78      84       7      27      33      39      22
      27      33      78      23     129     126     132       1     126     132
     138       3     102      96     114      14      96      90     126      15
      90      96     102      19      90      96     114      19      90     126
     129       6      90     126     132       7      84      90      96      22
      84      90     126      23     177     174     189       1     174     189
     195       3     165     162     168      25     153     162     165      28
     153     162     168      28     144     138     174      15     144     153
     162      29     138     144     153      19     138     174     177       6
     138     174     189       7     132     138     144      22     132     138
     174      23     237     234     240       1     234     240     246       3
     222     219     225       1     210     219     222      31     210     219
     225      32     201     195     234      15     201     210     219      29
     195     201     210      19     195     234     237       6     195     234
     240       7     189     195     201      22     189     195     234      23
     267     264     270       1     264     270     276       3     261     453
     444      33     252     246     264      15     252     261     453      33
     246     252     261      37     246     264     267       6     246     264
     270       7     240     246     252      22     240     246     264      23
     297     294     300       1     294     300     306       3     291    1299
    1290      33     282     276     294      15     282     291    1299      33
     276     282     291      37     276     294     297       6     276     294
     300       7     270     276     282      22     270     276     294      23
     339     336     342       1     336     342     348       3     318     312
     330      38     312     306     336      15     306     312     318      19
     306     312     330      42     306     336     339       6     306     336
     342       7     300     306     312      22     300     306     336      23
     372     369     375       1     369     375     381       3     354     348
     369      15     348     354     363      42     348     369     372       6
     348     369     375       7     342     348     354      22     342     348
     369      23     429     426     432       1     426     432     438       3
     393     387     405      14     387     381     426      15     387     405
     414      14     381     387     393      19     381     387     405      19
     381     426     429       6     381     426     432       7     375     381
     387      22     375     381     426      23     459     456     462       1
     456     462     468       3     444     438     456      15     438     444
     453      37     438     456     459       6     438     456     462       7
     432     438     444      22     432     438     456      23     492     489
     495       1     489     495     501       3     474     468     489      15
     468     474     483      42     468     489     492       6     468     489
     495       7     462     468     474      22     462     468     489      23
     549     546     552       1     546     552     558       3     522     516
     534      14     507     501     546      15     507     516     522      14
     507     516     534      14     501     507     516      19     501     546
     549       6     501     546     552       7     495     501     507      22
     495     501     546      23     612     609     615       1     609     615
     621       3     591     588     597      44     588     597     603      46
     582     588     591      44     582     588     597      47     576     573
     603      48     576     582     588      46     573     576     582      48
     573     603     597      48     564     558     609      15     564     573
     576      50     564     573     603      50     558     564     573      51
     558     609     612       6     558     609     615       7     552     558
     564      22     552     558     609      23     663     660     666       1
     660     666     672       3     648     645     651       1     636     645
     648      31     636     645     651      32     627     621     660      15
     627     636     645      29     621     627     636      19     621     660
     663       6     621     660     666       7     615     621     627      22
     615     621     660      23     720     717     723       1     717     723
     729       3     693     687     705      14     678     672     717      15
     678     687     693      14     678     687     705      14     672     678
     687      19     672     717     720       6     672     717     723       7
     666     672     678      22     666     672     717      23     768     765
     780       1     765     780     786       3     756     753     759      25
     744     753     756      28     744     753     759      28     735     729
     765      15     735     744     753      29     729     735     744      19
     729     765     768       6     729     765     780       7     723     729
     735      22     723     729     765      23     819     816     822       1
     816     822     828       3     804     801     807       1     792     786
     816      15     792     801     804      31     792     801     807      32
     786     792     801      52     786     816     819       6     786     816
     822       7     780     786     792      22     780     786     816      23
     882     879     885       1     879     885     891       3     861     858
     867      44     858     867     873      46     852     858     861      44
     852     858     867      47     846     843     873      48     846     852
     858      46     843     846     852      48     843     873     867      48
     834     828     879      15     834     843     846      50     834     843
     873      50     828     834     843      51     828     879     882       6
     828     879     885       7     822     828     834      22     822     828
     879      23     912     909     915       1     909     915     921       3
     906    1854    1845      33     897     891     909      15     897     906
    1854      33     891     897     906      37     891     909     912       6
     891     909     915       7     885     891     897      22     885     891
     909      23     954     951     957      53     939     936     942       1
     927     921     951      15     927     936     939      31     927     936
     942      32     921     927     936      52     921     951     954      54
     921     951     957      54     915     921     927      22     915     921
     951      23    1023    1020    1026       1    1020    1026    1032       3
    1002    1008    1014      48     996    1002    1008      48     990     987
    1014      48     990     996    1002      48     987     990     996      48
     987    1014    1008      48     978     972    1020      15     978     987
     990      50     978     987    1014      50     972     978     987      51
     972    1020    1023       6     972    1020    1026       7     960     972
     978      56     960     972    1020      11    1071    1068    1074       1
    1068    1074    1080       3    1044    1038    1056      14    1038    1032
    1068      15    1032    1038    1044      19    1032    1038    1056      19
    1032    1068    1071       6    1032    1068    1074       7    1026    1032
    1038      22    1026    1032    1068      23    1113    1110    1116       1
    1110    1116    1122       3    1098    1095    1101       1    1086    1080
    1110      15    1086    1095    1098      31    1086    1095    1101      32
    1080    1086    1095      52    1080    1110    1113       6    1080    1110
    1116       7    1074    1080    1086      22    1074    1080    1110      23
    1164    1161    1167       1    1161    1167    1173       3    1149    1146
    1152       1    1137    1146    1149      31    1137    1146    1152      32
    1128    1122    1161      15    1128    1137    1146      29    1122    1128
    1137      19    1122    1161    1164       6    1122    1161    1167       7
    1116    1122    1128      22    1116    1122    1161      23    1218    1215
    1221       1    1215    1221    1227       3    1197    1203    1209      61
    1191    1188    1209      62    1191    1197    1203      63    1188    1191
    1197      65    1188    1209    1203      66    1179    1173    1215      15
    1179    1188    1191      69    1179    1188    1209      70    1173    1179
    1188      71    1173    1215    1218       6    1173    1215    1221       7
    1167    1173    1179      22    1167    1173    1215      23    1275    1272
    1278       1    1272    1278    1284       3    1248    1242    1260      14
    1233    1227    1272      15    1233    1242    1248      14    1233    1242
    1260      14    1227    1233    1242      19    1227    1272    1275       6
    1227    1272    1278       7    1221    1227    1233      22    1221    1227
    1272      23    1305    1302    1308       1    1302    1308    1314       3
    1290    1284    1302      15    1284    1290    1299      37    1284    1302
    1305       6    1284    1302    1308       7    1278    1284    1290      22
    1278    1284    1302      23    1326    1323    1329       1    1323    1329
    1335       3    1314    1323    1326       6    1314    1323    1329       7
    1308    1314    1323      23    1359    1356    1362       1    1356    1362
    1368       3    1341    1335    1356      15    1335    1341    1350      42
    1335    1356    1359       6    1335    1356    1362       7    1329    1335
    1341      22    1329    1335    1356      23    1413    1410    1416       1
    1410    1416    1422       3    1392    1398    1404      61    1386    1383
    1404      62    1386    1392    1398      63    1383    1386    1392      65
    1383    1404    1398      66    1374    1368    1410      15    1374    1383
    1386      69    1374    1383    1404      70    1368    1374    1383      71
    1368    1410    1413       6    1368    1410    1416       7    1362    1368
    1374      22    1362    1368    1410      23    1470    1467    1473       1
    1467    1473    1479       3    1443    1437    1455      14    1428    1422
    1467      15    1428    1437    1443      14    1428    1437    1455      14
    1422    1428    1437      19    1422    1467    1470       6    1422    1467
    1473       7    1416    1422    1428      22    1416    1422    1467      23
    1518    1515    1521       1    1515    1521    1527       3    1491    1485
    1503      14    1485    1479    1515      15    1479    1485    1491      19
    1479    1485    1503      19    1479    1515    1518       6    1479    1515
    1521       7    1473    1479    1485      22    1473    1479    1515      23
    1566    1563    1578       1    1563    1578    1584       3    1554    1551
    1557      25    1542    1551    1554      28    1542    1551    1557      28
    1533    1527    1563      15    1533    1542    1551      29    1527    1533
    1542      19    1527    1563    1566       6    1527    1563    1578       7
    1521    1527    1533      22    1521    1527    1563      23    1605    1602
    1608       1    1602    1608    1614       3    1590    1584    1602      15
    1584    1602    1605       6    1584    1602    1608       7    1578    1584
    1590      22    1578    1584    1602      23    1662    1659    1665       1
    1659    1665    1671       3    1635    1629    1647      14    1620    1614
    1659      15    1620    1629    1635      14    1620    1629    1647      14
    1614    1620    1629      19    1614    1659    1662       6    1614    1659
    1665       7    1608    1614    1620      22    1608    1614    1659      23
    1725    1722    1728       1    1722    1728    1734       3    1704    1701
    1710      44    1701    1710    1716      46    1695    1701    1704      44
    1695    1701    1710      47    1689    1686    1716      48    1689    1695
    1701      46    1686    1689    1695      48    1686    1716    1710      48
    1677    1671    1722      15    1677    1686    1689      50    1677    1686
    1716      50    1671    1677    1686      51    1671    1722    1725       6
    1671    1722    1728       7    1665    1671    1677      22    1665    1671
    1722      23    1782    1779    1785       1    1779    1785    1791       3
    1755    1749    1767      14    1740    1734    1779      15    1740    1749
    1755      14    1740    1749    1767      14    1734    1740    1749      19
    1734    1779    1782       6    1734    1779    1785       7    1728    1734
    1740      22    1728    1734    1779      23    1830    1827    1833       1
    1827    1833    1839       3    1803    1797    1815      14    1797    1791
    1827      15    1791    1797    1803      19    1791    1797    1815      19
    1791    1827    1830       6    1791    1827    1833       7    1785    1791
    1797      22    1785    1791    1827      23    1860    1857    1863       1
    1857    1863    1869       3    1845    1839    1857      15    1839    1845
    1854      37    1839    1857    1860       6    1839    1857    1863       7
    1833    1839    1845      22    1833    1839    1857      23    1881    1878
    1884       1    1878    1884    1890       3    1869    1878    1881       6
    1869    1878    1884       7    1863    1869    1878      23    1929    1926
    1941       1    1926    1941    1947       3    1917    1914    1920      25
    1905    1914    1917      28    1905    1914    1920      28    1896    1890
    1926      15    1896    1905    1914      29    1890    1896    1905      19
    1890    1926    1929       6    1890    1926    1941       7    1884    1890
    1896      22    1884    1890    1926      23    2010    2007    2013       1
    2007    2013    2019       3    1989    1986    1998      74    1980    1986
    1989      74    1980    1986    1998      74    1971    1980    1986      78
    1962    1971    1980      79    1953    1947    2007      15    1953    1962
    1971      14    1947    1953    1962      19    1947    2007    2010       6
    1947    2007    2013       7    1941    1947    1953      22    1941    1947
    2007      23    2031    2028    2034       1    2028    2034    2040       3
    2019    2028    2031       6    2019    2028    2034       7    2013    2019
    2028      23    2091    2088    2094       1    2088    2094    2100       3
    2070    2076    2082      48    2064    2070    2076      48    2058    2055
    2082      48    2058    2064    2070      48    2055    2058    2064      48
    2055    2082    2076      48    2046    2040    2088      15    2046    2055
    2058      50    2046    2055    2082      50    2040    2046    2055      51
    2040    2088    2091       6    2040    2088    2094       7    2034    2040
    2046      22    2034    2040    2088      23    2151    2148    2154       1
    2148    2154    2160       3    2130    2136    2142      48    2124    2130
    2136      48    2118    2115    2142      48    2118    2124    2130      48
    2115    2118    2124      48    2115    2142    2136      48    2106    2100
    2148      15    2106    2115    2118      50    2106    2115    2142      50
    2100    2106    2115      51    2100    2148    2151       6    2100    2148
    2154       7    2094    2100    2106      22    2094    2100    2148      23
    2214    2211    2217       1    2211    2217    2223       3    2193    2190
    2199      44    2190    2199    2205      46    2184    2190    2193      44
    2184    2190    2199      47    2178    2175    2205      48    2178    2184
    2190      46    2175    2178    2184      48    2175    2205    2199      48
    2166    2160    2211      15    2166    2175    2178      50    2166    2175
    2205      50    2160    2166    2175      51    2160    2211    2214       6
    2160    2211    2217       7    2154    2160    2166      22    2154    2160
    2211      23    2256    2253    2259       1    2253    2259    2262      80
    2253    2259    2289       3    2235    2229    2247      38    2229    2223
    2253      15    2223    2229    2235      19    2223    2229    2247      42
    2223    2253    2256       6    2223    2253    2259       7    2217    2223
    2229      22    2217    2223    2253      23    2298    2295    2301       1
    2295    2301    2307       3    2289    2295    2298       6    2289    2295
    2301       7    2280    2289    2295      15    2271    2280    2289      19
    2262    2259    2289      81    2262    2271    2280      14    2259    2262
    2271      83    2259    2289    2280      22    2259    2289    2295      23
    2364    2361    2367       1    2361    2367    2373       3    2331    2340
    2349      88    2322    2331    2340      14    2313    2307    2361      15
    2313    2322    2331      14    2307    2313    2322      19    2307    2361
    2364       6    2307    2361    2367       7    2301    2307    2313      22
    2301    2307    2361      23    2394    2391    2397      53    2379    2373
    2391      15    2373    2391    2394      54    2373    2391    2397      54
    2367    2373    2379      22    2367    2373    2391      23
%FLAG DIHEDRALS_INC_HYDROGEN
%FORMAT(10I8)
      24      21      27      30       1      24      21     -27      30       2
      21      27      33      36       3      18      12      21      24       3
      18      12      21      27       3      15      12      21      24       3
      15      12      21      27       3      12      21      27      30       2
       9       0      12      15      10       9       0      12      18      10
       9       0      12      21      10       6       0      12      15      10
       6       0      12      18      10       6       0      12      21      10
       3       0      12      15      10       3       0      12      18      10
       3       0      12      21      10      81      78      84      87       1
      81      78     -84      87       2      78      84      90      93       3
      63      57      66      69      11      63      57      66      72      11
      63      57      66      75      11      60      57      66      69      11
      60      57      66      72      11      60      57      66      75      11
      54      45      39      57      12      51      45      39      57      12
      48      45      39      57      12      45      39      57      60      12
      45      39      57      63      12      42      39      33      78      10
      42      39      45      48      11      42      39      45      51      11
      42      39      45      54      11      42      39      57      60      11
      42      39      57      63      11      42      39      57      66      12
      39      57      66      69      12      39      57      66      72      12
      39      57      66      75      12      36      33      39      42      10
      36      33      39      45      10      36      33      39      57      10
      36      33      78      81      18      36      33     -78      81       3
      36      33     -78      81      19      36      33      78      84       3
      33      39      45      48      12      33      39      45      51      12
      33      39      45      54      12      33      39      57      60      12
      33      39      57      63      12      33      78      84      87       2
      30      27      33      36       3      30      27      33      39       3
      30      27      33      78       3      27      33      39      42      10
     129     126     132     135       1     129     126    -132     135       2
     126     132     138     141       3     111     102      96     114      12
     108     102      96     114      12     105     102      96     114      12
     102      96     114     117      12     102      96     114     120      12
     102      96     114     123      12      99      96      90     126      10
      99      96     102     105      11      99      96     102     108      11
      99      96     102     111      11      99      96     114     117      11
      99      96     114     120      11      99      96     114     123      11
      93      90      96      99      10      93      90      96     102      10
      93      90      96     114      10      93      90     126     129      18
      93      90    -126     129       3      93      90    -126     129      19
      93      90     126     132       3      90      96     102     105      12
      90      96     102     108      12      90      96     102     111      12
      90      96     114     117      12      90      96     114     120      12
      90      96     114     123      12      90     126     132     135       2
      87      84      90      93       3      87      84      90      96       3
      87      84      90     126       3      84      90      96      99      10
     177     174     189     192       1     177     174    -189     192       2
     174     189     195     198       3     168     162     165     183      23
     168     162     165     186      23     165     162     168     171      23
     165     162     168     180      23     159     153     162     165       3
     159     153     162     168       3     156     153     162     165       3
     156     153     162     168       3     153     162     165     183      23
     153     162     165     186      23     153     162     168     171      23
     153     162     168     180      23     150     144     138     174      10
     150     144     153     156      11     150     144     153     159      11
     150     144     153     162      10     147     144     138     174      10
     147     144     153     156      11     147     144     153     159      11
     147     144     153     162      10     141     138     144     147      10
     141     138     144     150      10     141     138     144     153      10
     141     138     174     177      18     141     138    -174     177       3
     141     138    -174     177      19     141     138     174     189       3
     138     144     153     156      12     138     144     153     159      12
     138     174     189     192       2     135     132     138     141       3
     135     132     138     144       3     135     132     138     174       3
     132     138     144     147      10     132     138     144     150      10
     237     234     240     243       1     237     234    -240     243       2
     234     240     246     249       3     222     219     225     228       1
     222     219    -225     228       2     222     219     225     231       1
     222     219    -225     231       2     216     210     219     222      18
     216     210    -219     222       3     216     210    -219     222      19
     216     210     219     225       3     213     210     219     222      18
     213     210    -219     222       3     213     210    -219     222      19
     213     210     219     225       3     210     219     225     228       2
     210     219     225     231       2     207     201     195     234      10
     207     201     210     213      11     207     201     210     216      11
     207     201     210     219      10     204     201     195     234      10
     204     201     210     213      11     204     201     210     216      11
     204     201     210     219      10     198     195     201     204      10
     198     195     201     207      10     198     195     201     210      10
     198     195     234     237      18     198     195    -234     237       3
     198     195    -234     237      19     198     195     234     240       3
     195     201     210     213      12     195     201     210     216      12
     195     234     240     243       2     192     189     195     198       3
     192     189     195     201       3     192     189     195     234       3
     189     195     201     204      10     189     195     201     207      10
     267     264     270     273       1     267     264    -270     273       2
     264     270     276     279       3     261     453     444     447      24
     261     453     444     450      24     258     252     246     264      10
     258     252     261     453      24     255     252     246     264      10
     255     252     261     453      24     249     246     252     255      10
     249     246     252     258      10     249     246     252     261      10
     249     246     264     267      18     249     246    -264     267       3
     249     246    -264     267      19     249     246     264     270       3
     246     264     270     273       2     243     240     246     249       3
     243     240     246     252       3     243     240     246     264       3
     240     246     252     255      10     240     246     252     258      10
     297     294     300     303       1     297     294    -300     303       2
     294     300     306     309       3     291    1299    1290    1293      24
     291    1299    1290    1296      24     288     282     276     294      10
     288     282     291    1299      24     285     282     276     294      10
     285     282     291    1299      24     279     276     282     285      10
     279     276     282     288      10     279     276     282     291      10
     279     276     294     297      18     279     276    -294     297       3
     279     276    -294     297      19     279     276     294     300       3
     276     294     300     303       2     273     270     276     279       3
     273     270     276     282       3     273     270     276     294       3
     270     276     282     285      10     270     276     282     288      10
     339     336     342     345       1     339     336    -342     345       2
     336     342     348     351       3     327     318     312     330      27
     327     318    -312     330      28     324     318     312     330      27
     324     318    -312     330      28     321     318     312     330      27
     321     318    -312     330      28     318     312     330     333      27
     318     312    -330     333      12     315     312     306     336      10
     315     312     318     321      10     315     312     318     324      10
     315     312     318     327      10     315     312     330     333      29
     309     306     312     315      10     309     306     312     318      10
     309     306     312     330      27     309     306    -312     330      28
     309     306     336     339      18     309     306    -336     339       3
     309     306    -336     339      19     309     306     336     342       3
     306     312     318     321      12     306     312     318     324      12
     306     312     318     327      12     306     312     330     333      27
     306     312    -330     333      12     306     336     342     345       2
     303     300     306     309       3     303     300     306     312       3
     303     300     306     336       3     300     306     312     315      10
     372     369     375     378       1     372     369    -375     378       2
     369     375     381     384       3     360     354     348     369      10
     360     354     363     366      29     357     354     348     369      10
     357     354     363     366      29     351     348     354     357      10
     351     348     354     360      10     351     348     354     363      27
     351     348    -354     363      28     351     348     369     372      18
     351     348    -369     372       3     351     348    -369     372      19
     351     348     369     375       3     348     354     363     366      27
     348     354    -363     366      12     348     369     375     378       2
     345     342     348     351       3     345     342     348     354       3
     345     342     348     369       3     342     348     354     357      10
     342     348     354     360      10     429     426     432     435       1
     429     426    -432     435       2     426     432     438     441       3
     411     405     414     417      11     411     405     414     420      11
     411     405     414     423      11     408     405     414     417      11
     408     405     414     420      11     408     405     414     423      11
     402     393     387     405      12     399     393     387     405      12
     396     393     387     405      12     393     387     405     408      12
     393     387     405     411      12     390     387     381     426      10
     390     387     393     396      11     390     387     393     399      11
     390     387     393     402      11     390     387     405     408      11
     390     387     405     411      11     390     387     405     414      12
     387     405     414     417      12     387     405     414     420      12
     387     405     414     423      12     384     381     387     390      10
     384     381     387     393      10     384     381     387     405      10
     384     381     426     429      18     384     381    -426     429       3
     384     381    -426     429      19     384     381     426     432       3
     381     387     393     396      12     381     387     393     399      12
     381     387     393     402      12     381     387     405     408      12
     381     387     405     411      12     381     426     432     435       2
     378     375     381     384       3     378     375     381     387       3
     378     375     381     426       3     375     381     387     390      10
     459     456     462     465       1     459     456    -462     465       2
     456     462     468     471       3     450     444     438     456      10
     447     444     438     456      10     441     438     444     447      10
     441     438     444     450      10     441     438     444     453      10
     441     438     456     459      18     441     438    -456     459       3
     441     438    -456     459      19     441     438     456     462       3
     438     456     462     465       2     435     432     438     441       3
     435     432     438     444       3     435     432     438     456       3
     432     438     444     447      10     432     438     444     450      10
     492     489     495     498       1     492     489    -495     498       2
     489     495     501     504       3     480     474     468     489      10
     480     474     483     486      29     477     474     468     489      10
     477     474     483     486      29     471     468     474     477      10
     471     468     474     480      10     471     468     474     483      27
     471     468    -474     483      28     471     468     489     492      18
     471     468    -489     492       3     471     468    -489     492      19
     471     468     489     495       3     468     474     483     486      27
     468     474    -483     486      12     468     489     495     498       2
     465     462     468     471       3     465     462     468     474       3
     465     462     468     489       3     462     468     474     477      10
     462     468     474     480      10     549     546     552     555       1
     549     546    -552     555       2     546     552     558     561       3
     531     522     516     534      12     528     522     516     534      12
     525     522     516     534      12     522     516     534     537      12
     522     516     534     540      12     522     516     534     543      12
     519     516     522     525      11     519     516     522     528      11
     519     516     522     531      11     519     516     534     537      11
     519     516     534     540      11     519     516     534     543      11
     513     507     501     546      10     513     507     516     519      11
     513     507     516     522      12     513     507     516     534      12
     510     507     501     546      10     510     507     516     519      11
     510     507     516     522      12     510     507     516     534      12
     507     516     522     525      12     507     516     522     528      12
     507     516     522     531      12     507     516     534     537      12
     507     516     534     540      12     507     516     534     543      12
     504     501     507     510      10     504     501     507     513      10
     504     501     507     516      10     504     501     546     549      18
     504     501    -546     549       3     504     501    -546     549      19
     504     501     546     552       3     501     507     516     519      12
     501     546     552     555       2     498     495     501     504       3
     498     495     501     507       3     498     495     501     546       3
     495     501     507     510      10     495     501     507     513      10
     612     609     615     618       1     612     609    -615     618       2
     609     615     621     624       3     600     597     603     606      30
     594     591     588     597      23     591     588     597     600      30
     588     597     603     606      30     585     582     588     591      30
     585     582     588     597      30     582     588     591     594      23
     582     588     597     600      30     579     576     573     603      30
     579     576     582     585      30     579     576     582     588      30
     576     573     603     606      30     573     576     582     585      30
     573     603     597     600      30     570     564     558     609      10
     570     564     573     576       3     570     564     573     603       3
     567     564     558     609      10     567     564     573     576       3
     567     564     573     603       3     564     573     576     579      30
     564     573     603     606      30     561     558     564     567      10
     561     558     564     570      10     561     558     564     573      10
     561     558     609     612      18     561     558    -609     612       3
     561     558    -609     612      19     561     558     609     615       3
     558     609     615     618       2     555     552     558     561       3
     555     552     558     564       3     555     552     558     609       3
     552     558     564     567      10     552     558     564     570      10
     663     660     666     669       1     663     660    -666     669       2
     660     666     672     675       3     648     645     651     654       1
     648     645    -651     654       2     648     645     651     657       1
     648     645    -651     657       2     642     636     645     648      18
     642     636    -645     648       3     642     636    -645     648      19
     642     636     645     651       3     639     636     645     648      18
     639     636    -645     648       3     639     636    -645     648      19
     639     636     645     651       3     636     645     651     654       2
     636     645     651     657       2     633     627     621     660      10
     633     627     636     639      11     633     627     636     642      11
     633     627     636     645      10     630     627     621     660      10
     630     627     636     639      11     630     627     636     642      11
     630     627     636     645      10     624     621     627     630      10
     624     621     627     633      10     624     621     627     636      10
     624     621     660     663      18     624     621    -660     663       3
     624     621    -660     663      19     624     621     660     666       3
     621     627     636     639      12     621     627     636     642      12
     621     660     666     669       2     618     615     621     624       3
     618     615     621     627       3     618     615     621     660       3
     615     621     627     630      10     615     621     627     633      10
     720     717     723     726       1     720     717    -723     726       2
     717     723     729     732       3     702     693     687     705      12
     699     693     687     705      12     696     693     687     705      12
     693     687     705     708      12     693     687     705     711      12
     693     687     705     714      12     690     687     693     696      11
     690     687     693     699      11     690     687     693     702      11
     690     687     705     708      11     690     687     705     711      11
     690     687     705     714      11     684     678     672     717      10
     684     678     687     690      11     684     678     687     693      12
     684     678     687     705      12     681     678     672     717      10
     681     678     687     690      11     681     678     687     693      12
     681     678     687     705      12     678     687     693     696      12
     678     687     693     699      12     678     687     693     702      12
     678     687     705     708      12     678     687     705     711      12
     678     687     705     714      12     675     672     678     681      10
     675     672     678     684      10     675     672     678     687      10
     675     672     717     720      18     675     672    -717     720       3
     675     672    -717     720      19     675     672     717     723       3
     672     678     687     690      12     672     717     723     726       2
     669     666     672     675       3     669     666     672     678       3
     669     666     672     717       3     666     672     678     681      10
     666     672     678     684      10     768     765     780     783       1
     768     765    -780     783       2     765     780     786     789       3
     759     753     756     774      23     759     753     756     777      23
     756     753     759     762      23     756     753     759     771      23
     750     744     753     756       3     750     744     753     759       3
     747     744     753     756       3     747     744     753     759       3
     744     753     756     774      23     744     753     756     777      23
     744     753     759     762      23     744     753     759     771      23
     741     735     729     765      10     741     735     744     747      11
     741     735     744     750      11     741     735     744     753      10
     738     735     729     765      10     738     735     744     747      11
     738     735     744     750      11     738     735     744     753      10
     732     729     735     738      10     732     729     735     741      10
     732     729     735     744      10     732     729     765     768      18
     732     729    -765     768       3     732     729    -765     768      19
     732     729     765     780       3     729     735     744     747      12
     729     735     744     750      12     729     765     780     783       2
     726     723     729     732       3     726     723     729     735       3
     726     723     729     765       3     723     729     735     738      10
     723     729     735     741      10     819     816     822     825       1
     819     816    -822     825       2     816     822     828     831       3
     804     801     807     810       1     804     801    -807     810       2
     804     801     807     813       1     804     801    -807     813       2
     798     792     786     816      10     798     792     801     804      18
     798     792    -801     804       3     798     792    -801     804      19
     798     792     801     807       3     795     792     786     816      10
     795     792     801     804      18     795     792    -801     804       3
     795     792    -801     804      19     795     792     801     807       3
     792     801     807     810       2     792     801     807     813       2
     789     786     792     795      10     789     786     792     798      10
     789     786     792     801      10     789     786     816     819      18
     789     786    -816     819       3     789     786    -816     819      19
     789     786     816     822       3     786     816     822     825       2
     783     780     786     789       3     783     780     786     792       3
     783     780     786     816       3     780     786     792     795      10
     780     786     792     798      10     882     879     885     888       1
     882     879    -885     888       2     879     885     891     894       3
     870     867     873     876      30     864     861     858     867      23
     861     858     867     870      30     858     867     873     876      30
     855     852     858     861      30     855     852     858     867      30
     852     858     861     864      23     852     858     867     870      30
     849     846     843     873      30     849     846     852     855      30
     849     846     852     858      30     846     843     873     876      30
     843     846     852     855      30     843     873     867     870      30
     840     834     828     879      10     840     834     843     846       3
     840     834     843     873       3     837     834     828     879      10
     837     834     843     846       3     837     834     843     873       3
     834     843     846     849      30     834     843     873     876      30
     831     828     834     837      10     831     828     834     840      10
     831     828     834     843      10     831     828     879     882      18
     831     828    -879     882       3     831     828    -879     882      19
     831     828     879     885       3     828     879     885     888       2
     825     822     828     831       3     825     822     828     834       3
     825     822     828     879       3     822     828     834     837      10
     822     828     834     840      10     912     909     915     918       1
     912     909    -915     918       2     909     915     921     924       3
     906    1854    1845    1848      24     906    1854    1845    1851      24
     903     897     891     909      10     903     897     906    1854      24
     900     897     891     909      10     900     897     906    1854      24
     894     891     897     900      10     894     891     897     903      10
     894     891     897     906      10     894     891     909     912      18
     894     891    -909     912       3     894     891    -909     912      19
     894     891     909     915       3     891     909     915     918       2
     888     885     891     894       3     888     885     891     897       3
     888     885     891     909       3     885     891     897     900      10
     885     891     897     903      10     939     936     942     945       1
     939     936    -942     945       2     939     936     942     948       1
     939     936    -942     948       2     933     927     921     951      10
     933     927     936     939      18     933     927    -936     939       3
     933     927    -936     939      19     933     927     936     942       3
     930     927     921     951      10     930     927     936     939      18
     930     927    -936     939       3     930     927    -936     939      19
     930     927     936     942       3     927     936     942     945       2
     927     936     942     948       2     924     921     927     930      10
     924     921     927     933      10     924     921     927     936      10
     924     921     951     954       3     924     921     951     957       3
     918     915     921     924       3     918     915     921     927       3
     918     915     921     951       3     915     921     927     930      10
     915     921     927     933      10    1023    1020    1026    1029       1
    1023    1020   -1026    1029       2    1020    1026    1032    1035       3
    1011    1008    1014    1017      30    1005    1002    1008    1011      30
    1005    1002    1008    1014      30    1002    1008    1014    1017      30
     999     996    1002    1005      30     999     996    1002    1008      30
     996    1002    1008    1011      30     993     990     987    1014      30
     993     990     996     999      30     993     990     996    1002      30
     990     987    1014    1017      30     990     996    1002    1005      30
     987     990     996     999      30     987    1014    1008    1011      30
     984     978     972    1020      10     984     978     987     990       3
     984     978     987    1014       3     981     978     972    1020      10
     981     978     987     990       3     981     978     987    1014       3
     978     987     990     993      30     978     987    1014    1017      30
     975     972     978     981      10     975     972     978     984      10
     975     972     978     987      10     975     972    1020    1023       3
     975     972    1020    1026       3     972    1020    1026    1029       2
     969     960     972     975      10     969     960     972     978      10
     969     960     972    1020      10     966     960     972     975      10
     966     960     972     978      10     966     960     972    1020      10
     963     960     972     975      10     963     960     972     978      10
     963     960     972    1020      10     960     972     978     981      10
     960     972     978     984      10    1071    1068    1074    1077       1
    1071    1068   -1074    1077       2    1068    1074    1080    1083       3
    1053    1044    1038    1056      12    1050    1044    1038    1056      12
    1047    1044    1038    1056      12    1044    1038    1056    1059      12
    1044    1038    1056    1062      12    1044    1038    1056    1065      12
    1041    1038    1032    1068      10    1041    1038    1044    1047      11
    1041    1038    1044    1050      11    1041    1038    1044    1053      11
    1041    1038    1056    1059      11    1041    1038    1056    1062      11
    1041    1038    1056    1065      11    1035    1032    1038    1041      10
    1035    1032    1038    1044      10    1035    1032    1038    1056      10
    1035    1032    1068    1071      18    1035    1032   -1068    1071       3
    1035    1032   -1068    1071      19    1035    1032    1068    1074       3
    1032    1038    1044    1047      12    1032    1038    1044    1050      12
    1032    1038    1044    1053      12    1032    1038    1056    1059      12
    1032    1038    1056    1062      12    1032    1038    1056    1065      12
    1032    1068    1074    1077       2    1029    1026    1032    1035       3
    1029    1026    1032    1038       3    1029    1026    1032    1068       3
    1026    1032    1038    1041      10    1113    1110    1116    1119       1
    1113    1110   -1116    1119       2    1110    1116    1122    1125       3
    1098    1095    1101    1104       1    1098    1095   -1101    1104       2
    1098    1095    1101    1107       1    1098    1095   -1101    1107       2
    1092    1086    1080    1110      10    1092    1086    1095    1098      18
    1092    1086   -1095    1098       3    1092    1086   -1095    1098      19
    1092    1086    1095    1101       3    1089    1086    1080    1110      10
    1089    1086    1095    1098      18    1089    1086   -1095    1098       3
    1089    1086   -1095    1098      19    1089    1086    1095    1101       3
    1086    1095    1101    1104       2    1086    1095    1101    1107       2
    1083    1080    1086    1089      10    1083    1080    1086    1092      10
    1083    1080    1086    1095      10    1083    1080    1110    1113      18
    1083    1080   -1110    1113       3    1083    1080   -1110    1113      19
    1083    1080    1110    1116       3    1080    1110    1116    1119       2
    1077    1074    1080    1083       3    1077    1074    1080    1086       3
    1077    1074    1080    1110       3    1074    1080    1086    1089      10
    1074    1080    1086    1092      10    1164    1161    1167    1170       1
    1164    1161   -1167    1170       2    1161    1167    1173    1176       3
    1149    1146    1152    1155       1    1149    1146   -1152    1155       2
    1149    1146    1152    1158       1    1149    1146   -1152    1158       2
    1143    1137    1146    1149      18    1143    1137   -1146    1149       3
    1143    1137   -1146    1149      19    1143    1137    1146    1152       3
    1140    1137    1146    1149      18    1140    1137   -1146    1149       3
    1140    1137   -1146    1149      19    1140    1137    1146    1152       3
    1137    1146    1152    1155       2    1137    1146    1152    1158       2
    1134    1128    1122    1161      10    1134    1128    1137    1140      11
    1134    1128    1137    1143      11    1134    1128    1137    1146      10
    1131    1128    1122    1161      10    1131    1128    1137    1140      11
    1131    1128    1137    1143      11    1131    1128    1137    1146      10
    1125    1122    1128    1131      10    1125    1122    1128    1134      10
    1125    1122    1128    1137      10    1125    1122    1161    1164      18
    1125    1122   -1161    1164       3    1125    1122   -1161    1164      19
    1125    1122    1161    1167       3    1122    1128    1137    1140      12
    1122    1128    1137    1143      12    1122    1161    1167    1170       2
    1119    1116    1122    1125       3    1119    1116    1122    1128       3
    1119    1116    1122    1161       3    1116    1122    1128    1131      10
    1116    1122    1128    1134      10    1218    1215    1221    1224       1
    1218    1215   -1221    1224       2    1215    1221    1227    1230       3
    1206    1203    1209    1212      31    1200    1197    1203    1206      32
    1200    1197    1203    1209      32    1197    1203    1209    1212      31
    1194    1191    1188    1209      33    1194    1191    1197    1200      32
    1194    1191    1197    1203      32    1191    1188    1209    1212      34
    1191    1197    1203    1206      32    1188    1191    1197    1200      32
    1188    1209    1203    1206      31    1185    1179    1173    1215      10
    1185    1179    1188    1191       3    1185    1179    1188    1209       3
    1182    1179    1173    1215      10    1182    1179    1188    1191       3
    1182    1179    1188    1209       3    1179    1188    1191    1194      33
    1179    1188    1209    1212      34    1176    1173    1179    1182      10
    1176    1173    1179    1185      10    1176    1173    1179    1188      10
    1176    1173    1215    1218      18    1176    1173   -1215    1218       3
    1176    1173   -1215    1218      19    1176    1173    1215    1221       3
    1173    1215    1221    1224       2    1170    1167    1173    1176       3
    1170    1167    1173    1179       3    1170    1167    1173    1215       3
    1167    1173    1179    1182      10    1167    1173    1179    1185      10
    1275    1272    1278    1281       1    1275    1272   -1278    1281       2
    1272    1278    1284    1287       3    1257    1248    1242    1260      12
    1254    1248    1242    1260      12    1251    1248    1242    1260      12
    1248    1242    1260    1263      12    1248    1242    1260    1266      12
    1248    1242    1260    1269      12    1245    1242    1248    1251      11
    1245    1242    1248    1254      11    1245    1242    1248    1257      11
    1245    1242    1260    1263      11    1245    1242    1260    1266      11
    1245    1242    1260    1269      11    1239    1233    1227    1272      10
    1239    1233    1242    1245      11    1239    1233    1242    1248      12
    1239    1233    1242    1260      12    1236    1233    1227    1272      10
    1236    1233    1242    1245      11    1236    1233    1242    1248      12
    1236    1233    1242    1260      12    1233    1242    1248    1251      12
    1233    1242    1248    1254      12    1233    1242    1248    1257      12
    1233    1242    1260    1263      12    1233    1242    1260    1266      12
    1233    1242    1260    1269      12    1230    1227    1233    1236      10
    1230    1227    1233    1239      10    1230    1227    1233    1242      10
    1230    1227    1272    1275      18    1230    1227   -1272    1275       3
    1230    1227   -1272    1275      19    1230    1227    1272    1278       3
    1227    1233    1242    1245      12    1227    1272    1278    1281       2
    1224    1221    1227    1230       3    1224    1221    1227    1233       3
    1224    1221    1227    1272       3    1221    1227    1233    1236      10
    1221    1227    1233    1239      10    1305    1302    1308    1311       1
    1305    1302   -1308    1311       2    1302    1308    1314    1317       3
    1302    1308    1314    1320       3    1296    1290    1284    1302      10
    1293    1290    1284    1302      10    1287    1284    1290    1293      10
    1287    1284    1290    1296      10    1287    1284    1290    1299      10
    1287    1284    1302    1305      18    1287    1284   -1302    1305       3
    1287    1284   -1302    1305      19    1287    1284    1302    1308       3
    1284    1302    1308    1311       2    1281    1278    1284    1287       3
    1281    1278    1284    1290       3    1281    1278    1284    1302       3
    1278    1284    1290    1293      10    1278    1284    1290    1296      10
    1326    1323    1329    1332       1    1326    1323   -1329    1332       2
    1323    1329    1335    1338       3    1320    1314    1323    1326      18
    1320    1314   -1323    1326       3    1320    1314   -1323    1326      19
    1320    1314    1323    1329       3    1317    1314    1323    1326      18
    1317    1314   -1323    1326       3    1317    1314   -1323    1326      19
    1317    1314    1323    1329       3    1314    1323    1329    1332       2
    1311    1308    1314    1317       3    1311    1308    1314    1320       3
    1311    1308    1314    1323       3    1359    1356    1362    1365       1
    1359    1356   -1362    1365       2    1356    1362    1368    1371       3
    1347    1341    1335    1356      10    1347    1341    1350    1353      29
    1344    1341    1335    1356      10    1344    1341    1350    1353      29
    1338    1335    1341    1344      10    1338    1335    1341    1347      10
    1338    1335    1341    1350      27    1338    1335   -1341    1350      28
    1338    1335    1356    1359      18    1338    1335   -1356    1359       3
    1338    1335   -1356    1359      19    1338    1335    1356    1362       3
    1335    1341    1350    1353      27    1335    1341   -1350    1353      12
    1335    1356    1362    1365       2    1332    1329    1335    1338       3
    1332    1329    1335    1341       3    1332    1329    1335    1356       3
    1329    1335    1341    1344      10    1329    1335    1341    1347      10
    1413    1410    1416    1419       1    1413    1410   -1416    1419       2
    1410    1416    1422    1425       3    1401    1398    1404    1407      31
    1395    1392    1398    1401      32    1395    1392    1398    1404      32
    1392    1398    1404    1407      31    1389    1386    1383    1404      33
    1389    1386    1392    1395      32    1389    1386    1392    1398      32
    1386    1383    1404    1407      34    1386    1392    1398    1401      32
    1383    1386    1392    1395      32    1383    1404    1398    1401      31
    1380    1374    1368    1410      10    1380    1374    1383    1386       3
    1380    1374    1383    1404       3    1377    1374    1368    1410      10
    1377    1374    1383    1386       3    1377    1374    1383    1404       3
    1374    1383    1386    1389      33    1374    1383    1404    1407      34
    1371    1368    1374    1377      10    1371    1368    1374    1380      10
    1371    1368    1374    1383      10    1371    1368    1410    1413      18
    1371    1368   -1410    1413       3    1371    1368   -1410    1413      19
    1371    1368    1410    1416       3    1368    1410    1416    1419       2
    1365    1362    1368    1371       3    1365    1362    1368    1374       3
    1365    1362    1368    1410       3    1362    1368    1374    1377      10
    1362    1368    1374    1380      10    1470    1467    1473    1476       1
    1470    1467   -1473    1476       2    1467    1473    1479    1482       3
    1452    1443    1437    1455      12    1449    1443    1437    1455      12
    1446    1443    1437    1455      12    1443    1437    1455    1458      12
    1443    1437    1455    1461      12    1443    1437    1455    1464      12
    1440    1437    1443    1446      11    1440    1437    1443    1449      11
    1440    1437    1443    1452      11    1440    1437    1455    1458      11
    1440    1437    1455    1461      11    1440    1437    1455    1464      11
    1434    1428    1422    1467      10    1434    1428    1437    1440      11
    1434    1428    1437    1443      12    1434    1428    1437    1455      12
    1431    1428    1422    1467      10    1431    1428    1437    1440      11
    1431    1428    1437    1443      12    1431    1428    1437    1455      12
    1428    1437    1443    1446      12    1428    1437    1443    1449      12
    1428    1437    1443    1452      12    1428    1437    1455    1458      12
    1428    1437    1455    1461      12    1428    1437    1455    1464      12
    1425    1422    1428    1431      10    1425    1422    1428    1434      10
    1425    1422    1428    1437      10    1425    1422    1467    1470      18
    1425    1422   -1467    1470       3    1425    1422   -1467    1470      19
    1425    1422    1467    1473       3    1422    1428    1437    1440      12
    1422    1467    1473    1476       2    1419    1416    1422    1425       3
    1419    1416    1422    1428       3    1419    1416    1422    1467       3
    1416    1422    1428    1431      10    1416    1422    1428    1434      10
    1518    1515    1521    1524       1    1518    1515   -1521    1524       2
    1515    1521    1527    1530       3    1500    1491    1485    1503      12
    1497    1491    1485    1503      12    1494    1491    1485    1503      12
    1491    1485    1503    1506      12    1491    1485    1503    1509      12
    1491    1485    1503    1512      12    1488    1485    1479    1515      10
    1488    1485    1491    1494      11    1488    1485    1491    1497      11
    1488    1485    1491    1500      11    1488    1485    1503    1506      11
    1488    1485    1503    1509      11    1488    1485    1503    1512      11
    1482    1479    1485    1488      10    1482    1479    1485    1491      10
    1482    1479    1485    1503      10    1482    1479    1515    1518      18
    1482    1479   -1515    1518       3    1482    1479   -1515    1518      19
    1482    1479    1515    1521       3    1479    1485    1491    1494      12
    1479    1485    1491    1497      12    1479    1485    1491    1500      12
    1479    1485    1503    1506      12    1479    1485    1503    1509      12
    1479    1485    1503    1512      12    1479    1515    1521    1524       2
    1476    1473    1479    1482       3    1476    1473    1479    1485       3
    1476    1473    1479    1515       3    1473    1479    1485    1488      10
    1566    1563    1578    1581       1    1566    1563   -1578    1581       2
    1563    1578    1584    1587       3    1557    1551    1554    1572      23
    1557    1551    1554    1575      23    1554    1551    1557    1560      23
    1554    1551    1557    1569      23    1548    1542    1551    1554       3
    1548    1542    1551    1557       3    1545    1542    1551    1554       3
    1545    1542    1551    1557       3    1542    1551    1554    1572      23
    1542    1551    1554    1575      23    1542    1551    1557    1560      23
    1542    1551    1557    1569      23    1539    1533    1527    1563      10
    1539    1533    1542    1545      11    1539    1533    1542    1548      11
    1539    1533    1542    1551      10    1536    1533    1527    1563      10
    1536    1533    1542    1545      11    1536    1533    1542    1548      11
    1536    1533    1542    1551      10    1530    1527    1533    1536      10
    1530    1527    1533    1539      10    1530    1527    1533    1542      10
    1530    1527    1563    1566      18    1530    1527   -1563    1566       3
    1530    1527   -1563    1566      19    1530    1527    1563    1578       3
    1527    1533    1542    1545      12    1527    1533    1542    1548      12
    1527    1563    1578    1581       2    1524    1521    1527    1530       3
    1524    1521    1527    1533       3    1524    1521    1527    1563       3
    1521    1527    1533    1536      10    1521    1527    1533    1539      10
    1605    1602    1608    1611       1    1605    1602   -1608    1611       2
    1602    1608    1614    1617       3    1599    1590    1584    1602      10
    1596    1590    1584    1602      10    1593    1590    1584    1602      10
    1587    1584    1590    1593      10    1587    1584    1590    1596      10
    1587    1584    1590    1599      10    1587    1584    1602    1605      18
    1587    1584   -1602    1605       3    1587    1584   -1602    1605      19
    1587    1584    1602    1608       3    1584    1602    1608    1611       2
    1581    1578    1584    1587       3    1581    1578    1584    1590       3
    1581    1578    1584    1602       3    1578    1584    1590    1593      10
    1578    1584    1590    1596      10    1578    1584    1590    1599      10
    1662    1659    1665    1668       1    1662    1659   -1665    1668       2
    1659    1665    1671    1674       3    1644    1635    1629    1647      12
    1641    1635    1629    1647      12    1638    1635    1629    1647      12
    1635    1629    1647    1650      12    1635    1629    1647    1653      12
    1635    1629    1647    1656      12    1632    1629    1635    1638      11
    1632    1629    1635    1641      11    1632    1629    1635    1644      11
    1632    1629    1647    1650      11    1632    1629    1647    1653      11
    1632    1629    1647    1656      11    1626    1620    1614    1659      10
    1626    1620    1629    1632      11    1626    1620    1629    1635      12
    1626    1620    1629    1647      12    1623    1620    1614    1659      10
    1623    1620    1629    1632      11    1623    1620    1629    1635      12
    1623    1620    1629    1647      12    1620    1629    1635    1638      12
    1620    1629    1635    1641      12    1620    1629    1635    1644      12
    1620    1629    1647    1650      12    1620    1629    1647    1653      12
    1620    1629    1647    1656      12    1617    1614    1620    1623      10
    1617    1614    1620    1626      10    1617    1614    1620    1629      10
    1617    1614    1659    1662      18    1617    1614   -1659    1662       3
    1617    1614   -1659    1662      19    1617    1614    1659    1665       3
    1614    1620    1629    1632      12    1614    1659    1665    1668       2
    1611    1608    1614    1617       3    1611    1608    1614    1620       3
    1611    1608    1614    1659       3    1608    1614    1620    1623      10
    1608    1614    1620    1626      10    1725    1722    1728    1731       1
    1725    1722   -1728    1731       2    1722    1728    1734    1737       3
    1713    1710    1716    1719      30    1707    1704    1701    1710      23
    1704    1701    1710    1713      30    1701    1710    1716    1719      30
    1698    1695    1701    1704      30    1698    1695    1701    1710      30
    1695    1701    1704    1707      23    1695    1701    1710    1713      30
    1692    1689    1686    1716      30    1692    1689    1695    1698      30
    1692    1689    1695    1701      30    1689    1686    1716    1719      30
    1686    1689    1695    1698      30    1686    1716    1710    1713      30
    1683    1677    1671    1722      10    1683    1677    1686    1689       3
    1683    1677    1686    1716       3    1680    1677    1671    1722      10
    1680    1677    1686    1689       3    1680    1677    1686    1716       3
    1677    1686    1689    1692      30    1677    1686    1716    1719      30
    1674    1671    1677    1680      10    1674    1671    1677    1683      10
    1674    1671    1677    1686      10    1674    1671    1722    1725      18
    1674    1671   -1722    1725       3    1674    1671   -1722    1725      19
    1674    1671    1722    1728       3    1671    1722    1728    1731       2
    1668    1665    1671    1674       3    1668    1665    1671    1677       3
    1668    1665    1671    1722       3    1665    1671    1677    1680      10
    1665    1671    1677    1683      10    1782    1779    1785    1788       1
    1782    1779   -1785    1788       2    1779    1785    1791    1794       3
    1764    1755    1749    1767      12    1761    1755    1749    1767      12
    1758    1755    1749    1767      12    1755    1749    1767    1770      12
    1755    1749    1767    1773      12    1755    1749    1767    1776      12
    1752    1749    1755    1758      11    1752    1749    1755    1761      11
    1752    1749    1755    1764      11    1752    1749    1767    1770      11
    1752    1749    1767    1773      11    1752    1749    1767    1776      11
    1746    1740    1734    1779      10    1746    1740    1749    1752      11
    1746    1740    1749    1755      12    1746    1740    1749    1767      12
    1743    1740    1734    1779      10    1743    1740    1749    1752      11
    1743    1740    1749    1755      12    1743    1740    1749    1767      12
    1740    1749    1755    1758      12    1740    1749    1755    1761      12
    1740    1749    1755    1764      12    1740    1749    1767    1770      12
    1740    1749    1767    1773      12    1740    1749    1767    1776      12
    1737    1734    1740    1743      10    1737    1734    1740    1746      10
    1737    1734    1740    1749      10    1737    1734    1779    1782      18
    1737    1734   -1779    1782       3    1737    1734   -1779    1782      19
    1737    1734    1779    1785       3    1734    1740    1749    1752      12
    1734    1779    1785    1788       2    1731    1728    1734    1737       3
    1731    1728    1734    1740       3    1731    1728    1734    1779       3
    1728    1734    1740    1743      10    1728    1734    1740    1746      10
    1830    1827    1833    1836       1    1830    1827   -1833    1836       2
    1827    1833    1839    1842       3    1812    1803    1797    1815      12
    1809    1803    1797    1815      12    1806    1803    1797    1815      12
    1803    1797    1815    1818      12    1803    1797    1815    1821      12
    1803    1797    1815    1824      12    1800    1797    1791    1827      10
    1800    1797    1803    1806      11    1800    1797    1803    1809      11
    1800    1797    1803    1812      11    1800    1797    1815    1818      11
    1800    1797    1815    1821      11    1800    1797    1815    1824      11
    1794    1791    1797    1800      10    1794    1791    1797    1803      10
    1794    1791    1797    1815      10    1794    1791    1827    1830      18
    1794    1791   -1827    1830       3    1794    1791   -1827    1830      19
    1794    1791    1827    1833       3    1791    1797    1803    1806      12
    1791    1797    1803    1809      12    1791    1797    1803    1812      12
    1791    1797    1815    1818      12    1791    1797    1815    1821      12
    1791    1797    1815    1824      12    1791    1827    1833    1836       2
    1788    1785    1791    1794       3    1788    1785    1791    1797       3
    1788    1785    1791    1827       3    1785    1791    1797    1800      10
    1860    1857    1863    1866       1    1860    1857   -1863    1866       2
    1857    1863    1869    1872       3    1857    1863    1869    1875       3
    1851    1845    1839    1857      10    1848    1845    1839    1857      10
    1842    1839    1845    1848      10    1842    1839    1845    1851      10
    1842    1839    1845    1854      10    1842    1839    1857    1860      18
    1842    1839   -1857    1860       3    1842    1839   -1857    1860      19
    1842    1839    1857    1863       3    1839    1857    1863    1866       2
    1836    1833    1839    1842       3    1836    1833    1839    1845       3
    1836    1833    1839    1857       3    1833    1839    1845    1848      10
    1833    1839    1845    1851      10    1881    1878    1884    1887       1
    1881    1878   -1884    1887       2    1878    1884    1890    1893       3
    1875    1869    1878    1881      18    1875    1869   -1878    1881       3
    1875    1869   -1878    1881      19    1875    1869    1878    1884       3
    1872    1869    1878    1881      18    1872    1869   -1878    1881       3
    1872    1869   -1878    1881      19    1872    1869    1878    1884       3
    1869    1878    1884    1887       2    1866    1863    1869    1872       3
    1866    1863    1869    1875       3    1866    1863    1869    1878       3
    1929    1926    1941    1944       1    1929    1926   -1941    1944       2
    1926    1941    1947    1950       3    1920    1914    1917    1935      23
    1920    1914    1917    1938      23    1917    1914    1920    1923      23
    1917    1914    1920    1932      23    1911    1905    1914    1917       3
    1911    1905    1914    1920       3    1908    1905    1914    1917       3
    1908    1905    1914    1920       3    1905    1914    1917    1935      23
    1905    1914    1917    1938      23    1905    1914    1920    1923      23
    1905    1914    1920    1932      23    1902    1896    1890    1926      10
    1902    1896    1905    1908      11    1902    1896    1905    1911      11
    1902    1896    1905    1914      10    1899    1896    1890    1926      10
    1899    1896    1905    1908      11    1899    1896    1905    1911      11
    1899    1896    1905    1914      10    1893    1890    1896    1899      10
    1893    1890    1896    1902      10    1893    1890    1896    1905      10
    1893    1890    1926    1929      18    1893    1890   -1926    1929       3
    1893    1890   -1926    1929      19    1893    1890    1926    1941       3
    1890    1896    1905    1908      12    1890    1896    1905    1911      12
    1890    1926    1941    1944       2    1887    1884    1890    1893       3
    1887    1884    1890    1896       3    1887    1884    1890    1926       3
    1884    1890    1896    1899      10    1884    1890    1896    1902      10
    2010    2007    2013    2016       1    2010    2007   -2013    2016       2
    2007    2013    2019    2022       3    2007    2013    2019    2025       3
    1995    1989    1986    1998      35    1992    1989    1986    1998      35
    1989    1986    1998    2001      35    1989    1986    1998    2004      35
    1983    1980    1986    1989      35    1983    1980    1986    1998      35
    1980    1986    1989    1992      35    1980    1986    1989    1995      35
    1980    1986    1998    2001      35    1980    1986    1998    2004      35
    1977    1971    1980    1983      28    1977    1971    1980    1986      28
    1974    1971    1980    1983      28    1974    1971    1980    1986      28
    1968    1962    1971    1974      10    1968    1962    1971    1977      10
    1968    1962    1971    1980      10    1965    1962    1971    1974      10
    1965    1962    1971    1977      10    1965    1962    1971    1980      10
    1962    1971    1980    1983      28    1959    1953    1947    2007      10
    1959    1953    1962    1965      11    1959    1953    1962    1968      11
    1959    1953    1962    1971      12    1956    1953    1947    2007      10
    1956    1953    1962    1965      11    1956    1953    1962    1968      11
    1956    1953    1962    1971      12    1953    1962    1971    1974      10
    1953    1962    1971    1977      10    1950    1947    1953    1956      10
    1950    1947    1953    1959      10    1950    1947    1953    1962      10
    1950    1947    2007    2010      18    1950    1947   -2007    2010       3
    1950    1947   -2007    2010      19    1950    1947    2007    2013       3
    1947    1953    1962    1965      12    1947    1953    1962    1968      12
    1947    2007    2013    2016       2    1944    1941    1947    1950       3
    1944    1941    1947    1953       3    1944    1941    1947    2007       3
    1941    1947    1953    1956      10    1941    1947    1953    1959      10
    2031    2028    2034    2037       1    2031    2028   -2034    2037       2
    2028    2034    2040    2043       3    2025    2019    2028    2031      18
    2025    2019   -2028    2031       3    2025    2019   -2028    2031      19
    2025    2019    2028    2034       3    2022    2019    2028    2031      18
    2022    2019   -2028    2031       3    2022    2019   -2028    2031      19
    2022    2019    2028    2034       3    2019    2028    2034    2037       2
    2016    2013    2019    2022       3    2016    2013    2019    2025       3
    2016    2013    2019    2028       3    2091    2088    2094    2097       1
    2091    2088   -2094    2097       2    2088    2094    2100    2103       3
    2079    2076    2082    2085      30    2073    2070    2076    2079      30
    2073    2070    2076    2082      30    2070    2076    2082    2085      30
    2067    2064    2070    2073      30    2067    2064    2070    2076      30
    2064    2070    2076    2079      30    2061    2058    2055    2082      30
    2061    2058    2064    2067      30    2061    2058    2064    2070      30
    2058    2055    2082    2085      30    2058    2064    2070    2073      30
    2055    2058    2064    2067      30    2055    2082    2076    2079      30
    2052    2046    2040    2088      10    2052    2046    2055    2058       3
    2052    2046    2055    2082       3    2049    2046    2040    2088      10
    2049    2046    2055    2058       3    2049    2046    2055    2082       3
    2046    2055    2058    2061      30    2046    2055    2082    2085      30
    2043    2040    2046    2049      10    2043    2040    2046    2052      10
    2043    2040    2046    2055      10    2043    2040    2088    2091      18
    2043    2040   -2088    2091       3    2043    2040   -2088    2091      19
    2043    2040    2088    2094       3    2040    2088    2094    2097       2
    2037    2034    2040    2043       3    2037    2034    2040    2046       3
    2037    2034    2040    2088       3    2034    2040    2046    2049      10
    2034    2040    2046    2052      10    2151    2148    2154    2157       1
    2151    2148   -2154    2157       2    2148    2154    2160    2163       3
    2139    2136    2142    2145      30    2133    2130    2136    2139      30
    2133    2130    2136    2142      30    2130    2136    2142    2145      30
    2127    2124    2130    2133      30    2127    2124    2130    2136      30
    2124    2130    2136    2139      30    2121    2118    2115    2142      30
    2121    2118    2124    2127      30    2121    2118    2124    2130      30
    2118    2115    2142    2145      30    2118    2124    2130    2133      30
    2115    2118    2124    2127      30    2115    2142    2136    2139      30
    2112    2106    2100    2148      10    2112    2106    2115    2118       3
    2112    2106    2115    2142       3    2109    2106    2100    2148      10
    2109    2106    2115    2118       3    2109    2106    2115    2142       3
    2106    2115    2118    2121      30    2106    2115    2142    2145      30
    2103    2100    2106    2109      10    2103    2100    2106    2112      10
    2103    2100    2106    2115      10    2103    2100    2148    2151      18
    2103    2100   -2148    2151       3    2103    2100   -2148    2151      19
    2103    2100    2148    2154       3    2100    2148    2154    2157       2
    2097    2094    2100    2103       3    2097    2094    2100    2106       3
    2097    2094    2100    2148       3    2094    2100    2106    2109      10
    2094    2100    2106    2112      10    2214    2211    2217    2220       1
    2214    2211   -2217    2220       2    2211    2217    2223    2226       3
    2202    2199    2205    2208      30    2196    2193    2190    2199      23
    2193    2190    2199    2202      30    2190    2199    2205    2208      30
    2187    2184    2190    2193      30    2187    2184    2190    2199      30
    2184    2190    2193    2196      23    2184    2190    2199    2202      30
    2181    2178    2175    2205      30    2181    2178    2184    2187      30
    2181    2178    2184    2190      30    2178    2175    2205    2208      30
    2175    2178    2184    2187      30    2175    2205    2199    2202      30
    2172    2166    2160    2211      10    2172    2166    2175    2178       3
    2172    2166    2175    2205       3    2169    2166    2160    2211      10
    2169    2166    2175    2178       3    2169    2166    2175    2205       3
    2166    2175    2178    2181      30    2166    2175    2205    2208      30
    2163    2160    2166    2169      10    2163    2160    2166    2172      10
    2163    2160    2166    2175      10    2163    2160    2211    2214      18
    2163    2160   -2211    2214       3    2163    2160   -2211    2214      19
    2163    2160    2211    2217       3    2160    2211    2217    2220       2
    2157    2154    2160    2163       3    2157    2154    2160    2166       3
    2157    2154    2160    2211       3    2154    2160    2166    2169      10
    2154    2160    2166    2172      10    2253    2259    2262    2265       3
    2253    2259    2262    2268       3    2253    2259    2289    2292       3
    2244    2235    2229    2247      27    2244    2235   -2229    2247      28
    2241    2235    2229    2247      27    2241    2235   -2229    2247      28
    2238    2235    2229    2247      27    2238    2235   -2229    2247      28
    2235    2229    2247    2250      27    2235    2229   -2247    2250      12
    2232    2229    2223    2253      10    2232    2229    2235    2238      10
    2232    2229    2235    2241      10    2232    2229    2235    2244      10
    2232    2229    2247    2250      29    2226    2223    2229    2232      10
    2226    2223    2229    2235      10    2226    2223    2229    2247      27
    2226    2223   -2229    2247      28    2226    2223    2253    2256      18
    2226    2223   -2253    2256       3    2226    2223   -2253    2256      19
    2226    2223    2253    2259       3    2223    2229    2235    2238      12
    2223    2229    2235    2241      12    2223    2229    2235    2244      12
    2223    2229    2247    2250      27    2223    2229   -2247    2250      12
    2220    2217    2223    2226       3    2220    2217    2223    2229       3
    2220    2217    2223    2253       3    2217    2223    2229    2232      10
    2298    2295    2301    2304       1    2298    2295   -2301    2304       2
    2295    2301    2307    2310       3    2292    2289    2295    2298      18
    2292    2289   -2295    2298       3    2292    2289   -2295    2298      19
    2292    2289    2295    2301       3    2289    2295    2301    2304       2
    2286    2280    2289    2292      10    2286    2280    2289    2295      10
    2283    2280    2289    2292      10    2283    2280    2289    2295      10
    2277    2271    2280    2283      11    2277    2271    2280    2286      11
    2277    2271    2280    2289      12    2274    2271    2280    2283      11
    2274    2271    2280    2286      11    2274    2271    2280    2289      12
    2271    2280    2289    2292      10    2268    2262    2259    2289       3
    2268    2262    2271    2274      10    2268    2262    2271    2277      10
    2268    2262    2271    2280      10    2265    2262    2259    2289       3
    2265    2262    2271    2274      10    2265    2262    2271    2277      10
    2265    2262    2271    2280      10    2262    2259    2289    2292       3
    2262    2271    2280    2283      12    2262    2271    2280    2286      12
    2259    2262    2271    2274      10    2259    2262    2271    2277      10
    2259    2289    2280    2283      10    2259    2289    2280    2286      10
    2364    2361    2367    2370       1    2364    2361   -2367    2370       2
    2361    2367    2373    2376       3    2346    2340    2349    2352      10
    2346    2340    2349    2355      10    2346    2340    2349    2358      10
    2343    2340    2349    2352      10    2343    2340    2349    2355      10
    2343    2340    2349    2358      10    2337    2331    2340    2343      10
    2337    2331    2340    2346      10    2337    2331    2340    2349      10
    2334    2331    2340    2343      10    2334    2331    2340    2346      10
    2334    2331    2340    2349      10    2331    2340    2349    2352      10
    2331    2340    2349    2355      10    2331    2340    2349    2358      10
    2328    2322    2331    2334      11    2328    2322    2331    2337      11
    2328    2322    2331    2340      12    2325    2322    2331    2334      11
    2325    2322    2331    2337      11    2325    2322    2331    2340      12
    2322    2331    2340    2343      10    2322    2331    2340    2346      10
    2319    2313    2307    2361      10    2319    2313    2322    2325      11
    2319    2313    2322    2328      11    2319    2313    2322    2331      12
    2316    2313    2307    2361      10    2316    2313    2322    2325      11
    2316    2313    2322    2328      11    2316    2313    2322    2331      12
    2313    2322    2331    2334      12    2313    2322    2331    2337      12
    2310    2307    2313    2316      10    2310    2307    2313    2319      10
    2310    2307    2313    2322      10    2310    2307    2361    2364      18
    2310    2307   -2361    2364       3    2310    2307   -2361    2364      19
    2310    2307    2361    2367       3    2307    2313    2322    2325      12
    2307    2313    2322    2328      12    2307    2361    2367    2370       2
    2304    2301    2307    2310       3    2304    2301    2307    2313       3
    2304    2301    2307    2361       3    2301    2307    2313    2316      10
    2301    2307    2313    2319      10    2388    2379    2373    2391      10
    2385    2379    2373    2391      10    2382    2379    2373    2391      10
    2376    2373    2379    2382      10    2376    2373    2379    2385      10
    2376    2373    2379    2388      10    2376    2373    2391    2394       3
    2376    2373    2391    2397       3    2370    2367    2373    2376       3
    2370    2367    2373    2379       3    2370    2367    2373    2391       3
    2367    2373    2379    2382      10    2367    2373    2379    2385      10
    2367    2373    2379    2388      10      21      33     -27     -30      37
      78      90     -84     -87      37     162     171    -168    -180      38
     162     183    -165    -186      38     126     138    -132    -135      37
     219     228    -225    -231      38     174     195    -189    -192      37
     234     246    -240    -243      37     264     276    -270    -273      37
     294     306    -300    -303      37     336     348    -342    -345      37
     369     381    -375    -378      37     426     438    -432    -435      37
     456     468    -462    -465      37     489     501    -495    -498      37
     573     597    -603    -606      37     588     603    -597    -600      37
     576     588    -582    -585      37     573     582    -576    -579      37
     546     558    -552    -555      37     645     654    -651    -657      38
     609     621    -615    -618      37     660     672    -666    -669      37
     753     762    -759    -771      38     753     774    -756    -777      38
     717     729    -723    -726      37     801     810    -807    -813      38
     765     786    -780    -783      37     843     867    -873    -876      37
     858     873    -867    -870      37     846     858    -852    -855      37
     843     852    -846    -849      37     816     828    -822    -825      37
     879     891    -885    -888      37     936     945    -942    -948      38
     909     921    -915    -918      37     987    1008   -1014   -1017      37
    1002    1014   -1008   -1011      37     996    1008   -1002   -1005      37
     990    1002    -996    -999      37     987     996    -990    -993      37
    1020    1032   -1026   -1029      37    1095    1104   -1101   -1107      38
    1068    1080   -1074   -1077      37    1146    1155   -1152   -1158      38
    1110    1122   -1116   -1119      37    1188    1203   -1209   -1212      37
    1197    1209   -1203   -1206      38    1191    1203   -1197   -1200      37
    1188    1197   -1191   -1194      38    1161    1173   -1167   -1170      37
    1215    1227   -1221   -1224      37    1272    1284   -1278   -1281      37
    1302    1314   -1308   -1311      37    1323    1335   -1329   -1332      37
    1383    1398   -1404   -1407      37    1392    1404   -1398   -1401      38
    1386    1398   -1392   -1395      37    1383    1392   -1386   -1389      38
    1356    1368   -1362   -1365      37    1410    1422   -1416   -1419      37
    1467    1479   -1473   -1476      37    1551    1560   -1557   -1569      38
    1551    1572   -1554   -1575      38    1515    1527   -1521   -1524      37
    1563    1584   -1578   -1581      37    1602    1614   -1608   -1611      37
    1686    1710   -1716   -1719      37    1701    1716   -1710   -1713      37
    1689    1701   -1695   -1698      37    1686    1695   -1689   -1692      37
    1659    1671   -1665   -1668      37    1722    1734   -1728   -1731      37
    1779    1791   -1785   -1788      37    1827    1839   -1833   -1836      37
    1857    1869   -1863   -1866      37    1914    1923   -1920   -1932      38
    1914    1935   -1917   -1938      38    1878    1890   -1884   -1887      37
    1986    2001   -1998   -2004      38    1986    1992   -1989   -1995      38
    1971    1986   -1980   -1983      38    1926    1947   -1941   -1944      37
    2007    2019   -2013   -2016      37    2055    2076   -2082   -2085      37
    2070    2082   -2076   -2079      37    2064    2076   -2070   -2073      37
    2058    2070   -2064   -2067      37    2055    2064   -2058   -2061      37
    2028    2040   -2034   -2037      37    2115    2136   -2142   -2145      37
    2130    2142   -2136   -2139      37    2124    2136   -2130   -2133      37
    2118    2130   -2124   -2127      37    2115    2124   -2118   -2121      37
    2088    2100   -2094   -2097      37    2175    2199   -2205   -2208      37
    2190    2205   -2199   -2202      37    2178    2190   -2184   -2187      37
    2175    2184   -2178   -2181      37    2148    2160   -2154   -2157      37
    2211    2223   -2217   -2220      37    2295    2307   -2301   -2304      37
    2361    2373   -2367   -2370      37
%FLAG DIHEDRALS_WITHOUT_HYDROGEN
%FORMAT(10I8)
      24      21      27      33       2      21      27      33      39       1
      21      27     -33      39       4      21      27     -33      39       5
      21      27     -33      39       6      21      27      33      78       7
      21      27     -33      78       8      21      27     -33      78       9
      21      27     -33      78       6      12      21      27      33       2
       0      12      21      24       3       0      12      21      27       3
      81      78      84      90       2      78      84      90      96       1
      78      84     -90      96       4      78      84     -90      96       5
      78      84     -90      96       6      78      84      90     126       7
      78      84     -90     126       8      78      84     -90     126       9
      78      84     -90     126       6      57      39      33      78      10
      45      39      33      78      10      45      39      57      66      13
      45      39     -57      66      14      45      39     -57      66      15
      39      33      78      81       3      39      33      78      84      16
      39      33     -78      84      17      39      33     -78      84       5
      39      33     -78      84       6      33      39      57      66      13
      33      39     -57      66      14      33      39     -57      66      15
      33      78      84      90       2      27      33      39      45      10
      27      33      39      57      10      27      33      78      81       3
      27      33      78      84      20      27      33     -78      84      21
      27      33     -78      84      22      27      33     -78      84       6
     129     126     132     138       2     126     132     138     144       1
     126     132    -138     144       4     126     132    -138     144       5
     126     132    -138     144       6     126     132     138     174       7
     126     132    -138     174       8     126     132    -138     174       9
     126     132    -138     174       6     114      96      90     126      10
     102      96      90     126      10      96      90     126     129       3
      96      90     126     132      16      96      90    -126     132      17
      96      90    -126     132       5      96      90    -126     132       6
      90     126     132     138       2      84      90      96     102      10
      84      90      96     114      10      84      90     126     129       3
      84      90     126     132      20      84      90    -126     132      21
      84      90    -126     132      22      84      90    -126     132       6
     177     174     189     195       2     174     189     195     201       1
     174     189    -195     201       4     174     189    -195     201       5
     174     189    -195     201       6     174     189     195     234       7
     174     189    -195     234       8     174     189    -195     234       9
     174     189    -195     234       6     153     144     138     174      10
     144     138     174     177       3     144     138     174     189      16
     144     138    -174     189      17     144     138    -174     189       5
     144     138    -174     189       6     144     153     162     165       3
     144     153     162     168       3     138     144     153     162      10
     138     174     189     195       2     132     138     144     153      10
     132     138     174     177       3     132     138     174     189      20
     132     138    -174     189      21     132     138    -174     189      22
     132     138    -174     189       6     237     234     240     246       2
     234     240     246     252       1     234     240    -246     252       4
     234     240    -246     252       5     234     240    -246     252       6
     234     240     246     264       7     234     240    -246     264       8
     234     240    -246     264       9     234     240    -246     264       6
     210     201     195     234      10     201     195     234     237       3
     201     195     234     240      16     201     195    -234     240      17
     201     195    -234     240       5     201     195    -234     240       6
     201     210     219     222       3     201     210     219     225      16
     201     210    -219     225      17     201     210    -219     225       5
     201     210    -219     225       6     195     201     210     219      10
     195     234     240     246       2     189     195     201     210      10
     189     195     234     237       3     189     195     234     240      20
     189     195    -234     240      21     189     195    -234     240      22
     189     195    -234     240       6     267     264     270     276       2
     264     270     276     282       1     264     270    -276     282       4
     264     270    -276     282       5     264     270    -276     282       6
     264     270     276     294       7     264     270    -276     294       8
     264     270    -276     294       9     264     270    -276     294       6
     261     252     246     264      10     261     453     444     438      24
     252     246     264     267       3     252     246     264     270      16
     252     246    -264     270      17     252     246    -264     270       5
     252     246    -264     270       6     252     261     453     444      25
     252     261    -453     444      26     246     252     261     453      24
     246     264     270     276       2     240     246     252     261      10
     240     246     264     267       3     240     246     264     270      20
     240     246    -264     270      21     240     246    -264     270      22
     240     246    -264     270       6     297     294     300     306       2
     294     300     306     312       1     294     300    -306     312       4
     294     300    -306     312       5     294     300    -306     312       6
     294     300     306     336       7     294     300    -306     336       8
     294     300    -306     336       9     294     300    -306     336       6
     291     282     276     294      10     291    1299    1290    1284      24
     282     276     294     297       3     282     276     294     300      16
     282     276    -294     300      17     282     276    -294     300       5
     282     276    -294     300       6     282     291    1299    1290      25
     282     291   -1299    1290      26     276     282     291    1299      24
     276     294     300     306       2     270     276     282     291      10
     270     276     294     297       3     270     276     294     300      20
     270     276    -294     300      21     270     276    -294     300      22
     270     276    -294     300       6     339     336     342     348       2
     336     342     348     354       1     336     342    -348     354       4
     336     342    -348     354       5     336     342    -348     354       6
     336     342     348     369       7     336     342    -348     369       8
     336     342    -348     369       9     336     342    -348     369       6
     330     312     306     336      10     318     312     306     336      10
     312     306     336     339       3     312     306     336     342      16
     312     306    -336     342      17     312     306    -336     342       5
     312     306    -336     342       6     306     336     342     348       2
     300     306     312     318      10     300     306     312     330      10
     300     306     336     339       3     300     306     336     342      20
     300     306    -336     342      21     300     306    -336     342      22
     300     306    -336     342       6     372     369     375     381       2
     369     375     381     387       1     369     375    -381     387       4
     369     375    -381     387       5     369     375    -381     387       6
     369     375     381     426       7     369     375    -381     426       8
     369     375    -381     426       9     369     375    -381     426       6
     363     354     348     369      10     354     348     369     372       3
     354     348     369     375      16     354     348    -369     375      17
     354     348    -369     375       5     354     348    -369     375       6
     348     369     375     381       2     342     348     354     363      10
     342     348     369     372       3     342     348     369     375      20
     342     348    -369     375      21     342     348    -369     375      22
     342     348    -369     375       6     429     426     432     438       2
     426     432     438     444       1     426     432    -438     444       4
     426     432    -438     444       5     426     432    -438     444       6
     426     432     438     456       7     426     432    -438     456       8
     426     432    -438     456       9     426     432    -438     456       6
     405     387     381     426      10     393     387     381     426      10
     393     387     405     414      13     393     387    -405     414      14
     393     387    -405     414      15     387     381     426     429       3
     387     381     426     432      16     387     381    -426     432      17
     387     381    -426     432       5     387     381    -426     432       6
     381     387     405     414      13     381     387    -405     414      14
     381     387    -405     414      15     381     426     432     438       2
     375     381     387     393      10     375     381     387     405      10
     375     381     426     429       3     375     381     426     432      20
     375     381    -426     432      21     375     381    -426     432      22
     375     381    -426     432       6     459     456     462     468       2
     456     462     468     474       1     456     462    -468     474       4
     456     462    -468     474       5     456     462    -468     474       6
     456     462     468     489       7     456     462    -468     489       8
     456     462    -468     489       9     456     462    -468     489       6
     453     444     438     456      10     444     438     456     459       3
     444     438     456     462      16     444     438    -456     462      17
     444     438    -456     462       5     444     438    -456     462       6
     438     456     462     468       2     432     438     444     453      10
     432     438     456     459       3     432     438     456     462      20
     432     438    -456     462      21     432     438    -456     462      22
     432     438    -456     462       6     492     489     495     501       2
     489     495     501     507       1     489     495    -501     507       4
     489     495    -501     507       5     489     495    -501     507       6
     489     495     501     546       7     489     495    -501     546       8
     489     495    -501     546       9     489     495    -501     546       6
     483     474     468     489      10     474     468     489     492       3
     474     468     489     495      16     474     468    -489     495      17
     474     468    -489     495       5     474     468    -489     495       6
     468     489     495     501       2     462     468     474     483      10
     462     468     489     492       3     462     468     489     495      20
     462     468    -489     495      21     462     468    -489     495      22
     462     468    -489     495       6     549     546     552     558       2
     546     552     558     564       1     546     552    -558     564       4
     546     552    -558     564       5     546     552    -558     564       6
     546     552     558     609       7     546     552    -558     609       8
     546     552    -558     609       9     546     552    -558     609       6
     516     507     501     546      10     507     501     546     549       3
     507     501     546     552      16     507     501    -546     552      17
     507     501    -546     552       5     507     501    -546     552       6
     501     507     516     522      13     501     507    -516     522      14
     501     507    -516     522      15     501     507     516     534      13
     501     507    -516     534      14     501     507    -516     534      15
     501     546     552     558       2     495     501     507     516      10
     495     501     546     549       3     495     501     546     552      20
     495     501    -546     552      21     495     501    -546     552      22
     495     501    -546     552       6     612     609     615     621       2
     609     615     621     627       1     609     615    -621     627       4
     609     615    -621     627       5     609     615    -621     627       6
     609     615     621     660       7     609     615    -621     660       8
     609     615    -621     660       9     609     615    -621     660       6
     591     588     597     603      30     582     576     573     603      30
     582     588    -597     603      30     576     573     603     597      30
     576     582     588     591      30     576     582    -588     597      30
     573     564     558     609      10     573     576     582     588      30
     573     603    -597     588      30     564     558     609     612       3
     564     558     609     615      16     564     558    -609     615      17
     564     558    -609     615       5     564     558    -609     615       6
     564     573     576     582      30     564     573     603     597      30
     558     564     573     576       3     558     564     573     603       3
     558     609     615     621       2     552     558     564     573      10
     552     558     609     612       3     552     558     609     615      20
     552     558    -609     615      21     552     558    -609     615      22
     552     558    -609     615       6     663     660     666     672       2
     660     666     672     678       1     660     666    -672     678       4
     660     666    -672     678       5     660     666    -672     678       6
     660     666     672     717       7     660     666    -672     717       8
     660     666    -672     717       9     660     666    -672     717       6
     636     627     621     660      10     627     621     660     663       3
     627     621     660     666      16     627     621    -660     666      17
     627     621    -660     666       5     627     621    -660     666       6
     627     636     645     648       3     627     636     645     651      16
     627     636    -645     651      17     627     636    -645     651       5
     627     636    -645     651       6     621     627     636     645      10
     621     660     666     672       2     615     621     627     636      10
     615     621     660     663       3     615     621     660     666      20
     615     621    -660     666      21     615     621    -660     666      22
     615     621    -660     666       6     720     717     723     729       2
     717     723     729     735       1     717     723    -729     735       4
     717     723    -729     735       5     717     723    -729     735       6
     717     723     729     765       7     717     723    -729     765       8
     717     723    -729     765       9     717     723    -729     765       6
     687     678     672     717      10     678     672     717     720       3
     678     672     717     723      16     678     672    -717     723      17
     678     672    -717     723       5     678     672    -717     723       6
     672     678     687     693      13     672     678    -687     693      14
     672     678    -687     693      15     672     678     687     705      13
     672     678    -687     705      14     672     678    -687     705      15
     672     717     723     729       2     666     672     678     687      10
     666     672     717     720       3     666     672     717     723      20
     666     672    -717     723      21     666     672    -717     723      22
     666     672    -717     723       6     768     765     780     786       2
     765     780     786     792       1     765     780    -786     792       4
     765     780    -786     792       5     765     780    -786     792       6
     765     780     786     816       7     765     780    -786     816       8
     765     780    -786     816       9     765     780    -786     816       6
     744     735     729     765      10     735     729     765     768       3
     735     729     765     780      16     735     729    -765     780      17
     735     729    -765     780       5     735     729    -765     780       6
     735     744     753     756       3     735     744     753     759       3
     729     735     744     753      10     729     765     780     786       2
     723     729     735     744      10     723     729     765     768       3
     723     729     765     780      20     723     729    -765     780      21
     723     729    -765     780      22     723     729    -765     780       6
     819     816     822     828       2     816     822     828     834       1
     816     822    -828     834       4     816     822    -828     834       5
     816     822    -828     834       6     816     822     828     879       7
     816     822    -828     879       8     816     822    -828     879       9
     816     822    -828     879       6     801     792     786     816      10
     792     786     816     819       3     792     786     816     822      16
     792     786    -816     822      17     792     786    -816     822       5
     792     786    -816     822       6     786     792     801     804       3
     786     792     801     807      16     786     792    -801     807      17
     786     792    -801     807       5     786     792    -801     807       6
     786     816     822     828       2     780     786     792     801      10
     780     786     816     819       3     780     786     816     822      20
     780     786    -816     822      21     780     786    -816     822      22
     780     786    -816     822       6     882     879     885     891       2
     879     885     891     897       1     879     885    -891     897       4
     879     885    -891     897       5     879     885    -891     897       6
     879     885     891     909       7     879     885    -891     909       8
     879     885    -891     909       9     879     885    -891     909       6
     861     858     867     873      30     852     846     843     873      30
     852     858    -867     873      30     846     843     873     867      30
     846     852     858     861      30     846     852    -858     867      30
     843     834     828     879      10     843     846     852     858      30
     843     873    -867     858      30     834     828     879     882       3
     834     828     879     885      16     834     828    -879     885      17
     834     828    -879     885       5     834     828    -879     885       6
     834     843     846     852      30     834     843     873     867      30
     828     834     843     846       3     828     834     843     873       3
     828     879     885     891       2     822     828     834     843      10
     822     828     879     882       3     822     828     879     885      20
     822     828    -879     885      21     822     828    -879     885      22
     822     828    -879     885       6     912     909     915     921       2
     909     915     921     927       1     909     915    -921     927       4
     909     915    -921     927       5     909     915    -921     927       6
     909     915     921     951       7     909     915    -921     951       8
     909     915    -921     951       9     909     915    -921     951       6
     906     897     891     909      10     906    1854    1845    1839      24
     897     891     909     912       3     897     891     909     915      16
     897     891    -909     915      17     897     891    -909     915       5
     897     891    -909     915       6     897     906    1854    1845      25
     897     906   -1854    1845      26     891     897     906    1854      24
     891     909     915     921       2     885     891     897     906      10
     885     891     909     912       3     885     891     909     915      20
     885     891    -909     915      21     885     891    -909     915      22
     885     891    -909     915       6     936     927     921     951      10
     927     921     951     954       3     927     921     951     957       3
     921     927     936     939       3     921     927     936     942      16
     921     927    -936     942      17     921     927    -936     942       5
     921     927    -936     942       6     915     921     927     936      10
     915     921     951     954       3     915     921     951     957       3
    1023    1020    1026    1032       2    1020    1026    1032    1038       1
    1020    1026   -1032    1038       4    1020    1026   -1032    1038       5
    1020    1026   -1032    1038       6    1020    1026    1032    1068       7
    1020    1026   -1032    1068       8    1020    1026   -1032    1068       9
    1020    1026   -1032    1068       6     996     990     987    1014      30
     996    1002   -1008    1014      30     990     987    1014    1008      30
     990     996   -1002    1008      30     987     978     972    1020      10
     987     990     996    1002      30     987    1014   -1008    1002      30
     978     972    1020    1023       3     978     972    1020    1026      16
     978     972   -1020    1026      17     978     972   -1020    1026       5
     978     972   -1020    1026       6     978     987     990     996      30
     978     987    1014    1008      30     972     978     987     990       3
     972     978     987    1014       3     972    1020    1026    1032       2
     960     972     978     987      10     960     972    1020    1023       3
     960     972    1020    1026       3    1071    1068    1074    1080       2
    1068    1074    1080    1086       1    1068    1074   -1080    1086       4
    1068    1074   -1080    1086       5    1068    1074   -1080    1086       6
    1068    1074    1080    1110       7    1068    1074   -1080    1110       8
    1068    1074   -1080    1110       9    1068    1074   -1080    1110       6
    1056    1038    1032    1068      10    1044    1038    1032    1068      10
    1038    1032    1068    1071       3    1038    1032    1068    1074      16
    1038    1032   -1068    1074      17    1038    1032   -1068    1074       5
    1038    1032   -1068    1074       6    1032    1068    1074    1080       2
    1026    1032    1038    1044      10    1026    1032    1038    1056      10
    1026    1032    1068    1071       3    1026    1032    1068    1074      20
    1026    1032   -1068    1074      21    1026    1032   -1068    1074      22
    1026    1032   -1068    1074       6    1113    1110    1116    1122       2
    1110    1116    1122    1128       1    1110    1116   -1122    1128       4
    1110    1116   -1122    1128       5    1110    1116   -1122    1128       6
    1110    1116    1122    1161       7    1110    1116   -1122    1161       8
    1110    1116   -1122    1161       9    1110    1116   -1122    1161       6
    1095    1086    1080    1110      10    1086    1080    1110    1113       3
    1086    1080    1110    1116      16    1086    1080   -1110    1116      17
    1086    1080   -1110    1116       5    1086    1080   -1110    1116       6
    1080    1086    1095    1098       3    1080    1086    1095    1101      16
    1080    1086   -1095    1101      17    1080    1086   -1095    1101       5
    1080    1086   -1095    1101       6    1080    1110    1116    1122       2
    1074    1080    1086    1095      10    1074    1080    1110    1113       3
    1074    1080    1110    1116      20    1074    1080   -1110    1116      21
    1074    1080   -1110    1116      22    1074    1080   -1110    1116       6
    1164    1161    1167    1173       2    1161    1167    1173    1179       1
    1161    1167   -1173    1179       4    1161    1167   -1173    1179       5
    1161    1167   -1173    1179       6    1161    1167    1173    1215       7
    1161    1167   -1173    1215       8    1161    1167   -1173    1215       9
    1161    1167   -1173    1215       6    1137    1128    1122    1161      10
    1128    1122    1161    1164       3    1128    1122    1161    1167      16
    1128    1122   -1161    1167      17    1128    1122   -1161    1167       5
    1128    1122   -1161    1167       6    1128    1137    1146    1149       3
    1128    1137    1146    1152      16    1128    1137   -1146    1152      17
    1128    1137   -1146    1152       5    1128    1137   -1146    1152       6
    1122    1128    1137    1146      10    1122    1161    1167    1173       2
    1116    1122    1128    1137      10    1116    1122    1161    1164       3
    1116    1122    1161    1167      20    1116    1122   -1161    1167      21
    1116    1122   -1161    1167      22    1116    1122   -1161    1167       6
    1218    1215    1221    1227       2    1215    1221    1227    1233       1
    1215    1221   -1227    1233       4    1215    1221   -1227    1233       5
    1215    1221   -1227    1233       6    1215    1221    1227    1272       7
    1215    1221   -1227    1272       8    1215    1221   -1227    1272       9
    1215    1221   -1227    1272       6    1197    1191   -1188    1209      33
    1191    1188   -1209    1203      34    1191    1197   -1203    1209      32
    1188    1179    1173    1215      10    1188    1191   -1197    1203      32
    1188    1209   -1203    1197      31    1179    1173    1215    1218       3
    1179    1173    1215    1221      16    1179    1173   -1215    1221      17
    1179    1173   -1215    1221       5    1179    1173   -1215    1221       6
    1179    1188    1191    1197      33    1179    1188    1209    1203      34
    1173    1179    1188    1191       3    1173    1179    1188    1209       3
    1173    1215    1221    1227       2    1167    1173    1179    1188      10
    1167    1173    1215    1218       3    1167    1173    1215    1221      20
    1167    1173   -1215    1221      21    1167    1173   -1215    1221      22
    1167    1173   -1215    1221       6    1275    1272    1278    1284       2
    1272    1278    1284    1290       1    1272    1278   -1284    1290       4
    1272    1278   -1284    1290       5    1272    1278   -1284    1290       6
    1272    1278    1284    1302       7    1272    1278   -1284    1302       8
    1272    1278   -1284    1302       9    1272    1278   -1284    1302       6
    1242    1233    1227    1272      10    1233    1227    1272    1275       3
    1233    1227    1272    1278      16    1233    1227   -1272    1278      17
    1233    1227   -1272    1278       5    1233    1227   -1272    1278       6
    1227    1233    1242    1248      13    1227    1233   -1242    1248      14
    1227    1233   -1242    1248      15    1227    1233    1242    1260      13
    1227    1233   -1242    1260      14    1227    1233   -1242    1260      15
    1227    1272    1278    1284       2    1221    1227    1233    1242      10
    1221    1227    1272    1275       3    1221    1227    1272    1278      20
    1221    1227   -1272    1278      21    1221    1227   -1272    1278      22
    1221    1227   -1272    1278       6    1305    1302    1308    1314       2
    1302    1308    1314    1323       7    1302    1308   -1314    1323       8
    1302    1308   -1314    1323       9    1302    1308   -1314    1323       6
    1299    1290    1284    1302      10    1290    1284    1302    1305       3
    1290    1284    1302    1308      16    1290    1284   -1302    1308      17
    1290    1284   -1302    1308       5    1290    1284   -1302    1308       6
    1284    1302    1308    1314       2    1278    1284    1290    1299      10
    1278    1284    1302    1305       3    1278    1284    1302    1308      20
    1278    1284   -1302    1308      21    1278    1284   -1302    1308      22
    1278    1284   -1302    1308       6    1326    1323    1329    1335       2
    1323    1329    1335    1341       1    1323    1329   -1335    1341       4
    1323    1329   -1335    1341       5    1323    1329   -1335    1341       6
    1323    1329    1335    1356       7    1323    1329   -1335    1356       8
    1323    1329   -1335    1356       9    1323    1329   -1335    1356       6
    1314    1323    1329    1335       2    1308    1314    1323    1326       3
    1308    1314    1323    1329      20    1308    1314   -1323    1329      21
    1308    1314   -1323    1329      22    1308    1314   -1323    1329       6
    1359    1356    1362    1368       2    1356    1362    1368    1374       1
    1356    1362   -1368    1374       4    1356    1362   -1368    1374       5
    1356    1362   -1368    1374       6    1356    1362    1368    1410       7
    1356    1362   -1368    1410       8    1356    1362   -1368    1410       9
    1356    1362   -1368    1410       6    1350    1341    1335    1356      10
    1341    1335    1356    1359       3    1341    1335    1356    1362      16
    1341    1335   -1356    1362      17    1341    1335   -1356    1362       5
    1341    1335   -1356    1362       6    1335    1356    1362    1368       2
    1329    1335    1341    1350      10    1329    1335    1356    1359       3
    1329    1335    1356    1362      20    1329    1335   -1356    1362      21
    1329    1335   -1356    1362      22    1329    1335   -1356    1362       6
    1413    1410    1416    1422       2    1410    1416    1422    1428       1
    1410    1416   -1422    1428       4    1410    1416   -1422    1428       5
    1410    1416   -1422    1428       6    1410    1416    1422    1467       7
    1410    1416   -1422    1467       8    1410    1416   -1422    1467       9
    1410    1416   -1422    1467       6    1392    1386   -1383    1404      33
    1386    1383   -1404    1398      34    1386    1392   -1398    1404      32
    1383    1374    1368    1410      10    1383    1386   -1392    1398      32
    1383    1404   -1398    1392      31    1374    1368    1410    1413       3
    1374    1368    1410    1416      16    1374    1368   -1410    1416      17
    1374    1368   -1410    1416       5    1374    1368   -1410    1416       6
    1374    1383    1386    1392      33    1374    1383    1404    1398      34
    1368    1374    1383    1386       3    1368    1374    1383    1404       3
    1368    1410    1416    1422       2    1362    1368    1374    1383      10
    1362    1368    1410    1413       3    1362    1368    1410    1416      20
    1362    1368   -1410    1416      21    1362    1368   -1410    1416      22
    1362    1368   -1410    1416       6    1470    1467    1473    1479       2
    1467    1473    1479    1485       1    1467    1473   -1479    1485       4
    1467    1473   -1479    1485       5    1467    1473   -1479    1485       6
    1467    1473    1479    1515       7    1467    1473   -1479    1515       8
    1467    1473   -1479    1515       9    1467    1473   -1479    1515       6
    1437    1428    1422    1467      10    1428    1422    1467    1470       3
    1428    1422    1467    1473      16    1428    1422   -1467    1473      17
    1428    1422   -1467    1473       5    1428    1422   -1467    1473       6
    1422    1428    1437    1443      13    1422    1428   -1437    1443      14
    1422    1428   -1437    1443      15    1422    1428    1437    1455      13
    1422    1428   -1437    1455      14    1422    1428   -1437    1455      15
    1422    1467    1473    1479       2    1416    1422    1428    1437      10
    1416    1422    1467    1470       3    1416    1422    1467    1473      20
    1416    1422   -1467    1473      21    1416    1422   -1467    1473      22
    1416    1422   -1467    1473       6    1518    1515    1521    1527       2
    1515    1521    1527    1533       1    1515    1521   -1527    1533       4
    1515    1521   -1527    1533       5    1515    1521   -1527    1533       6
    1515    1521    1527    1563       7    1515    1521   -1527    1563       8
    1515    1521   -1527    1563       9    1515    1521   -1527    1563       6
    1503    1485    1479    1515      10    1491    1485    1479    1515      10
    1485    1479    1515    1518       3    1485    1479    1515    1521      16
    1485    1479   -1515    1521      17    1485    1479   -1515    1521       5
    1485    1479   -1515    1521       6    1479    1515    1521    1527       2
    1473    1479    1485    1491      10    1473    1479    1485    1503      10
    1473    1479    1515    1518       3    1473    1479    1515    1521      20
    1473    1479   -1515    1521      21    1473    1479   -1515    1521      22
    1473    1479   -1515    1521       6    1566    1563    1578    1584       2
    1563    1578    1584    1590       1    1563    1578   -1584    1590       4
    1563    1578   -1584    1590       5    1563    1578   -1584    1590       6
    1563    1578    1584    1602       7    1563    1578   -1584    1602       8
    1563    1578   -1584    1602       9    1563    1578   -1584    1602       6
    1542    1533    1527    1563      10    1533    1527    1563    1566       3
    1533    1527    1563    1578      16    1533    1527   -1563    1578      17
    1533    1527   -1563    1578       5    1533    1527   -1563    1578       6
    1533    1542    1551    1554       3    1533    1542    1551    1557       3
    1527    1533    1542    1551      10    1527    1563    1578    1584       2
    1521    1527    1533    1542      10    1521    1527    1563    1566       3
    1521    1527    1563    1578      20    1521    1527   -1563    1578      21
    1521    1527   -1563    1578      22    1521    1527   -1563    1578       6
    1605    1602    1608    1614       2    1602    1608    1614    1620       1
    1602    1608   -1614    1620       4    1602    1608   -1614    1620       5
    1602    1608   -1614    1620       6    1602    1608    1614    1659       7
    1602    1608   -1614    1659       8    1602    1608   -1614    1659       9
    1602    1608   -1614    1659       6    1590    1584    1602    1605       3
    1590    1584    1602    1608      16    1590    1584   -1602    1608      17
    1590    1584   -1602    1608       5    1590    1584   -1602    1608       6
    1584    1602    1608    1614       2    1578    1584    1602    1605       3
    1578    1584    1602    1608      20    1578    1584   -1602    1608      21
    1578    1584   -1602    1608      22    1578    1584   -1602    1608       6
    1662    1659    1665    1671       2    1659    1665    1671    1677       1
    1659    1665   -1671    1677       4    1659    1665   -1671    1677       5
    1659    1665   -1671    1677       6    1659    1665    1671    1722       7
    1659    1665   -1671    1722       8    1659    1665   -1671    1722       9
    1659    1665   -1671    1722       6    1629    1620    1614    1659      10
    1620    1614    1659    1662       3    1620    1614    1659    1665      16
    1620    1614   -1659    1665      17    1620    1614   -1659    1665       5
    1620    1614   -1659    1665       6    1614    1620    1629    1635      13
    1614    1620   -1629    1635      14    1614    1620   -1629    1635      15
    1614    1620    1629    1647      13    1614    1620   -1629    1647      14
    1614    1620   -1629    1647      15    1614    1659    1665    1671       2
    1608    1614    1620    1629      10    1608    1614    1659    1662       3
    1608    1614    1659    1665      20    1608    1614   -1659    1665      21
    1608    1614   -1659    1665      22    1608    1614   -1659    1665       6
    1725    1722    1728    1734       2    1722    1728    1734    1740       1
    1722    1728   -1734    1740       4    1722    1728   -1734    1740       5
    1722    1728   -1734    1740       6    1722    1728    1734    1779       7
    1722    1728   -1734    1779       8    1722    1728   -1734    1779       9
    1722    1728   -1734    1779       6    1704    1701    1710    1716      30
    1695    1689    1686    1716      30    1695    1701   -1710    1716      30
    1689    1686    1716    1710      30    1689    1695    1701    1704      30
    1689    1695   -1701    1710      30    1686    1677    1671    1722      10
    1686    1689    1695    1701      30    1686    1716   -1710    1701      30
    1677    1671    1722    1725       3    1677    1671    1722    1728      16
    1677    1671   -1722    1728      17    1677    1671   -1722    1728       5
    1677    1671   -1722    1728       6    1677    1686    1689    1695      30
    1677    1686    1716    1710      30    1671    1677    1686    1689       3
    1671    1677    1686    1716       3    1671    1722    1728    1734       2
    1665    1671    1677    1686      10    1665    1671    1722    1725       3
    1665    1671    1722    1728      20    1665    1671   -1722    1728      21
    1665    1671   -1722    1728      22    1665    1671   -1722    1728       6
    1782    1779    1785    1791       2    1779    1785    1791    1797       1
    1779    1785   -1791    1797       4    1779    1785   -1791    1797       5
    1779    1785   -1791    1797       6    1779    1785    1791    1827       7
    1779    1785   -1791    1827       8    1779    1785   -1791    1827       9
    1779    1785   -1791    1827       6    1749    1740    1734    1779      10
    1740    1734    1779    1782       3    1740    1734    1779    1785      16
    1740    1734   -1779    1785      17    1740    1734   -1779    1785       5
    1740    1734   -1779    1785       6    1734    1740    1749    1755      13
    1734    1740   -1749    1755      14    1734    1740   -1749    1755      15
    1734    1740    1749    1767      13    1734    1740   -1749    1767      14
    1734    1740   -1749    1767      15    1734    1779    1785    1791       2
    1728    1734    1740    1749      10    1728    1734    1779    1782       3
    1728    1734    1779    1785      20    1728    1734   -1779    1785      21
    1728    1734   -1779    1785      22    1728    1734   -1779    1785       6
    1830    1827    1833    1839       2    1827    1833    1839    1845       1
    1827    1833   -1839    1845       4    1827    1833   -1839    1845       5
    1827    1833   -1839    1845       6    1827    1833    1839    1857       7
    1827    1833   -1839    1857       8    1827    1833   -1839    1857       9
    1827    1833   -1839    1857       6    1815    1797    1791    1827      10
    1803    1797    1791    1827      10    1797    1791    1827    1830       3
    1797    1791    1827    1833      16    1797    1791   -1827    1833      17
    1797    1791   -1827    1833       5    1797    1791   -1827    1833       6
    1791    1827    1833    1839       2    1785    1791    1797    1803      10
    1785    1791    1797    1815      10    1785    1791    1827    1830       3
    1785    1791    1827    1833      20    1785    1791   -1827    1833      21
    1785    1791   -1827    1833      22    1785    1791   -1827    1833       6
    1860    1857    1863    1869       2    1857    1863    1869    1878       7
    1857    1863   -1869    1878       8    1857    1863   -1869    1878       9
    1857    1863   -1869    1878       6    1854    1845    1839    1857      10
    1845    1839    1857    1860       3    1845    1839    1857    1863      16
    1845    1839   -1857    1863      17    1845    1839   -1857    1863       5
    1845    1839   -1857    1863       6    1839    1857    1863    1869       2
    1833    1839    1845    1854      10    1833    1839    1857    1860       3
    1833    1839    1857    1863      20    1833    1839   -1857    1863      21
    1833    1839   -1857    1863      22    1833    1839   -1857    1863       6
    1881    1878    1884    1890       2    1878    1884    1890    1896       1
    1878    1884   -1890    1896       4    1878    1884   -1890    1896       5
    1878    1884   -1890    1896       6    1878    1884    1890    1926       7
    1878    1884   -1890    1926       8    1878    1884   -1890    1926       9
    1878    1884   -1890    1926       6    1869    1878    1884    1890       2
    1863    1869    1878    1881       3    1863    1869    1878    1884      20
    1863    1869   -1878    1884      21    1863    1869   -1878    1884      22
    1863    1869   -1878    1884       6    1929    1926    1941    1947       2
    1926    1941    1947    1953       1    1926    1941   -1947    1953       4
    1926    1941   -1947    1953       5    1926    1941   -1947    1953       6
    1926    1941    1947    2007       7    1926    1941   -1947    2007       8
    1926    1941   -1947    2007       9    1926    1941   -1947    2007       6
    1905    1896    1890    1926      10    1896    1890    1926    1929       3
    1896    1890    1926    1941      16    1896    1890   -1926    1941      17
    1896    1890   -1926    1941       5    1896    1890   -1926    1941       6
    1896    1905    1914    1917       3    1896    1905    1914    1920       3
    1890    1896    1905    1914      10    1890    1926    1941    1947       2
    1884    1890    1896    1905      10    1884    1890    1926    1929       3
    1884    1890    1926    1941      20    1884    1890   -1926    1941      21
    1884    1890   -1926    1941      22    1884    1890   -1926    1941       6
    2010    2007    2013    2019       2    2007    2013    2019    2028       7
    2007    2013   -2019    2028       8    2007    2013   -2019    2028       9
    2007    2013   -2019    2028       6    1971    1980    1986    1989      35
    1971    1980    1986    1998      35    1962    1953    1947    2007      10
    1962    1971    1980    1986      28    1953    1947    2007    2010       3
    1953    1947    2007    2013      16    1953    1947   -2007    2013      17
    1953    1947   -2007    2013       5    1953    1947   -2007    2013       6
    1953    1962    1971    1980      10    1947    1953    1962    1971      13
    1947    1953   -1962    1971      14    1947    1953   -1962    1971      15
    1947    2007    2013    2019       2    1941    1947    1953    1962      10
    1941    1947    2007    2010       3    1941    1947    2007    2013      20
    1941    1947   -2007    2013      21    1941    1947   -2007    2013      22
    1941    1947   -2007    2013       6    2031    2028    2034    2040       2
    2028    2034    2040    2046       1    2028    2034   -2040    2046       4
    2028    2034   -2040    2046       5    2028    2034   -2040    2046       6
    2028    2034    2040    2088       7    2028    2034   -2040    2088       8
    2028    2034   -2040    2088       9    2028    2034   -2040    2088       6
    2019    2028    2034    2040       2    2013    2019    2028    2031       3
    2013    2019    2028    2034      20    2013    2019   -2028    2034      21
    2013    2019   -2028    2034      22    2013    2019   -2028    2034       6
    2091    2088    2094    2100       2    2088    2094    2100    2106       1
    2088    2094   -2100    2106       4    2088    2094   -2100    2106       5
    2088    2094   -2100    2106       6    2088    2094    2100    2148       7
    2088    2094   -2100    2148       8    2088    2094   -2100    2148       9
    2088    2094   -2100    2148       6    2064    2058    2055    2082      30
    2064    2070   -2076    2082      30    2058    2055    2082    2076      30
    2058    2064   -2070    2076      30    2055    2046    2040    2088      10
    2055    2058    2064    2070      30    2055    2082   -2076    2070      30
    2046    2040    2088    2091       3    2046    2040    2088    2094      16
    2046    2040   -2088    2094      17    2046    2040   -2088    2094       5
    2046    2040   -2088    2094       6    2046    2055    2058    2064      30
    2046    2055    2082    2076      30    2040    2046    2055    2058       3
    2040    2046    2055    2082       3    2040    2088    2094    2100       2
    2034    2040    2046    2055      10    2034    2040    2088    2091       3
    2034    2040    2088    2094      20    2034    2040   -2088    2094      21
    2034    2040   -2088    2094      22    2034    2040   -2088    2094       6
    2151    2148    2154    2160       2    2148    2154    2160    2166       1
    2148    2154   -2160    2166       4    2148    2154   -2160    2166       5
    2148    2154   -2160    2166       6    2148    2154    2160    2211       7
    2148    2154   -2160    2211       8    2148    2154   -2160    2211       9
    2148    2154   -2160    2211       6    2124    2118    2115    2142      30
    2124    2130   -2136    2142      30    2118    2115    2142    2136      30
    2118    2124   -2130    2136      30    2115    2106    2100    2148      10
    2115    2118    2124    2130      30    2115    2142   -2136    2130      30
    2106    2100    2148    2151       3    2106    2100    2148    2154      16
    2106    2100   -2148    2154      17    2106    2100   -2148    2154       5
    2106    2100   -2148    2154       6    2106    2115    2118    2124      30
    2106    2115    2142    2136      30    2100    2106    2115    2118       3
    2100    2106    2115    2142       3    2100    2148    2154    2160       2
    2094    2100    2106    2115      10    2094    2100    2148    2151       3
    2094    2100    2148    2154      20    2094    2100   -2148    2154      21
    2094    2100   -2148    2154      22    2094    2100   -2148    2154       6
    2214    2211    2217    2223       2    2211    2217    2223    2229       1
    2211    2217   -2223    2229       4    2211    2217   -2223    2229       5
    2211    2217   -2223    2229       6    2211    2217    2223    2253       7
    2211    2217   -2223    2253       8    2211    2217   -2223    2253       9
    2211    2217   -2223    2253       6    2193    2190    2199    2205      30
    2184    2178    2175    2205      30    2184    2190   -2199    2205      30
    2178    2175    2205    2199      30    2178    2184    2190    2193      30
    2178    2184   -2190    2199      30    2175    2166    2160    2211      10
    2175    2178    2184    2190      30    2175    2205   -2199    2190      30
    2166    2160    2211    2214       3    2166    2160    2211    2217      16
    2166    2160   -2211    2217      17    2166    2160   -2211    2217       5
    2166    2160   -2211    2217       6    2166    2175    2178    2184      30
    2166    2175    2205    2199      30    2160    2166    2175    2178       3
    2160    2166    2175    2205       3    2160    2211    2217    2223       2
    2154    2160    2166    2175      10    2154    2160    2211    2214       3
    2154    2160    2211    2217      20    2154    2160   -2211    2217      21
    2154    2160   -2211    2217      22    2154    2160   -2211    2217       6
    2256    2253    2259    2262       2    2256    2253    2259    2289       2
    2253    2259    2262    2271       1    2253    2259   -2262    2271       4
    2253    2259   -2262    2271       5    2253    2259   -2262    2271       6
    2253    2259    2289    2280       1    2253    2259   -2289    2280       4
    2253    2259   -2289    2280       5    2253    2259   -2289    2280       6
    2253    2259    2289    2295       7    2253    2259   -2289    2295       8
    2253    2259   -2289    2295       9    2253    2259   -2289    2295       6
    2247    2229    2223    2253      10    2235    2229    2223    2253      10
    2229    2223    2253    2256       3    2229    2223    2253    2259      16
    2229    2223   -2253    2259      17    2229    2223   -2253    2259       5
    2229    2223   -2253    2259       6    2223    2253    2259    2262       2
    2223    2253    2259    2289       2    2217    2223    2229    2235      10
    2217    2223    2229    2247      10    2217    2223    2253    2256       3
    2217    2223    2253    2259      20    2217    2223   -2253    2259      21
    2217    2223   -2253    2259      22    2217    2223   -2253    2259       6
    2298    2295    2301    2307       2    2295    2301    2307    2313       1
    2295    2301   -2307    2313       4    2295    2301   -2307    2313       5
    2295    2301   -2307    2313       6    2295    2301    2307    2361       7
    2295    2301   -2307    2361       8    2295    2301   -2307    2361       9
    2295    2301   -2307    2361       6    2289    2295    2301    2307       2
    2280    2289    2295    2298       3    2280    2289    2295    2301      16
    2280    2289   -2295    2301      17    2280    2289   -2295    2301       5
    2280    2289   -2295    2301       6    2271    2262   -2259    2289       3
    2271    2280    2289    2295      10    2262    2259   -2289    2280       3
    2262    2259    2289    2295       3    2262    2271   -2280    2289      13
    2262    2271   -2280    2289      14    2262    2271   -2280    2289      15
    2259    2262   -2271    2280      10    2259    2289   -2280    2271      10
    2259    2289    2295    2298       3    2259    2289    2295    2301      20
    2259    2289   -2295    2301      21    2259    2289   -2295    2301      22
    2259    2289   -2295    2301       6    2364    2361    2367    2373       2
    2361    2367    2373    2379       1    2361    2367   -2373    2379       4
    2361    2367   -2373    2379       5    2361    2367   -2373    2379       6
    2361    2367    2373    2391       7    2361    2367   -2373    2391       8
    2361    2367   -2373    2391       9    2361    2367   -2373    2391       6
    2322    2313    2307    2361      10    2322    2331    2340    2349      10
    2313    2307    2361    2364       3    2313    2307    2361    2367      16
    2313    2307   -2361    2367      17    2313    2307   -2361    2367       5
    2313    2307   -2361    2367       6    2313    2322    2331    2340      13
    2313    2322   -2331    2340      14    2313    2322   -2331    2340      15
    2307    2313    2322    2331      13    2307    2313   -2322    2331      14
    2307    2313   -2322    2331      15    2307    2361    2367    2373       2
    2301    2307    2313    2322      10    2301    2307    2361    2364       3
    2301    2307    2361    2367      20    2301    2307   -2361    2367      21
    2301    2307   -2361    2367      22    2301    2307   -2361    2367       6
    2379    2373    2391    2394       3    2379    2373    2391    2397       3
    2367    2373    2391    2394       3    2367    2373    2391    2397       3
      12      27     -21     -24      36      33      84     -78     -81      36
      90     132    -126    -129      36     138     189    -174    -177      36
     153     165    -162    -168      36     195     240    -234    -237      36
     210     225    -219    -222      36     246     270    -264    -267      36
     276     300    -294    -297      36     306     342    -336    -339      36
     348     375    -369    -372      36     381     432    -426    -429      36
     438     462    -456    -459      36     468     495    -489    -492      36
     501     552    -546    -549      36     558     615    -609    -612      36
     582     597    -588    -591      37     576     603    -573    -564      37
     621     666    -660    -663      36     636     651    -645    -648      36
     672     723    -717    -720      36     729     780    -765    -768      36
     744     756    -753    -759      36     786     822    -816    -819      36
     792     807    -801    -804      36     828     885    -879    -882      36
     852     867    -858    -861      37     846     873    -843    -834      37
     891     915    -909    -912      36     921     954    -951    -957      36
     927     942    -936    -939      36     972    1026   -1020   -1023      36
     990    1014    -987    -978      37    1032    1074   -1068   -1071      36
    1080    1116   -1110   -1113      36    1086    1101   -1095   -1098      36
    1122    1167   -1161   -1164      36    1137    1152   -1146   -1149      36
    1173    1221   -1215   -1218      36    1179    1209   -1188   -1191      37
    1227    1278   -1272   -1275      36    1284    1308   -1302   -1305      36
    1314    1329   -1323   -1326      36    1335    1362   -1356   -1359      36
    1368    1416   -1410   -1413      36    1374    1404   -1383   -1386      37
    1422    1473   -1467   -1470      36    1479    1521   -1515   -1518      36
    1527    1578   -1563   -1566      36    1542    1554   -1551   -1557      36
    1584    1608   -1602   -1605      36    1614    1665   -1659   -1662      36
    1671    1728   -1722   -1725      36    1695    1710   -1701   -1704      37
    1689    1716   -1686   -1677      37    1734    1785   -1779   -1782      36
    1791    1833   -1827   -1830      36    1839    1863   -1857   -1860      36
    1869    1884   -1878   -1881      36    1890    1941   -1926   -1929      36
    1905    1917   -1914   -1920      36    1947    2013   -2007   -2010      36
    1980    1989   -1986   -1998      36    2019    2034   -2028   -2031      36
    2040    2094   -2088   -2091      36    2058    2082   -2055   -2046      37
    2100    2154   -2148   -2151      36    2118    2142   -2115   -2106      37
    2160    2217   -2211   -2214      36    2184    2199   -2190   -2193      37
    2178    2205   -2175   -2166      37    2223    2259   -2253   -2256      36
    2289    2301   -2295   -2298      36    2253    2262   -2259   -2289      38
    2307    2367   -2361   -2364      36    2373    2394   -2391   -2397      36
%FLAG EXCLUDED_ATOMS_LIST
%FORMAT(10I8)
       2       3       4       5       6       7       8       9      10       3
       4       5       6       7       8       4       5       6       7       8
       5       6       7       8       6       7       8       9      10      11
      12       7       8       9      10       8       9      10       9      10
      11      12      13      14      27      10      11      12      11      12
      13      14      15      16      20      27      28      29      12      13
      14      27      13      14      15      16      17      18      19      20
      21      22      23      27      28      29      30      31      14      15
      16      20      27      28      29      15      16      17      18      19
      20      21      22      23      24      25      26      27      28      29
      16      17      18      19      20      21      22      23      27      17
      18      19      20      21      22      23      27      18      19      20
      19      20      20      21      22      23      24      25      26      27
      22      23      24      25      26      23      24      25      26      24
      25      26      25      26      26       0      28      29      30      31
      32      33      43      29      30      31      30      31      32      33
      34      35      39      43      44      45      31      32      33      43
      32      33      34      35      36      37      38      39      40      41
      42      43      44      45      46      47      33      34      35      39
      43      44      45      34      35      36      37      38      39      40
      41      42      43      44      45      35      36      37      38      39
      40      41      42      43      36      37      38      39      40      41
      42      43      37      38      39      38      39      39      40      41
      42      43      41      42      42       0      44      45      46      47
      48      49      59      45      46      47      46      47      48      49
      50      51      52      59      60      64      47      48      49      59
      48      49      50      51      52      53      54      55      59      60
      64      65      66      49      50      51      52      59      60      64
      50      51      52      53      54      55      56      57      59      60
      64      51      52      53      54      55      59      52      53      54
      55      59      53      54      55      56      57      58      59      61
      62      63      54      55      56      57      55      56      57      56
      57      58      61      62      63      57      58      61      62      63
      58      61      62      63      61      60      64      65      66      67
      68      79      64      65      66       0      63       0      65      66
      67      68      69      70      71      79      80      81      66      67
      68      79      67      68      69      70      71      72      73      74
      79      80      81      82      83      68      69      70      71      79
      80      81      69      70      71      72      73      74      75      76
      79      80      81      70      71      72      73      74      79      71
      72      73      74      79      72      73      74      75      76      77
      78      79      73      74      75      76      74      75      76      75
      76      77      78      76      77      78      77      78      78       0
      80      81      82      83      84      85      89      81      82      83
      82      83      84      85      86      87      88      89      90      91
      83      84      85      89      84      85      86      87      88      89
      90      91      92      93     152      85      86      87      88      89
      90      91      86      87      88      89      90      91     149     152
      87      88      89     152      88      89     152      89     147     149
     150     151     152      90      91      92      93      94      95      99
      91      92      93      92      93      94      95      96      97      98
      99     100     101      93      94      95      99      94      95      96
      97      98      99     100     101     102     103     434      95      96
      97      98      99     100     101      96      97      98      99     100
     101     431     434      97      98      99     434      98      99     434
      99     429     431     432     433     434     100     101     102     103
     104     105     113     101     102     103     102     103     104     105
     106     107     111     113     114     115     103     104     105     113
     104     105     106     107     108     109     110     111     112     113
     114     115     116     117     105     106     107     111     113     114
     115     106     107     108     109     110     111     112     113     114
     115     107     108     109     110     111     112     113     108     109
     110     111     112     113     109     110     111     110     111     111
     112     113       0     114     115     116     117     118     119     124
     115     116     117     116     117     118     119     120     121     122
     124     125     126     117     118     119     124     118     119     120
     121     122     123     124     125     126     127     128     119     120
     121     122     124     125     126     120     121     122     123     124
     125     126     121     122     123     124     122     123     124     123
     124       0     125     126     127     128     129     130     143     126
     127     128     127     128     129     130     131     132     136     143
     144     145     128     129     130     143     129     130     131     132
     133     134     135     136     137     138     139     143     144     145
     146     147     130     131     132     136     143     144     145     131
     132     133     134     135     136     137     138     139     140     141
     142     143     144     145     132     133     134     135     136     137
     138     139     143     133     134     135     136     137     138     139
     143     134     135     136     135     136     136     137     138     139
     140     141     142     143     138     139     140     141     142     139
     140     141     142     140     141     142     141     142     142       0
     144     145     146     147     148     149     153     145     146     147
     146     147     148     149     150     151     152     153     154     155
     147     148     149     153     148     149     150     151     152     153
     154     155     156     157     149     150     151     152     153     154
     155     150     151     152     153     154     155     151     152     153
     152     153     153     154     155     156     157     158     159     164
     155     156     157     156     157     158     159     160     161     162
     164     165     166     157     158     159     164     158     159     160
     161     162     163     164     165     166     167     168     159     160
     161     162     164     165     166     160     161     162     163     164
     165     166     161     162     163     164     162     163     164     163
     164       0     165     166     167     168     169     170     183     166
     167     168     167     168     169     170     171     172     173     183
     184     185     168     169     170     183     169     170     171     172
     173     174     175     179     183     184     185     186     187     170
     171     172     173     183     184     185     171     172     173     174
     175     176     177     178     179     180     181     182     183     184
     185     172     173     174     175     179     183     173     174     175
     179     183     174     175     176     177     178     179     180     181
     182     183     175     176     177     178     179     180     181     182
     176     177     178     179     180     181     182     177     178     179
     178     179     179     180     181     182     181     182     182       0
     184     185     186     187     188     189     204     185     186     187
     186     187     188     189     190     191     192     204     205     206
     187     188     189     204     188     189     190     191     192     193
     202     204     205     206     207     208     189     190     191     192
     204     205     206     190     191     192     193     194     195     200
     202     203     204     205     206     191     192     193     202     204
     192     193     202     204     193     194     195     196     197     200
     201     202     203     204     194     195     196     197     198     200
     202     203     195     196     197     202     196     197     198     199
     200     201     202     197     198     200     198     199     200     201
     202     203     199     200     201     202     200     201     202     203
     202     203     203       0     205     206     207     208     209     210
     221     206     207     208     207     208     209     210     211     212
     213     221     222     223     208     209     210     221     209     210
     211     212     213     214     215     216     221     222     223     224
     225     210     211     212     213     221     222     223     211     212
     213     214     215     216     217     218     221     222     223     212
     213     214     215     216     221     213     214     215     216     221
     214     215     216     217     218     219     220     221     215     216
     217     218     216     217     218     217     218     219     220     218
     219     220     219     220     220       0     222     223     224     225
     226     227     240     223     224     225     224     225     226     227
     228     229     230     240     241     242     225     226     227     240
     226     227     228     229     230     231     232     236     240     241
     242     243     244     227     228     229     230     240     241     242
     228     229     230     231     232     233     234     235     236     237
     238     239     240     241     242     229     230     231     232     236
     240     230     231     232     236     240     231     232     233     234
     235     236     237     238     239     240     232     233     234     235
     236     237     238     239     233     234     235     236     237     238
     239     234     235     236     235     236     236     237     238     239
     238     239     239       0     241     242     243     244     245     246
     256     242     243     244     243     244     245     246     247     248
     249     256     257     261     244     245     246     256     245     246
     247     248     249     250     251     252     256     257     261     262
     263     246     247     248     249     256     257     261     247     248
     249     250     251     252     253     254     256     257     261     248
     249     250     251     252     256     249     250     251     252     256
     250     251     252     253     254     255     256     258     259     260
     251     252     253     254     252     253     254     253     254     255
     258     259     260     254     255     258     259     260     255     258
     259     260     258     257     261     262     263     264     265     273
     261     262     263       0     260       0     262     263     264     265
     266     267     268     273     274     275     263     264     265     273
     264     265     266     267     268     269     270     273     274     275
     276     277     265     266     267     268     273     274     275     266
     267     268     269     270     271     272     273     274     275     267
     268     269     270     273     268     269     270     273     269     270
     271     272     273     270     271     272     271     272     272       0
     274     275     276     277     278     279     294     275     276     277
     276     277     278     279     280     281     282     294     295     296
     277     278     279     294     278     279     280     281     282     283
     292     294     295     296     297     298     279     280     281     282
     294     295     296     280     281     282     283     284     285     290
     292     293     294     295     296     281     282     283     292     294
     282     283     292     294     283     284     285     286     287     290
     291     292     293     294     284     285     286     287     288     290
     292     293     285     286     287     292     286     287     288     289
     290     291     292     287     288     290     288     289     290     291
     292     293     289     290     291     292     290     291     292     293
     292     293     293       0     295     296     297     298     299     300
     304     296     297     298     297     298     299     300     301     302
     303     304     305     306     298     299     300     304     299     300
     301     302     303     304     305     306     307     308     619     300
     301     302     303     304     305     306     301     302     303     304
     305     306     616     619     302     303     304     619     303     304
     619     304     614     616     617     618     619     305     306     307
     308     309     310     318     306     307     308     307     308     309
     310     311     312     313     318     319     320     308     309     310
     318     309     310     311     312     313     314     315     318     319
     320     310     311     312     313     318     319     320     311     312
     313     314     315     316     317     318     319     320     312     313
     314     315     318     313     314     315     318     314     315     316
     317     318     315     316     317     316     317     317       0     319
     320     320       0     322     323     324     325     326     327     328
     329     330     341     342     343     323     324     325     326     327
     341     324     325     326     327     341     325     326     327     341
     326     327     328     329     330     331     339     341     342     343
     344     345     327     328     329     330     341     342     343     328
     329     330     331     332     333     337     339     340     341     342
     343     329     330     331     339     341     330     331     339     341
     331     332     333     334     335     337     338     339     340     341
     332     333     334     335     336     337     339     340     333     334
     335     339     334     335     336     337     338     339     335     336
     337     336     337     338     339     340     337     338     339     338
     339     340     339     340     340       0     342     343     344     345
     346     347     357     343     344     345     344     345     346     347
     348     349     353     357     358     359     345     346     347     357
     346     347     348     349     350     351     352     353     354     355
     356     357     358     359     360     361     347     348     349     353
     357     358     359     348     349     350     351     352     353     354
     355     356     357     358     359     349     350     351     352     353
     354     355     356     357     350     351     352     353     354     355
     356     357     351     352     353     352     353     353     354     355
     356     357     355     356     356       0     358     359     360     361
     362     363     371     359     360     361     360     361     362     363
     364     365     366     371     372     373     361     362     363     371
     362     363     364     365     366     367     368     371     372     373
     374     375     363     364     365     366     371     372     373     364
     365     366     367     368     369     370     371     372     373     365
     366     367     368     371     366     367     368     371     367     368
     369     370     371     368     369     370     369     370     370       0
     372     373     374     375     376     377     388     373     374     375
     374     375     376     377     378     379     380     388     389     390
     375     376     377     388     376     377     378     379     380     381
     382     383     388     389     390     391     392     377     378     379
     380     388     389     390     378     379     380     381     382     383
     384     385     388     389     390     379     380     381     382     383
     388     380     381     382     383     388     381     382     383     384
     385     386     387     388     382     383     384     385     383     384
     385     384     385     386     387     385     386     387     386     387
     387       0     389     390     391     392     393     394     406     390
     391     392     391     392     393     394     395     396     397     406
     407     408     392     393     394     406     393     394     395     396
     397     398     404     406     407     408     409     410     394     395
     396     397     406     407     408     395     396     397     398     399
     400     402     404     405     406     407     408     396     397     398
     404     406     397     398     404     406     398     399     400     401
     402     403     404     405     406     399     400     401     402     403
     404     405     400     401     402     404     401     402     403     404
     405     402     403     404     403     404     405     404     405     405
       0     407     408     409     410     411     412     425     408     409
     410     409     410     411     412     413     414     415     425     426
     427     410     411     412     425     411     412     413     414     415
     416     417     421     425     426     427     428     429     412     413
     414     415     425     426     427     413     414     415     416     417
     418     419     420     421     422     423     424     425     426     427
     414     415     416     417     421     425     415     416     417     421
     425     416     417     418     419     420     421     422     423     424
     425     417     418     419     420     421     422     423     424     418
     419     420     421     422     423     424     419     420     421     420
     421     421     422     423     424     423     424     424       0     426
     427     428     429     430     431     435     427     428     429     428
     429     430     431     432     433     434     435     436     437     429
     430     431     435     430     431     432     433     434     435     436
     437     438     439     431     432     433     434     435     436     437
     432     433     434     435     436     437     433     434     435     434
     435     435     436     437     438     439     440     441     442     437
     438     439     438     439     440     441     442     443     444     439
     440     441     442     440     441     442     443     444     445     446
     441     442     443     444     442     443     444     443     444     445
     446     447     448     453     444     445     446     445     446     447
     448     449     450     451     453     454     455     446     447     448
     453     447     448     449     450     451     452     453     454     455
     456     457     448     449     450     451     453     454     455     449
     450     451     452     453     454     455     450     451     452     453
     451     452     453     452     453       0     454     455     456     457
     458     459     471     455     456     457     456     457     458     459
     460     461     462     471     472     473     457     458     459     471
     458     459     460     461     462     463     469     471     472     473
     474     475     459     460     461     462     471     472     473     460
     461     462     463     464     465     467     469     470     471     472
     473     461     462     463     469     471     462     463     469     471
     463     464     465     466     467     468     469     470     471     464
     465     466     467     468     469     470     465     466     467     469
     466     467     468     469     470     467     468     469     468     469
     470     469     470     470       0     472     473     474     475     476
     477     490     473     474     475     474     475     476     477     478
     479     480     490     491     492     475     476     477     490     476
     477     478     479     480     481     482     486     490     491     492
     493     494     477     478     479     480     490     491     492     478
     479     480     481     482     483     484     485     486     487     488
     489     490     491     492     479     480     481     482     486     490
     480     481     482     486     490     481     482     483     484     485
     486     487     488     489     490     482     483     484     485     486
     487     488     489     483     484     485     486     487     488     489
     484     485     486     485     486     486     487     488     489     488
     489     489       0     491     492     493     494     495     496     506
     492     493     494     493     494     495     496     497     498     502
     506     507     508     494     495     496     506     495     496     497
     498     499     500     501     502     503     504     505     506     507
     508     509     510     496     497     498     502     506     507     508
     497     498     499     500     501     502     503     504     505     506
     507     508     498     499     500     501     502     503     504     505
     506     499     500     501     502     503     504     505     506     500
     501     502     501     502     502     503     504     505     506     504
     505     505       0     507     508     509     510     511     512     522
     508     509     510     509     510     511     512     513     514     515
     522     523     527     510     511     512     522     511     512     513
     514     515     516     517     518     522     523     527     528     529
     512     513     514     515     522     523     527     513     514     515
     516     517     518     519     520     522     523     527     514     515
     516     517     518     522     515     516     517     518     522     516
     517     518     519     520     521     522     524     525     526     517
     518     519     520     518     519     520     519     520     521     524
     525     526     520     521     524     525     526     521     524     525
     526     524     523     527     528     529     530     531     535     527
     528     529       0     526       0     528     529     530     531     532
     533     534     535     536     537     529     530     531     535     530
     531     532     533     534     535     536     537     538     539     531
     532     533     534     535     536     537     532     533     534     535
     536     537     533     534     535     534     535     535     536     537
     538     539     540     541     554     537     538     539     538     539
     540     541     542     543     544     554     555     556     539     540
     541     554     540     541     542     543     544     545     546     550
     554     555     556     557     558     541     542     543     544     554
     555     556     542     543     544     545     546     547     548     549
     550     551     552     553     554     555     556     543     544     545
     546     550     554     544     545     546     550     554     545     546
     547     548     549     550     551     552     553     554     546     547
     548     549     550     551     552     553     547     548     549     550
     551     552     553     548     549     550     549     550     550     551
     552     553     552     553     553       0     555     556     557     558
     559     560     575     556     557     558     557     558     559     560
     561     562     563     575     576     577     558     559     560     575
     559     560     561     562     563     564     573     575     576     577
     578     579     560     561     562     563     575     576     577     561
     562     563     564     565     566     571     573     574     575     576
     577     562     563     564     573     575     563     564     573     575
     564     565     566     567     568     571     572     573     574     575
     565     566     567     568     569     571     573     574     566     567
     568     573     567     568     569     570     571     572     573     568
     569     571     569     570     571     572     573     574     570     571
     572     573     571     572     573     574     573     574     574       0
     576     577     578     579     580     581     594     577     578     579
     578     579     580     581     582     583     584     594     595     596
     579     580     581     594     580     581     582     583     584     585
     586     590     594     595     596     597     598     581     582     583
     584     594     595     596     582     583     584     585     586     587
     588     589     590     591     592     593     594     595     596     583
     584     585     586     590     594     584     585     586     590     594
     585     586     587     588     589     590     591     592     593     594
     586     587     588     589     590     591     592     593     587     588
     589     590     591     592     593     588     589     590     589     590
     590     591     592     593     592     593     593       0     595     596
     597     598     599     600     610     596     597     598     597     598
     599     600     601     602     606     610     611     612     598     599
     600     610     599     600     601     602     603     604     605     606
     607     608     609     610     611     612     613     614     600     601
     602     606     610     611     612     601     602     603     604     605
     606     607     608     609     610     611     612     602     603     604
     605     606     607     608     609     610     603     604     605     606
     607     608     609     610     604     605     606     605     606     606
     607     608     609     610     608     609     609       0     611     612
     613     614     615     616     620     612     613     614     613     614
     615     616     617     618     619     620     621     622     614     615
     616     620     615     616     617     618     619     620     621     622
     623     624     616     617     618     619     620     621     622     617
     618     619     620     621     622     618     619     620     619     620
     620     621     622     623     624     625     626     627     622     623
     624     623     624     625     626     627     628     629     624     625
     626     627     625     626     627     628     629     630     631     626
     627     628     629     627     628     629     628     629     630     631
     632     633     643     629     630     631     630     631     632     633
     634     635     636     643     644     648     631     632     633     643
     632     633     634     635     636     637     638     639     643     644
     648     649     650     633     634     635     636     643     644     648
     634     635     636     637     638     639     640     641     643     644
     648     635     636     637     638     639     643     636     637     638
     639     643     637     638     639     640     641     642     643     645
     646     647     638     639     640     641     639     640     641     640
     641     642     645     646     647     641     642     645     646     647
     642     645     646     647     645     644     648     649     650     651
     652     670     648     649     650       0     647       0     649     650
     651     652     653     654     655     670     671     672     650     651
     652     670     651     652     653     654     655     656     657     658
     670     671     672     673     674     652     653     654     655     670
     671     672     653     654     655     656     657     658     659     660
     661     670     671     672     654     655     656     657     658     670
     655     656     657     658     670     656     657     658     659     660
     661     662     663     670     657     658     659     660     661     658
     659     660     661     659     660     661     662     663     664     667
     660     661     662     663     661     662     663     662     663     664
     665     666     667     668     669     663     664     667     664     665
     666     667     668     669     665     666     667     668     669     666
     667     667     668     669     669       0     671     672     673     674
     675     676     677     672     673     674     673     674     675     676
     677     678     679     674     675     676     677     675     676     677
     678     679     680     681     676     677     678     679     677     678
     679     678     679     680     681     682     683     697     679     680
     681     680     681     682     683     684     685     686     697     698
     699     681     682     683     697     682     683     684     685     686
     687     695     697     698     699     700     701     683     684     685
     686     697     698     699     684     685     686     687     688     689
     693     695     696     697     698     699     685     686     687     695
     697     686     687     695     697     687     688     689     690     691
     693     694     695     696     697     688     689     690     691     692
     693     695     696     689     690     691     695     690     691     692
     693     694     695     691     692     693     692     693     694     695
     696     693     694     695     694     695     696     695     696     696
       0     698     699     700     701     702     703     717     699     700
     701     700     701     702     703     704     705     706     717     718
     719     701     702     703     717     702     703     704     705     706
     707     715     717     718     719     720     721     703     704     705
     706     717     718     719     704     705     706     707     708     709
     713     715     716     717     718     719     705     706     707     715
     717     706     707     715     717     707     708     709     710     711
     713     714     715     716     717     708     709     710     711     712
     713     715     716     709     710     711     715     710     711     712
     713     714     715     711     712     713     712     713     714     715
     716     713     714     715     714     715     716     715     716     716
       0     718     719     720     721     722     723     738     719     720
     721     720     721     722     723     724     725     726     738     739
     740     721     722     723     738     722     723     724     725     726
     727     736     738     739     740     741     742     723     724     725
     726     738     739     740     724     725     726     727     728     729
     734     736     737     738     739     740     725     726     727     736
     738     726     727     736     738     727     728     729     730     731
     734     735     736     737     738     728     729     730     731     732
     734     736     737     729     730     731     736     730     731     732
     733     734     735     736     731     732     734     732     733     734
     735     736     737     733     734     735     736     734     735     736
     737     736     737     737       0     739     740     741     742     743
     744     752     740     741     742     741     742     743     744     745
     746     750     752     753     754     742     743     744     752     743
     744     745     746     747     748     749     750     751     752     753
     754     755     764     744     745     746     750     752     753     754
     745     746     747     748     749     750     751     752     753     754
     746     747     748     749     750     751     752     747     748     749
     750     751     752     748     749     750     749     750     750     751
     752       0     753     754     755     756     757     758     761     764
     765     766     754     755     764     755     756     757     758     759
     760     761     762     763     764     765     766     767     768     756
     757     758     759     760     761     762     763     764     765     766
     757     758     759     760     761     764     758     759     760     761
     764     759     760     761     762     763     764     765     766     760
     761     762     763     764     761     762     763     764     762     763
     764     765     766     767     768     763     764     765     766     764
     765     766     765     766     767     768     769     770     766     767
     768     767     768     769     770     771     772     788     768     769
     770     769     770     771     772     773     774     775     788     789
     790     770     771     772     788     771     772     773     774     775
     776     777     778     788     789     790     791     792     772     773
     774     775     788     789     790     773     774     775     776     777
     778     779     780     781     788     789     790     774     775     776
     777     778     788     775     776     777     778     788     776     777
     778     779     780     781     782     783     784     788     777     778
     779     780     781     778     779     780     781     779     780     781
     782     783     784     785     786     787     780     781     782     783
     784     781     782     783     784     782     783     784     785     786
     787     783     784     785     786     787     784     785     786     787
     785     786     787     786     787     787       0     789     790     791
     792     793     794     798     790     791     792     791     792     793
     794     795     796     797     798     799     800     792     793     794
     798     793     794     795     796     797     798     799     800     794
     795     796     797     798     799     800     795     796     797     798
     799     800     796     797     798     797     798     798     799     800
     800       0     802     803     803       0     805     806     806       0
     808     809     809       0     811     812     812       0     814     815
     815       0     817     818     818       0     820     821     821       0
     823     824     824       0     826     827     827       0     829     830
     830       0     832     833     833       0     835     836     836       0
     838     839     839       0     841     842     842       0     844     845
     845       0     847     848     848       0     850     851     851       0
     853     854     854       0     856     857     857       0     859     860
     860       0     862     863     863       0     865     866     866       0
     868     869     869       0     871     872     872       0     874     875
     875       0     877     878     878       0     880     881     881       0
     883     884     884       0     886     887     887       0     889     890
     890       0     892     893     893       0     895     896     896       0
     898     899     899       0     901     902     902       0     904     905
     905       0     907     908     908       0     910     911     911       0
     913     914     914       0     916     917     917       0     919     920
     920       0     922     923     923       0     925     926     926       0
     928     929     929       0     931     932     932       0     934     935
     935       0     937     938     938       0     940     941     941       0
     943     944     944       0     946     947     947       0     949     950
     950       0     952     953     953       0     955     956     956       0
     958     959     959       0     961     962     962       0     964     965
     965       0     967     968     968       0     970     971     971       0
     973     974     974       0     976     977     977       0     979     980
     980       0     982     983     983       0     985     986     986       0
     988     989     989       0     991     992     992       0     994     995
     995       0     997     998     998       0    1000    1001    1001       0
    1003    1004    1004       0    1006    1007    1007       0    1009    1010
    1010       0    1012    1013    1013       0    1015    1016    1016       0
    1018    1019    1019       0    1021    1022    1022       0    1024    1025
    1025       0    1027    1028    1028       0    1030    1031    1031       0
    1033    1034    1034       0    1036    1037    1037       0    1039    1040
    1040       0    1042    1043    1043       0    1045    1046    1046       0
    1048    1049    1049       0    1051    1052    1052       0    1054    1055
    1055       0    1057    1058    1058       0    1060    1061    1061       0
    1063    1064    1064       0    1066    1067    1067       0    1069    1070
    1070       0    1072    1073    1073       0    1075    1076    1076       0
    1078    1079    1079       0    1081    1082    1082       0    1084    1085
    1085       0    1087    1088    1088       0    1090    1091    1091       0
    1093    1094    1094       0    1096    1097    1097       0    1099    1100
    1100       0    1102    1103    1103       0    1105    1106    1106       0
    1108    1109    1109       0    1111    1112    1112       0    1114    1115
    1115       0    1117    1118    1118       0    1120    1121    1121       0
    1123    1124    1124       0    1126    1127    1127       0    1129    1130
    1130       0    1132    1133    1133       0    1135    1136    1136       0
    1138    1139    1139       0    1141    1142    1142       0    1144    1145
    1145       0    1147    1148    1148       0    1150    1151    1151       0
    1153    1154    1154       0    1156    1157    1157       0    1159    1160
    1160       0    1162    1163    1163       0    1165    1166    1166       0
    1168    1169    1169       0    1171    1172    1172       0    1174    1175
    1175       0    1177    1178    1178       0    1180    1181    1181       0
    1183    1184    1184       0    1186    1187    1187       0    1189    1190
    1190       0    1192    1193    1193       0    1195    1196    1196       0
    1198    1199    1199       0    1201    1202    1202       0    1204    1205
    1205       0    1207    1208    1208       0    1210    1211    1211       0
    1213    1214    1214       0    1216    1217    1217       0    1219    1220
    1220       0    1222    1223    1223       0    1225    1226    1226       0
    1228    1229    1229       0    1231    1232    1232       0    1234    1235
    1235       0    1237    1238    1238       0    1240    1241    1241       0
    1243    1244    1244       0    1246    1247    1247       0    1249    1250
    1250       0    1252    1253    1253       0    1255    1256    1256       0
    1258    1259    1259       0    1261    1262    1262       0    1264    1265
    1265       0    1267    1268    1268       0    1270    1271    1271       0
    1273    1274    1274       0    1276    1277    1277       0    1279    1280
    1280       0    1282    1283    1283       0    1285    1286    1286       0
    1288    1289    1289       0    1291    1292    1292       0    1294    1295
    1295       0    1297    1298    1298       0    1300    1301    1301       0
    1303    1304    1304       0    1306    1307    1307       0    1309    1310
    1310       0    1312    1313    1313       0    1315    1316    1316       0
    1318    1319    1319       0    1321    1322    1322       0    1324    1325
    1325       0    1327    1328    1328       0    1330    1331    1331       0
    1333    1334    1334       0    1336    1337    1337       0    1339    1340
    1340       0    1342    1343    1343       0    1345    1346    1346       0
    1348    1349    1349       0    1351    1352    1352       0    1354    1355
    1355       0    1357    1358    1358       0    1360    1361    1361       0
    1363    1364    1364       0    1366    1367    1367       0    1369    1370
    1370       0    1372    1373    1373       0    1375    1376    1376       0
    1378    1379    1379       0    1381    1382    1382       0    1384    1385
    1385       0    1387    1388    1388       0    1390    1391    1391       0
    1393    1394    1394       0    1396    1397    1397       0    1399    1400
    1400       0    1402    1403    1403       0    1405    1406    1406       0
    1408    1409    1409       0    1411    1412    1412       0    1414    1415
    1415       0    1417    1418    1418       0    1420    1421    1421       0
    1423    1424    1424       0    1426    1427    1427       0    1429    1430
    1430       0    1432    1433    1433       0    1435    1436    1436       0
    1438    1439    1439       0    1441    1442    1442       0    1444    1445
    1445       0    1447    1448    1448       0    1450    1451    1451       0
    1453    1454    1454       0    1456    1457    1457       0    1459    1460
    1460       0    1462    1463    1463       0    1465    1466    1466       0
    1468    1469    1469       0    1471    1472    1472       0    1474    1475
    1475       0    1477    1478    1478       0    1480    1481    1481       0
    1483    1484    1484       0    1486    1487    1487       0    1489    1490
    1490       0    1492    1493    1493       0    1495    1496    1496       0
    1498    1499    1499       0    1501    1502    1502       0    1504    1505
    1505       0    1507    1508    1508       0    1510    1511    1511       0
    1513    1514    1514       0    1516    1517    1517       0    1519    1520
    1520       0    1522    1523    1523       0    1525    1526    1526       0
    1528    1529    1529       0    1531    1532    1532       0    1534    1535
    1535       0    1537    1538    1538       0    1540    1541    1541       0
    1543    1544    1544       0    1546    1547    1547       0    1549    1550
    1550       0    1552    1553    1553       0    1555    1556    1556       0
    1558    1559    1559       0    1561    1562    1562       0    1564    1565
    1565       0    1567    1568    1568       0    1570    1571    1571       0
    1573    1574    1574       0    1576    1577    1577       0    1579    1580
    1580       0    1582    1583    1583       0    1585    1586    1586       0
    1588    1589    1589       0    1591    1592    1592       0    1594    1595
    1595       0    1597    1598    1598       0    1600    1601    1601       0
    1603    1604    1604       0    1606    1607    1607       0    1609    1610
    1610       0    1612    1613    1613       0    1615    1616    1616       0
    1618    1619    1619       0    1621    1622    1622       0    1624    1625
    1625       0    1627    1628    1628       0    1630    1631    1631       0
    1633    1634    1634       0    1636    1637    1637       0    1639    1640
    1640       0    1642    1643    1643       0    1645    1646    1646       0
    1648    1649    1649       0    1651    1652    1652       0    1654    1655
    1655       0    1657    1658    1658       0    1660    1661    1661       0
    1663    1664    1664       0    1666    1667    1667       0    1669    1670
    1670       0    1672    1673    1673       0    1675    1676    1676       0
    1678    1679    1679       0    1681    1682    1682       0    1684    1685
    1685       0    1687    1688    1688       0    1690    1691    1691       0
    1693    1694    1694       0    1696    1697    1697       0    1699    1700
    1700       0    1702    1703    1703       0    1705    1706    1706       0
    1708    1709    1709       0    1711    1712    1712       0    1714    1715
    1715       0    1717    1718    1718       0    1720    1721    1721       0
    1723    1724    1724       0    1726    1727    1727       0    1729    1730
    1730       0    1732    1733    1733       0    1735    1736    1736       0
    1738    1739    1739       0    1741    1742    1742       0    1744    1745
    1745       0    1747    1748    1748       0    1750    1751    1751       0
    1753    1754    1754       0    1756    1757    1757       0    1759    1760
    1760       0    1762    1763    1763       0    1765    1766    1766       0
    1768    1769    1769       0    1771    1772    1772       0    1774    1775
    1775       0    1777    1778    1778       0    1780    1781    1781       0
    1783    1784    1784       0    1786    1787    1787       0    1789    1790
    1790       0    1792    1793    1793       0    1795    1796    1796       0
    1798    1799    1799       0    1801    1802    1802       0    1804    1805
    1805       0    1807    1808    1808       0    1810    1811    1811       0
    1813    1814    1814       0    1816    1817    1817       0    1819    1820
    1820       0    1822    1823    1823       0    1825    1826    1826       0
    1828    1829    1829       0    1831    1832    1832       0    1834    1835
    1835       0    1837    1838    1838       0    1840    1841    1841       0
    1843    1844    1844       0    1846    1847    1847       0    1849    1850
    1850       0    1852    1853    1853       0    1855    1856    1856       0
    1858    1859    1859       0    1861    1862    1862       0    1864    1865
    1865       0    1867    1868    1868       0    1870    1871    1871       0
    1873    1874    1874       0    1876    1877    1877       0    1879    1880
    1880       0    1882    1883    1883       0    1885    1886    1886       0
    1888    1889    1889       0    1891    1892    1892       0    1894    1895
    1895       0    1897    1898    1898       0    1900    1901    1901       0
    1903    1904    1904       0    1906    1907    1907       0    1909    1910
    1910       0    1912    1913    1913       0    1915    1916    1916       0
    1918    1919    1919       0    1921    1922    1922       0    1924    1925
    1925       0    1927    1928    1928       0    1930    1931    1931       0
    1933    1934    1934       0    1936    1937    1937       0    1939    1940
    1940       0    1942    1943    1943       0    1945    1946    1946       0
    1948    1949    1949       0    1951    1952    1952       0    1954    1955
    1955       0    1957    1958    1958       0    1960    1961    1961       0
    1963    1964    1964       0    1966    1967    1967       0    1969    1970
    1970       0    1972    1973    1973       0    1975    1976    1976       0
    1978    1979    1979       0    1981    1982    1982       0    1984    1985
    1985       0    1987    1988    1988       0    1990    1991    1991       0
    1993    1994    1994       0    1996    1997    1997       0    1999    2000
    2000       0    2002    2003    2003       0    2005    2006    2006       0
    2008    2009    2009       0    2011    2012    2012       0    2014    2015
    2015       0    2017    2018    2018       0    2020    2021    2021       0
    2023    2024    2024       0    2026    2027    2027       0    2029    2030
    2030       0    2032    2033    2033       0    2035    2036    2036       0
    2038    2039    2039       0    2041    2042    2042       0    2044    2045
    2045       0    2047    2048    2048       0    2050    2051    2051       0
    2053    2054    2054       0    2056    2057    2057       0    2059    2060
    2060       0    2062    2063    2063       0    2065    2066    2066       0
    2068    2069    2069       0    2071    2072    2072       0    2074    2075
    2075       0    2077    2078    2078       0    2080    2081    2081       0
    2083    2084    2084       0    2086    2087    2087       0    2089    2090
    2090       0    2092    2093    2093       0    2095    2096    2096       0
    2098    2099    2099       0    2101    2102    2102       0    2104    2105
    2105       0    2107    2108    2108       0    2110    2111    2111       0
    2113    2114    2114       0    2116    2117    2117       0    2119    2120
    2120       0    2122    2123    2123       0    2125    2126    2126       0
    2128    2129    2129       0    2131    2132    2132       0    2134    2135
    2135       0    2137    2138    2138       0    2140    2141    2141       0
    2143    2144    2144       0    2146    2147    2147       0    2149    2150
    2150       0    2152    2153    2153       0    2155    2156    2156       0
    2158    2159    2159       0    2161    2162    2162       0    2164    2165
    2165       0    2167    2168    2168       0    2170    2171    2171       0
    2173    2174    2174       0    2176    2177    2177       0    2179    2180
    2180       0    2182    2183    2183       0    2185    2186    2186       0
    2188    2189    2189       0    2191    2192    2192       0    2194    2195
    2195       0    2197    2198    2198       0    2200    2201    2201       0
    2203    2204    2204       0    2206    2207    2207       0    2209    2210
    2210       0    2212    2213    2213       0    2215    2216    2216       0
    2218    2219    2219       0    2221    2222    2222       0    2224    2225
    2225       0    2227    2228    2228       0    2230    2231    2231       0
    2233    2234    2234       0    2236    2237    2237       0    2239    2240
    2240       0    2242    2243    2243       0    2245    2246    2246       0
    2248    2249    2249       0    2251    2252    2252       0    2254    2255
    2255       0    2257    2258    2258       0    2260    2261    2261       0
    2263    2264    2264       0    2266    2267    2267       0    2269    2270
    2270       0    2272    2273    2273       0    2275    2276    2276       0
    2278    2279    2279       0    2281    2282    2282       0    2284    2285
    2285       0    2287    2288    2288       0    2290    2291    2291       0
    2293    2294    2294       0    2296    2297    2297       0    2299    2300
    2300       0    2302    2303    2303       0    2305    2306    2306       0
    2308    2309    2309       0    2311    2312    2312       0    2314    2315
    2315       0    2317    2318    2318       0    2320    2321    2321       0
    2323    2324    2324       0    2326    2327    2327       0    2329    2330
    2330       0    2332    2333    2333       0    2335    2336    2336       0
    2338    2339    2339       0    2341    2342    2342       0    2344    2345
    2345       0    2347    2348    2348       0    2350    2351    2351       0
    2353    2354    2354       0    2356    2357    2357       0    2359    2360
    2360       0    2362    2363    2363       0    2365    2366    2366       0
    2368    2369    2369       0    2371    2372    2372       0    2374    2375
    2375       0    2377    2378    2378       0    2380    2381    2381       0
    2383    2384    2384       0    2386    2387    2387       0    2389    2390
    2390       0    2392    2393    2393       0    2395    2396    2396       0
    2398    2399    2399       0    2401    2402    2402       0    2404    2405
    2405       0    2407    2408    2408       0    2410    2411    2411       0
    2413    2414    2414       0    2416    2417    2417       0    2419    2420
    2420       0    2422    2423    2423       0    2425    2426    2426       0
    2428    2429    2429       0    2431    2432    2432       0    2434    2435
    2435       0    2437    2438    2438       0    2440    2441    2441       0
    2443    2444    2444       0    2446    2447    2447       0    2449    2450
    2450       0    2452    2453    2453       0    2455    2456    2456       0
    2458    2459    2459       0    2461    2462    2462       0    2464    2465
    2465       0    2467    2468    2468       0    2470    2471    2471       0
    2473    2474    2474       0    2476    2477    2477       0    2479    2480
    2480       0    2482    2483    2483       0    2485    2486    2486       0
    2488    2489    2489       0    2491    2492    2492       0    2494    2495
    2495       0    2497    2498    2498       0    2500    2501    2501       0
    2503    2504    2504       0    2506    2507    2507       0    2509    2510
    2510       0    2512    2513    2513       0    2515    2516    2516       0
    2518    2519    2519       0    2521    2522    2522       0    2524    2525
    2525       0    2527    2528    2528       0    2530    2531    2531       0
    2533    2534    2534       0    2536    2537    2537       0    2539    2540
    2540       0    2542    2543    2543       0    2545    2546    2546       0
    2548    2549    2549       0    2551    2552    2552       0    2554    2555
    2555       0    2557    2558    2558       0    2560    2561    2561       0
    2563    2564    2564       0    2566    2567    2567       0    2569    2570
    2570       0    2572    2573    2573       0    2575    2576    2576       0
    2578    2579    2579       0    2581    2582    2582       0    2584    2585
    2585       0    2587    2588    2588       0    2590    2591    2591       0
    2593    2594    2594       0    2596    2597    2597       0    2599    2600
    2600       0    2602    2603    2603       0    2605    2606    2606       0
    2608    2609    2609       0    2611    2612    2612       0    2614    2615
    2615       0    2617    2618    2618       0    2620    2621    2621       0
    2623    2624    2624       0    2626    2627    2627       0    2629    2630
    2630       0    2632    2633    2633       0    2635    2636    2636       0
    2638    2639    2639       0    2641    2642    2642       0    2644    2645
    2645       0    2647    2648    2648       0    2650    2651    2651       0
    2653    2654    2654       0    2656    2657    2657       0    2659    2660
    2660       0    2662    2663    2663       0    2665    2666    2666       0
    2668    2669    2669       0    2671    2672    2672       0    2674    2675
    2675       0    2677    2678    2678       0    2680    2681    2681       0
    2683    2684    2684       0    2686    2687    2687       0    2689    2690
    2690       0    2692    2693    2693       0    2695    2696    2696       0
    2698    2699    2699       0    2701    2702    2702       0    2704    2705
    2705       0    2707    2708    2708       0    2710    2711    2711       0
    2713    2714    2714       0    2716    2717    2717       0    2719    2720
    2720       0    2722    2723    2723       0    2725    2726    2726       0
    2728    2729    2729       0    2731    2732    2732       0    2734    2735
    2735       0    2737    2738    2738       0    2740    2741    2741       0
    2743    2744    2744       0    2746    2747    2747       0    2749    2750
    2750       0    2752    2753    2753       0    2755    2756    2756       0
    2758    2759    2759       0    2761    2762    2762       0    2764    2765
    2765       0    2767    2768    2768       0    2770    2771    2771       0
    2773    2774    2774       0    2776    2777    2777       0    2779    2780
    2780       0    2782    2783    2783       0    2785    2786    2786       0
    2788    2789    2789       0    2791    2792    2792       0    2794    2795
    2795       0    2797    2798    2798       0    2800    2801    2801       0
    2803    2804    2804       0    2806    2807    2807       0    2809    2810
    2810       0    2812    2813    2813       0    2815    2816    2816       0
    2818    2819    2819       0    2821    2822    2822       0    2824    2825
    2825       0    2827    2828    2828       0    2830    2831    2831       0
    2833    2834    2834       0    2836    2837    2837       0    2839    2840
    2840       0    2842    2843    2843       0    2845    2846    2846       0
    2848    2849    2849       0    2851    2852    2852       0    2854    2855
    2855       0    2857    2858    2858       0    2860    2861    2861       0
    2863    2864    2864       0    2866    2867    2867       0    2869    2870
    2870       0    2872    2873    2873       0    2875    2876    2876       0
    2878    2879    2879       0    2881    2882    2882       0    2884    2885
    2885       0    2887    2888    2888       0    2890    2891    2891       0
    2893    2894    2894       0    2896    2897    2897       0    2899    2900
    2900       0    2902    2903    2903       0    2905    2906    2906       0
    2908    2909    2909       0    2911    2912    2912       0    2914    2915
    2915       0    2917    2918    2918       0    2920    2921    2921       0
    2923    2924    2924       0    2926    2927    2927       0    2929    2930
    2930       0    2932    2933    2933       0    2935    2936    2936       0
    2938    2939    2939       0    2941    2942    2942       0    2944    2945
    2945       0    2947    2948    2948       0    2950    2951    2951       0
    2953    2954    2954       0    2956    2957    2957       0    2959    2960
    2960       0    2962    2963    2963       0    2965    2966    2966       0
    2968    2969    2969       0    2971    2972    2972       0    2974    2975
    2975       0    2977    2978    2978       0    2980    2981    2981       0
    2983    2984    2984       0    2986    2987    2987       0    2989    2990
    2990       0    2992    2993    2993       0    2995    2996    2996       0
    2998    2999    2999       0    3001    3002    3002       0    3004    3005
    3005       0    3007    3008    3008       0    3010    3011    3011       0
    3013    3014    3014       0    3016    3017    3017       0    3019    3020
    3020       0    3022    3023    3023       0    3025    3026    3026       0
    3028    3029    3029       0    3031    3032    3032       0    3034    3035
    3035       0    3037    3038    3038       0    3040    3041    3041       0
    3043    3044    3044       0    3046    3047    3047       0    3049    3050
    3050       0    3052    3053    3053       0    3055    3056    3056       0
    3058    3059    3059       0    3061    3062    3062       0    3064    3065
    3065       0    3067    3068    3068       0    3070    3071    3071       0
    3073    3074    3074       0    3076    3077    3077       0    3079    3080
    3080       0    3082    3083    3083       0    3085    3086    3086       0
    3088    3089    3089       0    3091    3092    3092       0    3094    3095
    3095       0    3097    3098    3098       0    3100    3101    3101       0
    3103    3104    3104       0    3106    3107    3107       0    3109    3110
    3110       0    3112    3113    3113       0    3115    3116    3116       0
    3118    3119    3119       0    3121    3122    3122       0    3124    3125
    3125       0    3127    3128    3128       0    3130    3131    3131       0
    3133    3134    3134       0    3136    3137    3137       0    3139    3140
    3140       0    3142    3143    3143       0    3145    3146    3146       0
    3148    3149    3149       0    3151    3152    3152       0    3154    3155
    3155       0    3157    3158    3158       0    3160    3161    3161       0
    3163    3164    3164       0    3166    3167    3167       0    3169    3170
    3170       0    3172    3173    3173       0    3175    3176    3176       0
    3178    3179    3179       0    3181    3182    3182       0    3184    3185
    3185       0    3187    3188    3188       0    3190    3191    3191       0
    3193    3194    3194       0    3196    3197    3197       0    3199    3200
    3200       0    3202    3203    3203       0    3205    3206    3206       0
    3208    3209    3209       0    3211    3212    3212       0    3214    3215
    3215       0    3217    3218    3218       0    3220    3221    3221       0
    3223    3224    3224       0    3226    3227    3227       0    3229    3230
    3230       0    3232    3233    3233       0    3235    3236    3236       0
    3238    3239    3239       0    3241    3242    3242       0    3244    3245
    3245       0    3247    3248    3248       0    3250    3251    3251       0
    3253    3254    3254       0    3256    3257    3257       0    3259    3260
    3260       0    3262    3263    3263       0    3265    3266    3266       0
    3268    3269    3269       0    3271    3272    3272       0    3274    3275
    3275       0    3277    3278    3278       0    3280    3281    3281       0
    3283    3284    3284       0    3286    3287    3287       0    3289    3290
    3290       0    3292    3293    3293       0    3295    3296    3296       0
    3298    3299    3299       0    3301    3302    3302       0    3304    3305
    3305       0    3307    3308    3308       0    3310    3311    3311       0
    3313    3314    3314       0    3316    3317    3317       0    3319    3320
    3320       0    3322    3323    3323       0    3325    3326    3326       0
    3328    3329    3329       0    3331    3332    3332       0    3334    3335
    3335       0    3337    3338    3338       0    3340    3341    3341       0
    3343    3344    3344       0    3346    3347    3347       0    3349    3350
    3350       0    3352    3353    3353       0    3355    3356    3356       0
    3358    3359    3359       0    3361    3362    3362       0    3364    3365
    3365       0    3367    3368    3368       0    3370    3371    3371       0
    3373    3374    3374       0    3376    3377    3377       0    3379    3380
    3380       0    3382    3383    3383       0    3385    3386    3386       0
    3388    3389    3389       0    3391    3392    3392       0    3394    3395
    3395       0    3397    3398    3398       0    3400    3401    3401       0
    3403    3404    3404       0    3406    3407    3407       0    3409    3410
    3410       0    3412    3413    3413       0    3415    3416    3416       0
    3418    3419    3419       0    3421    3422    3422       0    3424    3425
    3425       0    3427    3428    3428       0    3430    3431    3431       0
    3433    3434    3434       0    3436    3437    3437       0    3439    3440
    3440       0    3442    3443    3443       0    3445    3446    3446       0
    3448    3449    3449       0    3451    3452    3452       0    3454    3455
    3455       0    3457    3458    3458       0    3460    3461    3461       0
    3463    3464    3464       0    3466    3467    3467       0    3469    3470
    3470       0    3472    3473    3473       0    3475    3476    3476       0
    3478    3479    3479       0    3481    3482    3482       0    3484    3485
    3485       0    3487    3488    3488       0    3490    3491    3491       0
    3493    3494    3494       0    3496    3497    3497       0    3499    3500
    3500       0    3502    3503    3503       0    3505    3506    3506       0
    3508    3509    3509       0    3511    3512    3512       0    3514    3515
    3515       0    3517    3518    3518       0    3520    3521    3521       0
    3523    3524    3524       0    3526    3527    3527       0    3529    3530
    3530       0    3532    3533    3533       0    3535    3536    3536       0
    3538    3539    3539       0    3541    3542    3542       0    3544    3545
    3545       0    3547    3548    3548       0    3550    3551    3551       0
    3553    3554    3554       0    3556    3557    3557       0    3559    3560
    3560       0    3562    3563    3563       0    3565    3566    3566       0
    3568    3569    3569       0    3571    3572    3572       0    3574    3575
    3575       0    3577    3578    3578       0    3580    3581    3581       0
    3583    3584    3584       0    3586    3587    3587       0    3589    3590
    3590       0    3592    3593    3593       0    3595    3596    3596       0
    3598    3599    3599       0    3601    3602    3602       0    3604    3605
    3605       0    3607    3608    3608       0    3610    3611    3611       0
    3613    3614    3614       0    3616    3617    3617       0    3619    3620
    3620       0    3622    3623    3623       0    3625    3626    3626       0
    3628    3629    3629       0    3631    3632    3632       0    3634    3635
    3635       0    3637    3638    3638       0    3640    3641    3641       0
    3643    3644    3644       0    3646    3647    3647       0    3649    3650
    3650       0    3652    3653    3653       0    3655    3656    3656       0
    3658    3659    3659       0    3661    3662    3662       0    3664    3665
    3665       0    3667    3668    3668       0    3670    3671    3671       0
    3673    3674    3674       0    3676    3677    3677       0    3679    3680
    3680       0    3682    3683    3683       0    3685    3686    3686       0
    3688    3689    3689       0    3691    3692    3692       0    3694    3695
    3695       0    3697    3698    3698       0    3700    3701    3701       0
    3703    3704    3704       0    3706    3707    3707       0    3709    3710
    3710       0    3712    3713    3713       0    3715    3716    3716       0
    3718    3719    3719       0    3721    3722    3722       0    3724    3725
    3725       0    3727    3728    3728       0    3730    3731    3731       0
    3733    3734    3734       0    3736    3737    3737       0    3739    3740
    3740       0    3742    3743    3743       0    3745    3746    3746       0
    3748    3749    3749       0    3751    3752    3752       0    3754    3755
    3755       0    3757    3758    3758       0    3760    3761    3761       0
    3763    3764    3764       0    3766    3767    3767       0    3769    3770
    3770       0    3772    3773    3773       0    3775    3776    3776       0
    3778    3779    3779       0    3781    3782    3782       0    3784    3785
    3785       0    3787    3788    3788       0    3790    3791    3791       0
    3793    3794    3794       0    3796    3797    3797       0    3799    3800
    3800       0    3802    3803    3803       0    3805    3806    3806       0
    3808    3809    3809       0    3811    3812    3812       0    3814    3815
    3815       0    3817    3818    3818       0    3820    3821    3821       0
    3823    3824    3824       0    3826    3827    3827       0    3829    3830
    3830       0    3832    3833    3833       0    3835    3836    3836       0
    3838    3839    3839       0    3841    3842    3842       0    3844    3845
    3845       0    3847    3848    3848       0    3850    3851    3851       0
    3853    3854    3854       0    3856    3857    3857       0    3859    3860
    3860       0    3862    3863    3863       0    3865    3866    3866       0
    3868    3869    3869       0    3871    3872    3872       0    3874    3875
    3875       0    3877    3878    3878       0    3880    3881    3881       0
    3883    3884    3884       0    3886    3887    3887       0    3889    3890
    3890       0    3892    3893    3893       0    3895    3896    3896       0
    3898    3899    3899       0    3901    3902    3902       0    3904    3905
    3905       0    3907    3908    3908       0    3910    3911    3911       0
    3913    3914    3914       0    3916    3917    3917       0    3919    3920
    3920       0    3922    3923    3923       0    3925    3926    3926       0
    3928    3929    3929       0    3931    3932    3932       0    3934    3935
    3935       0    3937    3938    3938       0    3940    3941    3941       0
    3943    3944    3944       0    3946    3947    3947       0    3949    3950
    3950       0    3952    3953    3953       0    3955    3956    3956       0
    3958    3959    3959       0    3961    3962    3962       0    3964    3965
    3965       0    3967    3968    3968       0    3970    3971    3971       0
    3973    3974    3974       0    3976    3977    3977       0    3979    3980
    3980       0    3982    3983    3983       0    3985    3986    3986       0
    3988    3989    3989       0    3991    3992    3992       0    3994    3995
    3995       0    3997    3998    3998       0    4000    4001    4001       0
    4003    4004    4004       0    4006    4007    4007       0    4009    4010
    4010       0    4012    4013    4013       0    4015    4016    4016       0
    4018    4019    4019       0    4021    4022    4022       0    4024    4025
    4025       0    4027    4028    4028       0    4030    4031    4031       0
    4033    4034    4034       0    4036    4037    4037       0    4039    4040
    4040       0    4042    4043    4043       0    4045    4046    4046       0
    4048    4049    4049       0    4051    4052    4052       0    4054    4055
    4055       0    4057    4058    4058       0    4060    4061    4061       0
    4063    4064    4064       0    4066    4067    4067       0    4069    4070
    4070       0    4072    4073    4073       0    4075    4076    4076       0
    4078    4079    4079       0    4081    4082    4082       0    4084    4085
    4085       0    4087    4088    4088       0    4090    4091    4091       0
    4093    4094    4094       0    4096    4097    4097       0    4099    4100
    4100       0    4102    4103    4103       0    4105    4106    4106       0
    4108    4109    4109       0    4111    4112    4112       0    4114    4115
    4115       0    4117    4118    4118       0    4120    4121    4121       0
    4123    4124    4124       0    4126    4127    4127       0    4129    4130
    4130       0    4132    4133    4133       0    4135    4136    4136       0
    4138    4139    4139       0    4141    4142    4142       0    4144    4145
    4145       0    4147    4148    4148       0    4150    4151    4151       0
    4153    4154    4154       0    4156    4157    4157       0    4159    4160
    4160       0    4162    4163    4163       0    4165    4166    4166       0
    4168    4169    4169       0    4171    4172    4172       0    4174    4175
    4175       0    4177    4178    4178       0    4180    4181    4181       0
    4183    4184    4184       0    4186    4187    4187       0    4189    4190
    4190       0    4192    4193    4193       0    4195    4196    4196       0
    4198    4199    4199       0    4201    4202    4202       0    4204    4205
    4205       0    4207    4208    4208       0    4210    4211    4211       0
    4213    4214    4214       0    4216    4217    4217       0    4219    4220
    4220       0    4222    4223    4223       0    4225    4226    4226       0
    4228    4229    4229       0    4231    4232    4232       0    4234    4235
    4235       0    4237    4238    4238       0    4240    4241    4241       0
    4243    4244    4244       0    4246    4247    4247       0    4249    4250
    4250       0    4252    4253    4253       0    4255    4256    4256       0
    4258    4259    4259       0    4261    4262    4262       0    4264    4265
    4265       0    4267    4268    4268       0    4270    4271    4271       0
    4273    4274    4274       0    4276    4277    4277       0    4279    4280
    4280       0    4282    4283    4283       0    4285    4286    4286       0
    4288    4289    4289       0    4291    4292    4292       0    4294    4295
    4295       0    4297    4298    4298       0    4300    4301    4301       0
    4303    4304    4304       0    4306    4307    4307       0    4309    4310
    4310       0    4312    4313    4313       0    4315    4316    4316       0
    4318    4319    4319       0    4321    4322    4322       0    4324    4325
    4325       0    4327    4328    4328       0    4330    4331    4331       0
    4333    4334    4334       0    4336    4337    4337       0    4339    4340
    4340       0    4342    4343    4343       0    4345    4346    4346       0
    4348    4349    4349       0    4351    4352    4352       0    4354    4355
    4355       0    4357    4358    4358       0    4360    4361    4361       0
    4363    4364    4364       0    4366    4367    4367       0    4369    4370
    4370       0    4372    4373    4373       0    4375    4376    4376       0
    4378    4379    4379       0    4381    4382    4382       0    4384    4385
    4385       0    4387    4388    4388       0    4390    4391    4391       0
    4393    4394    4394       0    4396    4397    4397       0    4399    4400
    4400       0    4402    4403    4403       0    4405    4406    4406       0
    4408    4409    4409       0    4411    4412    4412       0    4414    4415
    4415       0    4417    4418    4418       0    4420    4421    4421       0
    4423    4424    4424       0    4426    4427    4427       0    4429    4430
    4430       0    4432    4433    4433       0    4435    4436    4436       0
    4438    4439    4439       0    4441    4442    4442       0    4444    4445
    4445       0    4447    4448    4448       0    4450    4451    4451       0
    4453    4454    4454       0    4456    4457    4457       0    4459    4460
    4460       0    4462    4463    4463       0    4465    4466    4466       0
    4468    4469    4469       0    4471    4472    4472       0    4474    4475
    4475       0    4477    4478    4478       0    4480    4481    4481       0
    4483    4484    4484       0    4486    4487    4487       0    4489    4490
    4490       0    4492    4493    4493       0    4495    4496    4496       0
    4498    4499    4499       0    4501    4502    4502       0    4504    4505
    4505       0    4507    4508    4508       0    4510    4511    4511       0
    4513    4514    4514       0    4516    4517    4517       0    4519    4520
    4520       0    4522    4523    4523       0    4525    4526    4526       0
    4528    4529    4529       0    4531    4532    4532       0    4534    4535
    4535       0    4537    4538    4538       0    4540    4541    4541       0
    4543    4544    4544       0    4546    4547    4547       0    4549    4550
    4550       0    4552    4553    4553       0    4555    4556    4556       0
    4558    4559    4559       0    4561    4562    4562       0    4564    4565
    4565       0    4567    4568    4568       0    4570    4571    4571       0
    4573    4574    4574       0    4576    4577    4577       0    4579    4580
    4580       0    4582    4583    4583       0    4585    4586    4586       0
    4588    4589    4589       0    4591    4592    4592       0    4594    4595
    4595       0    4597    4598    4598       0    4600    4601    4601       0
    4603    4604    4604       0    4606    4607    4607       0    4609    4610
    4610       0    4612    4613    4613       0    4615    4616    4616       0
    4618    4619    4619       0    4621    4622    4622       0    4624    4625
    4625       0    4627    4628    4628       0    4630    4631    4631       0
    4633    4634    4634       0    4636    4637    4637       0    4639    4640
    4640       0    4642    4643    4643       0    4645    4646    4646       0
    4648    4649    4649       0    4651    4652    4652       0    4654    4655
    4655       0    4657    4658    4658       0    4660    4661    4661       0
    4663    4664    4664       0    4666    4667    4667       0    4669    4670
    4670       0    4672    4673    4673       0    4675    4676    4676       0
    4678    4679    4679       0    4681    4682    4682       0    4684    4685
    4685       0    4687    4688    4688       0    4690    4691    4691       0
    4693    4694    4694       0    4696    4697    4697       0    4699    4700
    4700       0    4702    4703    4703       0    4705    4706    4706       0
    4708    4709    4709       0    4711    4712    4712       0    4714    4715
    4715       0    4717    4718    4718       0    4720    4721    4721       0
    4723    4724    4724       0    4726    4727    4727       0    4729    4730
    4730       0    4732    4733    4733       0    4735    4736    4736       0
    4738    4739    4739       0    4741    4742    4742       0    4744    4745
    4745       0    4747    4748    4748       0    4750    4751    4751       0
    4753    4754    4754       0    4756    4757    4757       0    4759    4760
    4760       0    4762    4763    4763       0    4765    4766    4766       0
    4768    4769    4769       0    4771    4772    4772       0    4774    4775
    4775       0    4777    4778    4778       0    4780    4781    4781       0
    4783    4784    4784       0    4786    4787    4787       0    4789    4790
    4790       0    4792    4793    4793       0    4795    4796    4796       0
    4798    4799    4799       0    4801    4802    4802       0    4804    4805
    4805       0    4807    4808    4808       0    4810    4811    4811       0
    4813    4814    4814       0    4816    4817    4817       0    4819    4820
    4820       0    4822    4823    4823       0    4825    4826    4826       0
    4828    4829    4829       0    4831    4832    4832       0    4834    4835
    4835       0    4837    4838    4838       0    4840    4841    4841       0
    4843    4844    4844       0    4846    4847    4847       0    4849    4850
    4850       0    4852    4853    4853       0    4855    4856    4856       0
    4858    4859    4859       0    4861    4862    4862       0    4864    4865
    4865       0    4867    4868    4868       0    4870    4871    4871       0
    4873    4874    4874       0    4876    4877    4877       0    4879    4880
    4880       0    4882    4883    4883       0    4885    4886    4886       0
    4888    4889    4889       0    4891    4892    4892       0    4894    4895
    4895       0    4897    4898    4898       0    4900    4901    4901       0
    4903    4904    4904       0    4906    4907    4907       0    4909    4910
    4910       0    4912    4913    4913       0    4915    4916    4916       0
    4918    4919    4919       0    4921    4922    4922       0    4924    4925
    4925       0    4927    4928    4928       0    4930    4931    4931       0
    4933    4934    4934       0    4936    4937    4937       0    4939    4940
    4940       0    4942    4943    4943       0    4945    4946    4946       0
    4948    4949    4949       0    4951    4952    4952       0    4954    4955
    4955       0    4957    4958    4958       0    4960    4961    4961       0
    4963    4964    4964       0    4966    4967    4967       0    4969    4970
    4970       0    4972    4973    4973       0    4975    4976    4976       0
    4978    4979    4979       0    4981    4982    4982       0    4984    4985
    4985       0    4987    4988    4988       0    4990    4991    4991       0
    4993    4994    4994       0    4996    4997    4997       0    4999    5000
    5000       0    5002    5003    5003       0    5005    5006    5006       0
    5008    5009    5009       0    5011    5012    5012       0    5014    5015
    5015       0    5017    5018    5018       0    5020    5021    5021       0
    5023    5024    5024       0    5026    5027    5027       0    5029    5030
    5030       0    5032    5033    5033       0    5035    5036    5036       0
    5038    5039    5039       0    5041    5042    5042       0    5044    5045
    5045       0    5047    5048    5048       0    5050    5051    5051       0
    5053    5054    5054       0    5056    5057    5057       0    5059    5060
    5060       0    5062    5063    5063       0    5065    5066    5066       0
    5068    5069    5069       0    5071    5072    5072       0    5074    5075
    5075       0    5077    5078    5078       0    5080    5081    5081       0
    5083    5084    5084       0    5086    5087    5087       0    5089    5090
    5090       0    5092    5093    5093       0    5095    5096    5096       0
    5098    5099    5099       0    5101    5102    5102       0    5104    5105
    5105       0    5107    5108    5108       0    5110    5111    5111       0
    5113    5114    5114       0    5116    5117    5117       0    5119    5120
    5120       0    5122    5123    5123       0    5125    5126    5126       0
    5128    5129    5129       0    5131    5132    5132       0    5134    5135
    5135       0    5137    5138    5138       0    5140    5141    5141       0
    5143    5144    5144       0    5146    5147    5147       0    5149    5150
    5150       0    5152    5153    5153       0    5155    5156    5156       0
    5158    5159    5159       0    5161    5162    5162       0    5164    5165
    5165       0    5167    5168    5168       0    5170    5171    5171       0
    5173    5174    5174       0    5176    5177    5177       0    5179    5180
    5180       0    5182    5183    5183       0    5185    5186    5186       0
    5188    5189    5189       0    5191    5192    5192       0    5194    5195
    5195       0    5197    5198    5198       0    5200    5201    5201       0
    5203    5204    5204       0    5206    5207    5207       0    5209    5210
    5210       0    5212    5213    5213       0    5215    5216    5216       0
    5218    5219    5219       0    5221    5222    5222       0    5224    5225
    5225       0    5227    5228    5228       0    5230    5231    5231       0
    5233    5234    5234       0    5236    5237    5237       0    5239    5240
    5240       0    5242    5243    5243       0    5245    5246    5246       0
    5248    5249    5249       0    5251    5252    5252       0    5254    5255
    5255       0    5257    5258    5258       0    5260    5261    5261       0
    5263    5264    5264       0    5266    5267    5267       0    5269    5270
    5270       0    5272    5273    5273       0    5275    5276    5276       0
    5278    5279    5279       0    5281    5282    5282       0    5284    5285
    5285       0    5287    5288    5288       0    5290    5291    5291       0
    5293    5294    5294       0    5296    5297    5297       0    5299    5300
    5300       0    5302    5303    5303       0    5305    5306    5306       0
    5308    5309    5309       0    5311    5312    5312       0    5314    5315
    5315       0    5317    5318    5318       0    5320    5321    5321       0
    5323    5324    5324       0    5326    5327    5327       0    5329    5330
    5330       0    5332    5333    5333       0    5335    5336    5336       0
    5338    5339    5339       0    5341    5342    5342       0    5344    5345
    5345       0    5347    5348    5348       0    5350    5351    5351       0
    5353    5354    5354       0    5356    5357    5357       0    5359    5360
    5360       0    5362    5363    5363       0    5365    5366    5366       0
    5368    5369    5369       0    5371    5372    5372       0    5374    5375
    5375       0    5377    5378    5378       0    5380    5381    5381       0
    5383    5384    5384       0    5386    5387    5387       0    5389    5390
    5390       0    5392    5393    5393       0    5395    5396    5396       0
    5398    5399    5399       0    5401    5402    5402       0    5404    5405
    5405       0    5407    5408    5408       0    5410    5411    5411       0
    5413    5414    5414       0    5416    5417    5417       0    5419    5420
    5420       0    5422    5423    5423       0    5425    5426    5426       0
    5428    5429    5429       0    5431    5432    5432       0    5434    5435
    5435       0    5437    5438    5438       0    5440    5441    5441       0
    5443    5444    5444       0    5446    5447    5447       0    5449    5450
    5450       0    5452    5453    5453       0    5455    5456    5456       0
    5458    5459    5459       0    5461    5462    5462       0    5464    5465
    5465       0    5467    5468    5468       0    5470    5471    5471       0
    5473    5474    5474       0    5476    5477    5477       0    5479    5480
    5480       0    5482    5483    5483       0    5485    5486    5486       0
    5488    5489    5489       0    5491    5492    5492       0    5494    5495
    5495       0    5497    5498    5498       0    5500    5501    5501       0
    5503    5504    5504       0    5506    5507    5507       0    5509    5510
    5510       0    5512    5513    5513       0    5515    5516    5516       0
    5518    5519    5519       0    5521    5522    5522       0    5524    5525
    5525       0    5527    5528    5528       0    5530    5531    5531       0
    5533    5534    5534       0    5536    5537    5537       0    5539    5540
    5540       0    5542    5543    5543       0    5545    5546    5546       0
    5548    5549    5549       0    5551    5552    5552       0    5554    5555
    5555       0    5557    5558    5558       0    5560    5561    5561       0
    5563    5564    5564       0    5566    5567    5567       0    5569    5570
    5570       0    5572    5573    5573       0    5575    5576    5576       0
    5578    5579    5579       0    5581    5582    5582       0    5584    5585
    5585       0    5587    5588    5588       0    5590    5591    5591       0
    5593    5594    5594       0    5596    5597    5597       0    5599    5600
    5600       0    5602    5603    5603       0    5605    5606    5606       0
    5608    5609    5609       0    5611    5612    5612       0    5614    5615
    5615       0    5617    5618    5618       0    5620    5621    5621       0
    5623    5624    5624       0    5626    5627    5627       0    5629    5630
    5630       0    5632    5633    5633       0    5635    5636    5636       0
    5638    5639    5639       0    5641    5642    5642       0    5644    5645
    5645       0    5647    5648    5648       0    5650    5651    5651       0
    5653    5654    5654       0    5656    5657    5657       0    5659    5660
    5660       0    5662    5663    5663       0    5665    5666    5666       0
    5668    5669    5669       0    5671    5672    5672       0    5674    5675
    5675       0    5677    5678    5678       0    5680    5681    5681       0
    5683    5684    5684       0    5686    5687    5687       0    5689    5690
    5690       0    5692    5693    5693       0    5695    5696    5696       0
    5698    5699    5699       0    5701    5702    5702       0    5704    5705
    5705       0    5707    5708    5708       0    5710    5711    5711       0
    5713    5714    5714       0    5716    5717    5717       0    5719    5720
    5720       0    5722    5723    5723       0    5725    5726    5726       0
    5728    5729    5729       0    5731    5732    5732       0    5734    5735
    5735       0    5737    5738    5738       0    5740    5741    5741       0
    5743    5744    5744       0    5746    5747    5747       0    5749    5750
    5750       0    5752    5753    5753       0    5755    5756    5756       0
    5758    5759    5759       0    5761    5762    5762       0    5764    5765
    5765       0    5767    5768    5768       0    5770    5771    5771       0
    5773    5774    5774       0    5776    5777    5777       0    5779    5780
    5780       0    5782    5783    5783       0    5785    5786    5786       0
    5788    5789    5789       0    5791    5792    5792       0    5794    5795
    5795       0    5797    5798    5798       0    5800    5801    5801       0
    5803    5804    5804       0    5806    5807    5807       0    5809    5810
    5810       0    5812    5813    5813       0    5815    5816    5816       0
    5818    5819    5819       0    5821    5822    5822       0    5824    5825
    5825       0    5827    5828    5828       0    5830    5831    5831       0
    5833    5834    5834       0    5836    5837    5837       0    5839    5840
    5840       0    5842    5843    5843       0    5845    5846    5846       0
    5848    5849    5849       0    5851    5852    5852       0    5854    5855
    5855       0    5857    5858    5858       0    5860    5861    5861       0
    5863    5864    5864       0    5866    5867    5867       0    5869    5870
    5870       0    5872    5873    5873       0    5875    5876    5876       0
    5878    5879    5879       0    5881    5882    5882       0    5884    5885
    5885       0    5887    5888    5888       0    5890    5891    5891       0
    5893    5894    5894       0    5896    5897    5897       0    5899    5900
    5900       0    5902    5903    5903       0    5905    5906    5906       0
    5908    5909    5909       0    5911    5912    5912       0    5914    5915
    5915       0    5917    5918    5918       0    5920    5921    5921       0
    5923    5924    5924       0    5926    5927    5927       0    5929    5930
    5930       0    5932    5933    5933       0    5935    5936    5936       0
    5938    5939    5939       0    5941    5942    5942       0    5944    5945
    5945       0    5947    5948    5948       0    5950    5951    5951       0
    5953    5954    5954       0    5956    5957    5957       0    5959    5960
    5960       0    5962    5963    5963       0    5965    5966    5966       0
    5968    5969    5969       0    5971    5972    5972       0    5974    5975
    5975       0    5977    5978    5978       0    5980    5981    5981       0
    5983    5984    5984       0    5986    5987    5987       0    5989    5990
    5990       0    5992    5993    5993       0    5995    5996    5996       0
    5998    5999    5999       0    6001    6002    6002       0    6004    6005
    6005       0    6007    6008    6008       0    6010    6011    6011       0
    6013    6014    6014       0    6016    6017    6017       0    6019    6020
    6020       0    6022    6023    6023       0    6025    6026    6026       0
    6028    6029    6029       0    6031    6032    6032       0    6034    6035
    6035       0    6037    6038    6038       0    6040    6041    6041       0
    6043    6044    6044       0    6046    6047    6047       0    6049    6050
    6050       0    6052    6053    6053       0    6055    6056    6056       0
    6058    6059    6059       0    6061    6062    6062       0    6064    6065
    6065       0    6067    6068    6068       0    6070    6071    6071       0
    6073    6074    6074       0    6076    6077    6077       0    6079    6080
    6080       0    6082    6083    6083       0    6085    6086    6086       0
    6088    6089    6089       0    6091    6092    6092       0    6094    6095
    6095       0    6097    6098    6098       0    6100    6101    6101       0
    6103    6104    6104       0    6106    6107    6107       0    6109    6110
    6110       0    6112    6113    6113       0    6115    6116    6116       0
    6118    6119    6119       0    6121    6122    6122       0    6124    6125
    6125       0    6127    6128    6128       0    6130    6131    6131       0
    6133    6134    6134       0    6136    6137    6137       0    6139    6140
    6140       0    6142    6143    6143       0    6145    6146    6146       0
    6148    6149    6149       0    6151    6152    6152       0    6154    6155
    6155       0    6157    6158    6158       0    6160    6161    6161       0
    6163    6164    6164       0    6166    6167    6167       0    6169    6170
    6170       0    6172    6173    6173       0    6175    6176    6176       0
    6178    6179    6179       0    6181    6182    6182       0    6184    6185
    6185       0    6187    6188    6188       0    6190    6191    6191       0
    6193    6194    6194       0    6196    6197    6197       0    6199    6200
    6200       0    6202    6203    6203       0    6205    6206    6206       0
    6208    6209    6209       0    6211    6212    6212       0    6214    6215
    6215       0    6217    6218    6218       0    6220    6221    6221       0
    6223    6224    6224       0    6226    6227    6227       0    6229    6230
    6230       0    6232    6233    6233       0    6235    6236    6236       0
    6238    6239    6239       0    6241    6242    6242       0    6244    6245
    6245       0    6247    6248    6248       0    6250    6251    6251       0
    6253    6254    6254       0    6256    6257    6257       0    6259    6260
    6260       0    6262    6263    6263       0    6265    6266    6266       0
    6268    6269    6269       0    6271    6272    6272       0    6274    6275
    6275       0    6277    6278    6278       0    6280    6281    6281       0
    6283    6284    6284       0    6286    6287    6287       0    6289    6290
    6290       0    6292    6293    6293       0    6295    6296    6296       0
    6298    6299    6299       0    6301    6302    6302       0    6304    6305
    6305       0    6307    6308    6308       0    6310    6311    6311       0
    6313    6314    6314       0    6316    6317    6317       0    6319    6320
    6320       0    6322    6323    6323       0    6325    6326    6326       0
    6328    6329    6329       0    6331    6332    6332       0    6334    6335
    6335       0    6337    6338    6338       0    6340    6341    6341       0
    6343    6344    6344       0    6346    6347    6347       0    6349    6350
    6350       0    6352    6353    6353       0    6355    6356    6356       0
    6358    6359    6359       0    6361    6362    6362       0    6364    6365
    6365       0    6367    6368    6368       0    6370    6371    6371       0
    6373    6374    6374       0    6376    6377    6377       0    6379    6380
    6380       0    6382    6383    6383       0    6385    6386    6386       0
    6388    6389    6389       0    6391    6392    6392       0    6394    6395
    6395       0    6397    6398    6398       0    6400    6401    6401       0
    6403    6404    6404       0    6406    6407    6407       0    6409    6410
    6410       0    6412    6413    6413       0    6415    6416    6416       0
    6418    6419    6419       0    6421    6422    6422       0    6424    6425
    6425       0    6427    6428    6428       0    6430    6431    6431       0
    6433    6434    6434       0    6436    6437    6437       0    6439    6440
    6440       0    6442    6443    6443       0    6445    6446    6446       0
    6448    6449    6449       0    6451    6452    6452       0    6454    6455
    6455       0    6457    6458    6458       0    6460    6461    6461       0
    6463    6464    6464       0    6466    6467    6467       0    6469    6470
    6470       0    6472    6473    6473       0    6475    6476    6476       0
    6478    6479    6479       0    6481    6482    6482       0    6484    6485
    6485       0    6487    6488    6488       0    6490    6491    6491       0
    6493    6494    6494       0    6496    6497    6497       0    6499    6500
    6500       0    6502    6503    6503       0    6505    6506    6506       0
    6508    6509    6509       0    6511    6512    6512       0    6514    6515
    6515       0    6517    6518    6518       0    6520    6521    6521       0
    6523    6524    6524       0    6526    6527    6527       0    6529    6530
    6530       0    6532    6533    6533       0    6535    6536    6536       0
    6538    6539    6539       0    6541    6542    6542       0    6544    6545
    6545       0    6547    6548    6548       0    6550    6551    6551       0
    6553    6554    6554       0    6556    6557    6557       0    6559    6560
    6560       0    6562    6563    6563       0    6565    6566    6566       0
    6568    6569    6569       0    6571    6572    6572       0    6574    6575
    6575       0    6577    6578    6578       0    6580    6581    6581       0
    6583    6584    6584       0    6586    6587    6587       0    6589    6590
    6590       0    6592    6593    6593       0    6595    6596    6596       0
    6598    6599    6599       0    6601    6602    6602       0    6604    6605
    6605       0    6607    6608    6608       0    6610    6611    6611       0
    6613    6614    6614       0    6616    6617    6617       0    6619    6620
    6620       0    6622    6623    6623       0    6625    6626    6626       0
    6628    6629    6629       0    6631    6632    6632       0    6634    6635
    6635       0    6637    6638    6638       0    6640    6641    6641       0
    6643    6644    6644       0    6646    6647    6647       0    6649    6650
    6650       0    6652    6653    6653       0    6655    6656    6656       0
    6658    6659    6659       0    6661    6662    6662       0    6664    6665
    6665       0    6667    6668    6668       0    6670    6671    6671       0
    6673    6674    6674       0    6676    6677    6677       0    6679    6680
    6680       0    6682    6683    6683       0    6685    6686    6686       0
    6688    6689    6689       0    6691    6692    6692       0    6694    6695
    6695       0    6697    6698    6698       0    6700    6701    6701       0
    6703    6704    6704       0    6706    6707    6707       0    6709    6710
    6710       0    6712    6713    6713       0    6715    6716    6716       0
    6718    6719    6719       0    6721    6722    6722       0    6724    6725
    6725       0    6727    6728    6728       0    6730    6731    6731       0
    6733    6734    6734       0    6736    6737    6737       0    6739    6740
    6740       0    6742    6743    6743       0    6745    6746    6746       0
    6748    6749    6749       0    6751    6752    6752       0    6754    6755
    6755       0    6757    6758    6758       0    6760    6761    6761       0
    6763    6764    6764       0    6766    6767    6767       0    6769    6770
    6770       0    6772    6773    6773       0    6775    6776    6776       0
    6778    6779    6779       0    6781    6782    6782       0    6784    6785
    6785       0    6787    6788    6788       0    6790    6791    6791       0
    6793    6794    6794       0    6796    6797    6797       0    6799    6800
    6800       0    6802    6803    6803       0    6805    6806    6806       0
    6808    6809    6809       0    6811    6812    6812       0    6814    6815
    6815       0    6817    6818    6818       0    6820    6821    6821       0
    6823    6824    6824       0    6826    6827    6827       0    6829    6830
    6830       0    6832    6833    6833       0    6835    6836    6836       0
    6838    6839    6839       0    6841    6842    6842       0    6844    6845
    6845       0    6847    6848    6848       0    6850    6851    6851       0
    6853    6854    6854       0    6856    6857    6857       0    6859    6860
    6860       0    6862    6863    6863       0    6865    6866    6866       0
    6868    6869    6869       0    6871    6872    6872       0    6874    6875
    6875       0    6877    6878    6878       0    6880    6881    6881       0
    6883    6884    6884       0    6886    6887    6887       0    6889    6890
    6890       0    6892    6893    6893       0    6895    6896    6896       0
    6898    6899    6899       0    6901    6902    6902       0    6904    6905
    6905       0    6907    6908    6908       0    6910    6911    6911       0
    6913    6914    6914       0    6916    6917    6917       0    6919    6920
    6920       0    6922    6923    6923       0    6925    6926    6926       0
    6928    6929    6929       0    6931    6932    6932       0    6934    6935
    6935       0    6937    6938    6938       0    6940    6941    6941       0
    6943    6944    6944       0    6946    6947    6947       0    6949    6950
    6950       0    6952    6953    6953       0    6955    6956    6956       0
    6958    6959    6959       0    6961    6962    6962       0    6964    6965
    6965       0    6967    6968    6968       0    6970    6971    6971       0
    6973    6974    6974       0    6976    6977    6977       0    6979    6980
    6980       0    6982    6983    6983       0    6985    6986    6986       0
    6988    6989    6989       0    6991    6992    6992       0    6994    6995
    6995       0    6997    6998    6998       0    7000    7001    7001       0
    7003    7004    7004       0    7006    7007    7007       0    7009    7010
    7010       0    7012    7013    7013       0    7015    7016    7016       0
    7018    7019    7019       0    7021    7022    7022       0    7024    7025
    7025       0    7027    7028    7028       0    7030    7031    7031       0
    7033    7034    7034       0    7036    7037    7037       0    7039    7040
    7040       0    7042    7043    7043       0    7045    7046    7046       0
    7048    7049    7049       0    7051    7052    7052       0    7054    7055
    7055       0    7057    7058    7058       0    7060    7061    7061       0
    7063    7064    7064       0    7066    7067    7067       0    7069    7070
    7070       0    7072    7073    7073       0    7075    7076    7076       0
    7078    7079    7079       0    7081    7082    7082       0    7084    7085
    7085       0    7087    7088    7088       0    7090    7091    7091       0
    7093    7094    7094       0    7096    7097    7097       0    7099    7100
    7100       0    7102    7103    7103       0    7105    7106    7106       0
    7108    7109    7109       0    7111    7112    7112       0    7114    7115
    7115       0    7117    7118    7118       0    7120    7121    7121       0
    7123    7124    7124       0    7126    7127    7127       0    7129    7130
    7130       0    7132    7133    7133       0    7135    7136    7136       0
    7138    7139    7139       0    7141    7142    7142       0    7144    7145
    7145       0    7147    7148    7148       0    7150    7151    7151       0
    7153    7154    7154       0    7156    7157    7157       0    7159    7160
    7160       0    7162    7163    7163       0    7165    7166    7166       0
    7168    7169    7169       0    7171    7172    7172       0    7174    7175
    7175       0    7177    7178    7178       0    7180    7181    7181       0
    7183    7184    7184       0    7186    7187    7187       0    7189    7190
    7190       0    7192    7193    7193       0    7195    7196    7196       0
    7198    7199    7199       0    7201    7202    7202       0    7204    7205
    7205       0    7207    7208    7208       0    7210    7211    7211       0
    7213    7214    7214       0    7216    7217    7217       0    7219    7220
    7220       0    7222    7223    7223       0    7225    7226    7226       0
    7228    7229    7229       0    7231    7232    7232       0    7234    7235
    7235       0    7237    7238    7238       0    7240    7241    7241       0
    7243    7244    7244       0    7246    7247    7247       0    7249    7250
    7250       0    7252    7253    7253       0    7255    7256    7256       0
    7258    7259    7259       0    7261    7262    7262       0    7264    7265
    7265       0    7267    7268    7268       0    7270    7271    7271       0
    7273    7274    7274       0    7276    7277    7277       0    7279    7280
    7280       0    7282    7283    7283       0    7285    7286    7286       0
    7288    7289    7289       0    7291    7292    7292       0    7294    7295
    7295       0    7297    7298    7298       0    7300    7301    7301       0
    7303    7304    7304       0    7306    7307    7307       0    7309    7310
    7310       0    7312    7313    7313       0    7315    7316    7316       0
    7318    7319    7319       0    7321    7322    7322       0    7324    7325
    7325       0    7327    7328    7328       0    7330    7331    7331       0
    7333    7334    7334       0    7336    7337    7337       0    7339    7340
    7340       0    7342    7343    7343       0    7345    7346    7346       0
    7348    7349    7349       0    7351    7352    7352       0    7354    7355
    7355       0    7357    7358    7358       0    7360    7361    7361       0
    7363    7364    7364       0    7366    7367    7367       0    7369    7370
    7370       0    7372    7373    7373       0    7375    7376    7376       0
    7378    7379    7379       0    7381    7382    7382       0    7384    7385
    7385       0    7387    7388    7388       0    7390    7391    7391       0
    7393    7394    7394       0    7396    7397    7397       0    7399    7400
    7400       0    7402    7403    7403       0    7405    7406    7406       0
    7408    7409    7409       0    7411    7412    7412       0    7414    7415
    7415       0    7417    7418    7418       0    7420    7421    7421       0
    7423    7424    7424       0    7426    7427    7427       0    7429    7430
    7430       0    7432    7433    7433       0    7435    7436    7436       0
    7438    7439    7439       0    7441    7442    7442       0    7444    7445
    7445       0    7447    7448    7448       0    7450    7451    7451       0
    7453    7454    7454       0    7456    7457    7457       0    7459    7460
    7460       0    7462    7463    7463       0    7465    7466    7466       0
    7468    7469    7469       0    7471    7472    7472       0    7474    7475
    7475       0    7477    7478    7478       0    7480    7481    7481       0
    7483    7484    7484       0    7486    7487    7487       0    7489    7490
    7490       0    7492    7493    7493       0    7495    7496    7496       0
    7498    7499    7499       0    7501    7502    7502       0    7504    7505
    7505       0    7507    7508    7508       0    7510    7511    7511       0
    7513    7514    7514       0    7516    7517    7517       0    7519    7520
    7520       0    7522    7523    7523       0    7525    7526    7526       0
    7528    7529    7529       0    7531    7532    7532       0    7534    7535
    7535       0    7537    7538    7538       0    7540    7541    7541       0
    7543    7544    7544       0    7546    7547    7547       0    7549    7550
    7550       0    7552    7553    7553       0    7555    7556    7556       0
    7558    7559    7559       0    7561    7562    7562       0    7564    7565
    7565       0    7567    7568    7568       0    7570    7571    7571       0
    7573    7574    7574       0    7576    7577    7577       0    7579    7580
    7580       0    7582    7583    7583       0    7585    7586    7586       0
    7588    7589    7589       0    7591    7592    7592       0    7594    7595
    7595       0    7597    7598    7598       0    7600    7601    7601       0
    7603    7604    7604       0    7606    7607    7607       0    7609    7610
    7610       0    7612    7613    7613       0    7615    7616    7616       0
    7618    7619    7619       0    7621    7622    7622       0    7624    7625
    7625       0    7627    7628    7628       0    7630    7631    7631       0
    7633    7634    7634       0    7636    7637    7637       0    7639    7640
    7640       0    7642    7643    7643       0    7645    7646    7646       0
    7648    7649    7649       0    7651    7652    7652       0    7654    7655
    7655       0    7657    7658    7658       0    7660    7661    7661       0
    7663    7664    7664       0    7666    7667    7667       0    7669    7670
    7670       0    7672    7673    7673       0    7675    7676    7676       0
    7678    7679    7679       0    7681    7682    7682       0    7684    7685
    7685       0    7687    7688    7688       0    7690    7691    7691       0
    7693    7694    7694       0    7696    7697    7697       0    7699    7700
    7700       0    7702    7703    7703       0    7705    7706    7706       0
    7708    7709    7709       0    7711    7712    7712       0    7714    7715
    7715       0    7717    7718    7718       0    7720    7721    7721       0
    7723    7724    7724       0    7726    7727    7727       0    7729    7730
    7730       0    7732    7733    7733       0    7735    7736    7736       0
    7738    7739    7739       0    7741    7742    7742       0    7744    7745
    7745       0    7747    7748    7748       0    7750    7751    7751       0
    7753    7754    7754       0    7756    7757    7757       0    7759    7760
    7760       0    7762    7763    7763       0    7765    7766    7766       0
    7768    7769    7769       0    7771    7772    7772       0    7774    7775
    7775       0    7777    7778    7778       0    7780    7781    7781       0
    7783    7784    7784       0    7786    7787    7787       0    7789    7790
    7790       0    7792    7793    7793       0    7795    7796    7796       0
    7798    7799    7799       0    7801    7802    7802       0    7804    7805
    7805       0    7807    7808    7808       0    7810    7811    7811       0
    7813    7814    7814       0    7816    7817    7817       0    7819    7820
    7820       0    7822    7823    7823       0    7825    7826    7826       0
    7828    7829    7829       0    7831    7832    7832       0    7834    7835
    7835       0    7837    7838    7838       0    7840    7841    7841       0
    7843    7844    7844       0    7846    7847    7847       0    7849    7850
    7850       0    7852    7853    7853       0    7855    7856    7856       0
    7858    7859    7859       0    7861    7862    7862       0    7864    7865
    7865       0    7867    7868    7868       0    7870    7871    7871       0
    7873    7874    7874       0    7876    7877    7877       0    7879    7880
    7880       0    7882    7883    7883       0    7885    7886    7886       0
    7888    7889    7889       0    7891    7892    7892       0    7894    7895
    7895       0    7897    7898    7898       0    7900    7901    7901       0
    7903    7904    7904       0    7906    7907    7907       0    7909    7910
    7910       0    7912    7913    7913       0    7915    7916    7916       0
    7918    7919    7919       0    7921    7922    7922       0    7924    7925
    7925       0    7927    7928    7928       0    7930    7931    7931       0
    7933    7934    7934       0    7936    7937    7937       0    7939    7940
    7940       0    7942    7943    7943       0    7945    7946    7946       0
    7948    7949    7949       0    7951    7952    7952       0    7954    7955
    7955       0    7957    7958    7958       0    7960    7961    7961       0
    7963    7964    7964       0    7966    7967    7967       0    7969    7970
    7970       0    7972    7973    7973       0    7975    7976    7976       0
    7978    7979    7979       0    7981    7982    7982       0    7984    7985
    7985       0    7987    7988    7988       0    7990    7991    7991       0
    7993    7994    7994       0    7996    7997    7997       0    7999    8000
    8000       0    8002    8003    8003       0    8005    8006    8006       0
    8008    8009    8009       0    8011    8012    8012       0    8014    8015
    8015       0    8017    8018    8018       0    8020    8021    8021       0
    8023    8024    8024       0    8026    8027    8027       0    8029    8030
    8030       0    8032    8033    8033       0    8035    8036    8036       0
    8038    8039    8039       0    8041    8042    8042       0    8044    8045
    8045       0    8047    8048    8048       0    8050    8051    8051       0
    8053    8054    8054       0    8056    8057    8057       0    8059    8060
    8060       0    8062    8063    8063       0    8065    8066    8066       0
    8068    8069    8069       0    8071    8072    8072       0    8074    8075
    8075       0    8077    8078    8078       0    8080    8081    8081       0
    8083    8084    8084       0    8086    8087    8087       0    8089    8090
    8090       0    8092    8093    8093       0    8095    8096    8096       0
    8098    8099    8099       0    8101    8102    8102       0    8104    8105
    8105       0    8107    8108    8108       0    8110    8111    8111       0
    8113    8114    8114       0    8116    8117    8117       0    8119    8120
    8120       0    8122    8123    8123       0    8125    8126    8126       0
    8128    8129    8129       0    8131    8132    8132       0    8134    8135
    8135       0    8137    8138    8138       0    8140    8141    8141       0
    8143    8144    8144       0    8146    8147    8147       0    8149    8150
    8150       0    8152    8153    8153       0    8155    8156    8156       0
    8158    8159    8159       0    8161    8162    8162       0    8164    8165
    8165       0    8167    8168    8168       0    8170    8171    8171       0
    8173    8174    8174       0    8176    8177    8177       0    8179    8180
    8180       0    8182    8183    8183       0    8185    8186    8186       0
    8188    8189    8189       0    8191    8192    8192       0    8194    8195
    8195       0    8197    8198    8198       0    8200    8201    8201       0
    8203    8204    8204       0    8206    8207    8207       0    8209    8210
    8210       0    8212    8213    8213       0    8215    8216    8216       0
    8218    8219    8219       0    8221    8222    8222       0    8224    8225
    8225       0    8227    8228    8228       0    8230    8231    8231       0
    8233    8234    8234       0    8236    8237    8237       0    8239    8240
    8240       0    8242    8243    8243       0    8245    8246    8246       0
    8248    8249    8249       0    8251    8252    8252       0    8254    8255
    8255       0    8257    8258    8258       0    8260    8261    8261       0
    8263    8264    8264       0    8266    8267    8267       0    8269    8270
    8270       0    8272    8273    8273       0    8275    8276    8276       0
    8278    8279    8279       0    8281    8282    8282       0    8284    8285
    8285       0    8287    8288    8288       0    8290    8291    8291       0
    8293    8294    8294       0    8296    8297    8297       0    8299    8300
    8300       0    8302    8303    8303       0    8305    8306    8306       0
    8308    8309    8309       0    8311    8312    8312       0    8314    8315
    8315       0    8317    8318    8318       0    8320    8321    8321       0
    8323    8324    8324       0    8326    8327    8327       0    8329    8330
    8330       0    8332    8333    8333       0    8335    8336    8336       0
    8338    8339    8339       0    8341    8342    8342       0    8344    8345
    8345       0    8347    8348    8348       0    8350    8351    8351       0
    8353    8354    8354       0    8356    8357    8357       0    8359    8360
    8360       0    8362    8363    8363       0    8365    8366    8366       0
    8368    8369    8369       0    8371    8372    8372       0    8374    8375
    8375       0    8377    8378    8378       0    8380    8381    8381       0
    8383    8384    8384       0    8386    8387    8387       0    8389    8390
    8390       0    8392    8393    8393       0    8395    8396    8396       0
    8398    8399    8399       0    8401    8402    8402       0    8404    8405
    8405       0    8407    8408    8408       0    8410    8411    8411       0
    8413    8414    8414       0    8416    8417    8417       0    8419    8420
    8420       0    8422    8423    8423       0    8425    8426    8426       0
    8428    8429    8429       0    8431    8432    8432       0    8434    8435
    8435       0    8437    8438    8438       0    8440    8441    8441       0
    8443    8444    8444       0    8446    8447    8447       0    8449    8450
    8450       0    8452    8453    8453       0    8455    8456    8456       0
    8458    8459    8459       0    8461    8462    8462       0    8464    8465
    8465       0    8467    8468    8468       0    8470    8471    8471       0
    8473    8474    8474       0    8476    8477    8477       0    8479    8480
    8480       0    8482    8483    8483       0    8485    8486    8486       0
    8488    8489    8489       0    8491    8492    8492       0    8494    8495
    8495       0    8497    8498    8498       0    8500    8501    8501       0
    8503    8504    8504       0    8506    8507    8507       0    8509    8510
    8510       0    8512    8513    8513       0    8515    8516    8516       0
    8518    8519    8519       0    8521    8522    8522       0    8524    8525
    8525       0    8527    8528    8528       0    8530    8531    8531       0
    8533    8534    8534       0    8536    8537    8537       0    8539    8540
    8540       0    8542    8543    8543       0    8545    8546    8546       0
    8548    8549    8549       0    8551    8552    8552       0    8554    8555
    8555       0    8557    8558    8558       0    8560    8561    8561       0
    8563    8564    8564       0    8566    8567    8567       0    8569    8570
    8570       0    8572    8573    8573       0    8575    8576    8576       0
    8578    8579    8579       0    8581    8582    8582       0    8584    8585
    8585       0    8587    8588    8588       0    8590    8591    8591       0
    8593    8594    8594       0    8596    8597    8597       0    8599    8600
    8600       0    8602    8603    8603       0    8605    8606    8606       0
    8608    8609    8609       0    8611    8612    8612       0    8614    8615
    8615       0    8617    8618    8618       0    8620    8621    8621       0
    8623    8624    8624       0    8626    8627    8627       0    8629    8630
    8630       0    8632    8633    8633       0    8635    8636    8636       0
    8638    8639    8639       0    8641    8642    8642       0    8644    8645
    8645       0    8647    8648    8648       0    8650    8651    8651       0
    8653    8654    8654       0    8656    8657    8657       0    8659    8660
    8660       0    8662    8663    8663       0    8665    8666    8666       0
    8668    8669    8669       0    8671    8672    8672       0    8674    8675
    8675       0    8677    8678    8678       0    8680    8681    8681       0
    8683    8684    8684       0    8686    8687    8687       0    8689    8690
    8690       0    8692    8693    8693       0    8695    8696    8696       0
    8698    8699    8699       0    8701    8702    8702       0    8704    8705
    8705       0    8707    8708    8708       0    8710    8711    8711       0
    8713    8714    8714       0    8716    8717    8717       0    8719    8720
    8720       0    8722    8723    8723       0    8725    8726    8726       0
    8728    8729    8729       0    8731    8732    8732       0    8734    8735
    8735       0    8737    8738    8738       0    8740    8741    8741       0
    8743    8744    8744       0    8746    8747    8747       0    8749    8750
    8750       0    8752    8753    8753       0    8755    8756    8756       0
    8758    8759    8759       0    8761    8762    8762       0    8764    8765
    8765       0    8767    8768    8768       0    8770    8771    8771       0
    8773    8774    8774       0    8776    8777    8777       0    8779    8780
    8780       0    8782    8783    8783       0    8785    8786    8786       0
    8788    8789    8789       0    8791    8792    8792       0    8794    8795
    8795       0    8797    8798    8798       0    8800    8801    8801       0
    8803    8804    8804       0    8806    8807    8807       0    8809    8810
    8810       0    8812    8813    8813       0    8815    8816    8816       0
    8818    8819    8819       0    8821    8822    8822       0    8824    8825
    8825       0    8827    8828    8828       0    8830    8831    8831       0
    8833    8834    8834       0    8836    8837    8837       0    8839    8840
    8840       0    8842    8843    8843       0    8845    8846    8846       0
    8848    8849    8849       0    8851    8852    8852       0    8854    8855
    8855       0    8857    8858    8858       0    8860    8861    8861       0
    8863    8864    8864       0    8866    8867    8867       0    8869    8870
    8870       0    8872    8873    8873       0    8875    8876    8876       0
    8878    8879    8879       0    8881    8882    8882       0    8884    8885
    8885       0    8887    8888    8888       0    8890    8891    8891       0
    8893    8894    8894       0    8896    8897    8897       0    8899    8900
    8900       0    8902    8903    8903       0    8905    8906    8906       0
    8908    8909    8909       0    8911    8912    8912       0    8914    8915
    8915       0    8917    8918    8918       0    8920    8921    8921       0
    8923    8924    8924       0    8926    8927    8927       0    8929    8930
    8930       0    8932    8933    8933       0    8935    8936    8936       0
    8938    8939    8939       0    8941    8942    8942       0    8944    8945
    8945       0    8947    8948    8948       0    8950    8951    8951       0
    8953    8954    8954       0    8956    8957    8957       0    8959    8960
    8960       0    8962    8963    8963       0    8965    8966    8966       0
    8968    8969    8969       0    8971    8972    8972       0    8974    8975
    8975       0    8977    8978    8978       0    8980    8981    8981       0
    8983    8984    8984       0    8986    8987    8987       0    8989    8990
    8990       0    8992    8993    8993       0    8995    8996    8996       0
    8998    8999    8999       0    9001    9002    9002       0    9004    9005
    9005       0    9007    9008    9008       0    9010    9011    9011       0
    9013    9014    9014       0    9016    9017    9017       0    9019    9020
    9020       0    9022    9023    9023       0    9025    9026    9026       0
    9028    9029    9029       0    9031    9032    9032       0    9034    9035
    9035       0    9037    9038    9038       0    9040    9041    9041       0
    9043    9044    9044       0    9046    9047    9047       0    9049    9050
    9050       0    9052    9053    9053       0    9055    9056    9056       0
    9058    9059    9059       0    9061    9062    9062       0    9064    9065
    9065       0    9067    9068    9068       0    9070    9071    9071       0
    9073    9074    9074       0    9076    9077    9077       0    9079    9080
    9080       0    9082    9083    9083       0    9085    9086    9086       0
    9088    9089    9089       0    9091    9092    9092       0    9094    9095
    9095       0    9097    9098    9098       0    9100    9101    9101       0
    9103    9104    9104       0    9106    9107    9107       0    9109    9110
    9110       0    9112    9113    9113       0    9115    9116    9116       0
    9118    9119    9119       0    9121    9122    9122       0    9124    9125
    9125       0    9127    9128    9128       0    9130    9131    9131       0
    9133    9134    9134       0    9136    9137    9137       0    9139    9140
    9140       0    9142    9143    9143       0    9145    9146    9146       0
    9148    9149    9149       0    9151    9152    9152       0    9154    9155
    9155       0    9157    9158    9158       0    9160    9161    9161       0
    9163    9164    9164       0    9166    9167    9167       0    9169    9170
    9170       0    9172    9173    9173       0    9175    9176    9176       0
    9178    9179    9179       0    9181    9182    9182       0    9184    9185
    9185       0    9187    9188    9188       0    9190    9191    9191       0
    9193    9194    9194       0    9196    9197    9197       0    9199    9200
    9200       0    9202    9203    9203       0    9205    9206    9206       0
    9208    9209    9209       0    9211    9212    9212       0    9214    9215
    9215       0    9217    9218    9218       0    9220    9221    9221       0
    9223    9224    9224       0    9226    9227    9227       0    9229    9230
    9230       0    9232    9233    9233       0    9235    9236    9236       0
    9238    9239    9239       0    9241    9242    9242       0    9244    9245
    9245       0    9247    9248    9248       0    9250    9251    9251       0
    9253    9254    9254       0    9256    9257    9257       0    9259    9260
    9260       0    9262    9263    9263       0    9265    9266    9266       0
    9268    9269    9269       0    9271    9272    9272       0    9274    9275
    9275       0    9277    9278    9278       0    9280    9281    9281       0
    9283    9284    9284       0    9286    9287    9287       0    9289    9290
    9290       0    9292    9293    9293       0    9295    9296    9296       0
    9298    9299    9299       0    9301    9302    9302       0    9304    9305
    9305       0    9307    9308    9308       0    9310    9311    9311       0
    9313    9314    9314       0    9316    9317    9317       0    9319    9320
    9320       0    9322    9323    9323       0    9325    9326    9326       0
    9328    9329    9329       0    9331    9332    9332       0    9334    9335
    9335       0    9337    9338    9338       0    9340    9341    9341       0
    9343    9344    9344       0    9346    9347    9347       0    9349    9350
    9350       0    9352    9353    9353       0    9355    9356    9356       0
    9358    9359    9359       0    9361    9362    9362       0    9364    9365
    9365       0    9367    9368    9368       0    9370    9371    9371       0
    9373    9374    9374       0    9376    9377    9377       0    9379    9380
    9380       0    9382    9383    9383       0    9385    9386    9386       0
    9388    9389    9389       0    9391    9392    9392       0    9394    9395
    9395       0    9397    9398    9398       0    9400    9401    9401       0
    9403    9404    9404       0    9406    9407    9407       0    9409    9410
    9410       0    9412    9413    9413       0    9415    9416    9416       0
    9418    9419    9419       0    9421    9422    9422       0    9424    9425
    9425       0    9427    9428    9428       0    9430    9431    9431       0
    9433    9434    9434       0    9436    9437    9437       0    9439    9440
    9440       0    9442    9443    9443       0    9445    9446    9446       0
    9448    9449    9449       0    9451    9452    9452       0    9454    9455
    9455       0    9457    9458    9458       0    9460    9461    9461       0
    9463    9464    9464       0    9466    9467    9467       0    9469    9470
    9470       0    9472    9473    9473       0    9475    9476    9476       0
    9478    9479    9479       0    9481    9482    9482       0    9484    9485
    9485       0    9487    9488    9488       0    9490    9491    9491       0
    9493    9494    9494       0    9496    9497    9497       0    9499    9500
    9500       0    9502    9503    9503       0    9505    9506    9506       0
    9508    9509    9509       0    9511    9512    9512       0    9514    9515
    9515       0    9517    9518    9518       0    9520    9521    9521       0
    9523    9524    9524       0    9526    9527    9527       0    9529    9530
    9530       0    9532    9533    9533       0    9535    9536    9536       0
    9538    9539    9539       0    9541    9542    9542       0    9544    9545
    9545       0    9547    9548    9548       0    9550    9551    9551       0
    9553    9554    9554       0    9556    9557    9557       0    9559    9560
    9560       0    9562    9563    9563       0    9565    9566    9566       0
    9568    9569    9569       0    9571    9572    9572       0    9574    9575
    9575       0    9577    9578    9578       0    9580    9581    9581       0
    9583    9584    9584       0    9586    9587    9587       0    9589    9590
    9590       0    9592    9593    9593       0    9595    9596    9596       0
    9598    9599    9599       0    9601    9602    9602       0    9604    9605
    9605       0    9607    9608    9608       0    9610    9611    9611       0
    9613    9614    9614       0    9616    9617    9617       0    9619    9620
    9620       0    9622    9623    9623       0    9625    9626    9626       0
    9628    9629    9629       0    9631    9632    9632       0    9634    9635
    9635       0    9637    9638    9638       0    9640    9641    9641       0
    9643    9644    9644       0    9646    9647    9647       0    9649    9650
    9650       0    9652    9653    9653       0    9655    9656    9656       0
    9658    9659    9659       0    9661    9662    9662       0    9664    9665
    9665       0    9667    9668    9668       0    9670    9671    9671       0
    9673    9674    9674       0    9676    9677    9677       0    9679    9680
    9680       0    9682    9683    9683       0    9685    9686    9686       0
    9688    9689    9689       0    9691    9692    9692       0    9694    9695
    9695       0    9697    9698    9698       0    9700    9701    9701       0
    9703    9704    9704       0    9706    9707    9707       0    9709    9710
    9710       0    9712    9713    9713       0    9715    9716    9716       0
    9718    9719    9719       0    9721    9722    9722       0    9724    9725
    9725       0    9727    9728    9728       0    9730    9731    9731       0
    9733    9734    9734       0    9736    9737    9737       0    9739    9740
    9740       0    9742    9743    9743       0    9745    9746    9746       0
    9748    9749    9749       0    9751    9752    9752       0    9754    9755
    9755       0    9757    9758    9758       0    9760    9761    9761       0
    9763    9764    9764       0    9766    9767    9767       0    9769    9770
    9770       0    9772    9773    9773       0    9775    9776    9776       0
    9778    9779    9779       0    9781    9782    9782       0    9784    9785
    9785       0    9787    9788    9788       0    9790    9791    9791       0
    9793    9794    9794       0    9796    9797    9797       0    9799    9800
    9800       0    9802    9803    9803       0    9805    9806    9806       0
    9808    9809    9809       0    9811    9812    9812       0    9814    9815
    9815       0    9817    9818    9818       0    9820    9821    9821       0
    9823    9824    9824       0    9826    9827    9827       0    9829    9830
    9830       0    9832    9833    9833       0    9835    9836    9836       0
    9838    9839    9839       0    9841    9842    9842       0    9844    9845
    9845       0    9847    9848    9848       0    9850    9851    9851       0
    9853    9854    9854       0    9856    9857    9857       0    9859    9860
    9860       0    9862    9863    9863       0    9865    9866    9866       0
    9868    9869    9869       0    9871    9872    9872       0    9874    9875
    9875       0    9877    9878    9878       0    9880    9881    9881       0
    9883    9884    9884       0    9886    9887    9887       0    9889    9890
    9890       0    9892    9893    9893       0    9895    9896    9896       0
    9898    9899    9899       0    9901    9902    9902       0    9904    9905
    9905       0    9907    9908    9908       0    9910    9911    9911       0
    9913    9914    9914       0    9916    9917    9917       0    9919    9920
    9920       0    9922    9923    9923       0    9925    9926    9926       0
    9928    9929    9929       0    9931    9932    9932       0    9934    9935
    9935       0    9937    9938    9938       0    9940    9941    9941       0
    9943    9944    9944       0    9946    9947    9947       0    9949    9950
    9950       0    9952    9953    9953       0    9955    9956    9956       0
    9958    9959    9959       0    9961    9962    9962       0    9964    9965
    9965       0    9967    9968    9968       0    9970    9971    9971       0
    9973    9974    9974       0    9976    9977    9977       0    9979    9980
    9980       0    9982    9983    9983       0    9985    9986    9986       0
    9988    9989    9989       0    9991    9992    9992       0    9994    9995
    9995       0    9997    9998    9998       0   10000   10001   10001       0
   10003   10004   10004       0   10006   10007   10007       0   10009   10010
   10010       0   10012   10013   10013       0   10015   10016   10016       0
   10018   10019   10019       0   10021   10022   10022       0   10024   10025
   10025       0   10027   10028   10028       0   10030   10031   10031       0
   10033   10034   10034       0   10036   10037   10037       0   10039   10040
   10040       0   10042   10043   10043       0   10045   10046   10046       0
   10048   10049   10049       0   10051   10052   10052       0   10054   10055
   10055       0   10057   10058   10058       0   10060   10061   10061       0
   10063   10064   10064       0   10066   10067   10067       0   10069   10070
   10070       0   10072   10073   10073       0   10075   10076   10076       0
   10078   10079   10079       0   10081   10082   10082       0   10084   10085
   10085       0   10087   10088   10088       0   10090   10091   10091       0
   10093   10094   10094       0   10096   10097   10097       0   10099   10100
   10100       0   10102   10103   10103       0   10105   10106   10106       0
   10108   10109   10109       0   10111   10112   10112       0   10114   10115
   10115       0   10117   10118   10118       0   10120   10121   10121       0
   10123   10124   10124       0   10126   10127   10127       0   10129   10130
   10130       0   10132   10133   10133       0   10135   10136   10136       0
   10138   10139   10139       0   10141   10142   10142       0   10144   10145
   10145       0   10147   10148   10148       0   10150   10151   10151       0
   10153   10154   10154       0   10156   10157   10157       0   10159   10160
   10160       0   10162   10163   10163       0   10165   10166   10166       0
   10168   10169   10169       0   10171   10172   10172       0   10174   10175
   10175       0   10177   10178   10178       0   10180   10181   10181       0
   10183   10184   10184       0   10186   10187   10187       0   10189   10190
   10190       0   10192   10193   10193       0   10195   10196   10196       0
   10198   10199   10199       0   10201   10202   10202       0   10204   10205
   10205       0   10207   10208   10208       0   10210   10211   10211       0
   10213   10214   10214       0   10216   10217   10217       0   10219   10220
   10220       0   10222   10223   10223       0   10225   10226   10226       0
   10228   10229   10229       0   10231   10232   10232       0   10234   10235
   10235       0   10237   10238   10238       0   10240   10241   10241       0
   10243   10244   10244       0   10246   10247   10247       0   10249   10250
   10250       0   10252   10253   10253       0   10255   10256   10256       0
   10258   10259   10259       0   10261   10262   10262       0   10264   10265
   10265       0   10267   10268   10268       0   10270   10271   10271       0
   10273   10274   10274       0   10276   10277   10277       0   10279   10280
   10280       0   10282   10283   10283       0   10285   10286   10286       0
   10288   10289   10289       0   10291   10292   10292       0   10294   10295
   10295       0   10297   10298   10298       0   10300   10301   10301       0
   10303   10304   10304       0   10306   10307   10307       0   10309   10310
   10310       0   10312   10313   10313       0   10315   10316   10316       0
   10318   10319   10319       0   10321   10322   10322       0   10324   10325
   10325       0   10327   10328   10328       0   10330   10331   10331       0
   10333   10334   10334       0   10336   10337   10337       0   10339   10340
   10340       0   10342   10343   10343       0   10345   10346   10346       0
   10348   10349   10349       0   10351   10352   10352       0   10354   10355
   10355       0   10357   10358   10358       0   10360   10361   10361       0
   10363   10364   10364       0   10366   10367   10367       0   10369   10370
   10370       0   10372   10373   10373       0   10375   10376   10376       0
   10378   10379   10379       0   10381   10382   10382       0   10384   10385
   10385       0   10387   10388   10388       0   10390   10391   10391       0
   10393   10394   10394       0   10396   10397   10397       0   10399   10400
   10400       0   10402   10403   10403       0   10405   10406   10406       0
   10408   10409   10409       0   10411   10412   10412       0   10414   10415
   10415       0   10417   10418   10418       0   10420   10421   10421       0
   10423   10424   10424       0   10426   10427   10427       0   10429   10430
   10430       0   10432   10433   10433       0   10435   10436   10436       0
   10438   10439   10439       0   10441   10442   10442       0   10444   10445
   10445       0   10447   10448   10448       0   10450   10451   10451       0
   10453   10454   10454       0   10456   10457   10457       0   10459   10460
   10460       0   10462   10463   10463       0   10465   10466   10466       0
   10468   10469   10469       0   10471   10472   10472       0   10474   10475
   10475       0   10477   10478   10478       0   10480   10481   10481       0
   10483   10484   10484       0   10486   10487   10487       0   10489   10490
   10490       0   10492   10493   10493       0   10495   10496   10496       0
   10498   10499   10499       0   10501   10502   10502       0   10504   10505
   10505       0   10507   10508   10508       0   10510   10511   10511       0
   10513   10514   10514       0   10516   10517   10517       0   10519   10520
   10520       0   10522   10523   10523       0   10525   10526   10526       0
   10528   10529   10529       0   10531   10532   10532       0   10534   10535
   10535       0   10537   10538   10538       0   10540   10541   10541       0
   10543   10544   10544       0   10546   10547   10547       0   10549   10550
   10550       0   10552   10553   10553       0   10555   10556   10556       0
   10558   10559   10559       0   10561   10562   10562       0   10564   10565
   10565       0   10567   10568   10568       0   10570   10571   10571       0
   10573   10574   10574       0   10576   10577   10577       0   10579   10580
   10580       0   10582   10583   10583       0   10585   10586   10586       0
   10588   10589   10589       0   10591   10592   10592       0   10594   10595
   10595       0   10597   10598   10598       0   10600   10601   10601       0
   10603   10604   10604       0   10606   10607   10607       0   10609   10610
   10610       0   10612   10613   10613       0   10615   10616   10616       0
   10618   10619   10619       0   10621   10622   10622       0   10624   10625
   10625       0   10627   10628   10628       0   10630   10631   10631       0
   10633   10634   10634       0   10636   10637   10637       0   10639   10640
   10640       0   10642   10643   10643       0   10645   10646   10646       0
   10648   10649   10649       0   10651   10652   10652       0   10654   10655
   10655       0   10657   10658   10658       0   10660   10661   10661       0
   10663   10664   10664       0   10666   10667   10667       0   10669   10670
   10670       0   10672   10673   10673       0   10675   10676   10676       0
   10678   10679   10679       0   10681   10682   10682       0   10684   10685
   10685       0   10687   10688   10688       0   10690   10691   10691       0
   10693   10694   10694       0   10696   10697   10697       0   10699   10700
   10700       0   10702   10703   10703       0   10705   10706   10706       0
   10708   10709   10709       0   10711   10712   10712       0   10714   10715
   10715       0   10717   10718   10718       0   10720   10721   10721       0
   10723   10724   10724       0   10726   10727   10727       0   10729   10730
   10730       0   10732   10733   10733       0   10735   10736   10736       0
   10738   10739   10739       0   10741   10742   10742       0   10744   10745
   10745       0   10747   10748   10748       0   10750   10751   10751       0
   10753   10754   10754       0   10756   10757   10757       0   10759   10760
   10760       0   10762   10763   10763       0   10765   10766   10766       0
   10768   10769   10769       0   10771   10772   10772       0   10774   10775
   10775       0   10777   10778   10778       0   10780   10781   10781       0
   10783   10784   10784       0   10786   10787   10787       0   10789   10790
   10790       0   10792   10793   10793       0   10795   10796   10796       0
   10798   10799   10799       0   10801   10802   10802       0   10804   10805
   10805       0   10807   10808   10808       0   10810   10811   10811       0
   10813   10814   10814       0   10816   10817   10817       0   10819   10820
   10820       0   10822   10823   10823       0   10825   10826   10826       0
   10828   10829   10829       0   10831   10832   10832       0   10834   10835
   10835       0   10837   10838   10838       0   10840   10841   10841       0
   10843   10844   10844       0   10846   10847   10847       0   10849   10850
   10850       0   10852   10853   10853       0   10855   10856   10856       0
   10858   10859   10859       0   10861   10862   10862       0   10864   10865
   10865       0   10867   10868   10868       0   10870   10871   10871       0
   10873   10874   10874       0   10876   10877   10877       0   10879   10880
   10880       0   10882   10883   10883       0   10885   10886   10886       0
   10888   10889   10889       0   10891   10892   10892       0   10894   10895
   10895       0   10897   10898   10898       0   10900   10901   10901       0
   10903   10904   10904       0   10906   10907   10907       0   10909   10910
   10910       0   10912   10913   10913       0   10915   10916   10916       0
   10918   10919   10919       0   10921   10922   10922       0   10924   10925
   10925       0   10927   10928   10928       0   10930   10931   10931       0
   10933   10934   10934       0   10936   10937   10937       0   10939   10940
   10940       0   10942   10943   10943       0   10945   10946   10946       0
   10948   10949   10949       0   10951   10952   10952       0   10954   10955
   10955       0   10957   10958   10958       0   10960   10961   10961       0
   10963   10964   10964       0   10966   10967   10967       0   10969   10970
   10970       0   10972   10973   10973       0   10975   10976   10976       0
   10978   10979   10979       0   10981   10982   10982       0   10984   10985
   10985       0   10987   10988   10988       0   10990   10991   10991       0
   10993   10994   10994       0   10996   10997   10997       0   10999   11000
   11000       0   11002   11003   11003       0   11005   11006   11006       0
   11008   11009   11009       0   11011   11012   11012       0   11014   11015
   11015       0   11017   11018   11018       0   11020   11021   11021       0
   11023   11024   11024       0   11026   11027   11027       0   11029   11030
   11030       0   11032   11033   11033       0   11035   11036   11036       0
   11038   11039   11039       0   11041   11042   11042       0   11044   11045
   11045       0   11047   11048   11048       0   11050   11051   11051       0
   11053   11054   11054       0   11056   11057   11057       0   11059   11060
   11060       0   11062   11063   11063       0   11065   11066   11066       0
   11068   11069   11069       0   11071   11072   11072       0   11074   11075
   11075       0   11077   11078   11078       0   11080   11081   11081       0
   11083   11084   11084       0   11086   11087   11087       0   11089   11090
   11090       0   11092   11093   11093       0   11095   11096   11096       0
   11098   11099   11099       0   11101   11102   11102       0   11104   11105
   11105       0   11107   11108   11108       0   11110   11111   11111       0
   11113   11114   11114       0   11116   11117   11117       0   11119   11120
   11120       0   11122   11123   11123       0   11125   11126   11126       0
   11128   11129   11129       0   11131   11132   11132       0   11134   11135
   11135       0   11137   11138   11138       0   11140   11141   11141       0
   11143   11144   11144       0   11146   11147   11147       0   11149   11150
   11150       0   11152   11153   11153       0   11155   11156   11156       0
   11158   11159   11159       0   11161   11162   11162       0   11164   11165
   11165       0   11167   11168   11168       0   11170   11171   11171       0
   11173   11174   11174       0   11176   11177   11177       0   11179   11180
   11180       0   11182   11183   11183       0   11185   11186   11186       0
   11188   11189   11189       0   11191   11192   11192       0   11194   11195
   11195       0   11197   11198   11198       0   11200   11201   11201       0
   11203   11204   11204       0   11206   11207   11207       0   11209   11210
   11210       0   11212   11213   11213       0   11215   11216   11216       0
   11218   11219   11219       0   11221   11222   11222       0   11224   11225
   11225       0   11227   11228   11228       0   11230   11231   11231       0
   11233   11234   11234       0   11236   11237   11237       0   11239   11240
   11240       0   11242   11243   11243       0   11245   11246   11246       0
   11248   11249   11249       0   11251   11252   11252       0   11254   11255
   11255       0   11257   11258   11258       0   11260   11261   11261       0
   11263   11264   11264       0   11266   11267   11267       0   11269   11270
   11270       0   11272   11273   11273       0   11275   11276   11276       0
   11278   11279   11279       0   11281   11282   11282       0   11284   11285
   11285       0   11287   11288   11288       0   11290   11291   11291       0
   11293   11294   11294       0   11296   11297   11297       0   11299   11300
   11300       0   11302   11303   11303       0   11305   11306   11306       0
   11308   11309   11309       0   11311   11312   11312       0   11314   11315
   11315       0   11317   11318   11318       0   11320   11321   11321       0
   11323   11324   11324       0   11326   11327   11327       0   11329   11330
   11330       0   11332   11333   11333       0   11335   11336   11336       0
   11338   11339   11339       0   11341   11342   11342       0   11344   11345
   11345       0   11347   11348   11348       0   11350   11351   11351       0
   11353   11354   11354       0   11356   11357   11357       0   11359   11360
   11360       0   11362   11363   11363       0   11365   11366   11366       0
   11368   11369   11369       0   11371   11372   11372       0   11374   11375
   11375       0   11377   11378   11378       0   11380   11381   11381       0
   11383   11384   11384       0   11386   11387   11387       0   11389   11390
   11390       0   11392   11393   11393       0   11395   11396   11396       0
   11398   11399   11399       0   11401   11402   11402       0   11404   11405
   11405       0   11407   11408   11408       0   11410   11411   11411       0
   11413   11414   11414       0   11416   11417   11417       0   11419   11420
   11420       0   11422   11423   11423       0   11425   11426   11426       0
   11428   11429   11429       0   11431   11432   11432       0   11434   11435
   11435       0   11437   11438   11438       0   11440   11441   11441       0
   11443   11444   11444       0   11446   11447   11447       0   11449   11450
   11450       0   11452   11453   11453       0   11455   11456   11456       0
   11458   11459   11459       0   11461   11462   11462       0   11464   11465
   11465       0   11467   11468   11468       0   11470   11471   11471       0
   11473   11474   11474       0   11476   11477   11477       0   11479   11480
   11480       0   11482   11483   11483       0   11485   11486   11486       0
   11488   11489   11489       0   11491   11492   11492       0   11494   11495
   11495       0   11497   11498   11498       0   11500   11501   11501       0
   11503   11504   11504       0   11506   11507   11507       0   11509   11510
   11510       0   11512   11513   11513       0   11515   11516   11516       0
   11518   11519   11519       0   11521   11522   11522       0   11524   11525
   11525       0   11527   11528   11528       0   11530   11531   11531       0
   11533   11534   11534       0   11536   11537   11537       0   11539   11540
   11540       0   11542   11543   11543       0   11545   11546   11546       0
   11548   11549   11549       0   11551   11552   11552       0   11554   11555
   11555       0   11557   11558   11558       0   11560   11561   11561       0
   11563   11564   11564       0   11566   11567   11567       0   11569   11570
   11570       0   11572   11573   11573       0   11575   11576   11576       0
   11578   11579   11579       0   11581   11582   11582       0   11584   11585
   11585       0   11587   11588   11588       0   11590   11591   11591       0
   11593   11594   11594       0   11596   11597   11597       0   11599   11600
   11600       0   11602   11603   11603       0   11605   11606   11606       0
   11608   11609   11609       0   11611   11612   11612       0   11614   11615
   11615       0   11617   11618   11618       0   11620   11621   11621       0
   11623   11624   11624       0   11626   11627   11627       0   11629   11630
   11630       0   11632   11633   11633       0   11635   11636   11636       0
   11638   11639   11639       0   11641   11642   11642       0   11644   11645
   11645       0   11647   11648   11648       0   11650   11651   11651       0
   11653   11654   11654       0   11656   11657   11657       0   11659   11660
   11660       0   11662   11663   11663       0   11665   11666   11666       0
   11668   11669   11669       0   11671   11672   11672       0   11674   11675
   11675       0   11677   11678   11678       0   11680   11681   11681       0
   11683   11684   11684       0   11686   11687   11687       0   11689   11690
   11690       0   11692   11693   11693       0   11695   11696   11696       0
   11698   11699   11699       0   11701   11702   11702       0   11704   11705
   11705       0   11707   11708   11708       0   11710   11711   11711       0
   11713   11714   11714       0   11716   11717   11717       0   11719   11720
   11720       0   11722   11723   11723       0   11725   11726   11726       0
   11728   11729   11729       0   11731   11732   11732       0   11734   11735
   11735       0   11737   11738   11738       0   11740   11741   11741       0
   11743   11744   11744       0   11746   11747   11747       0   11749   11750
   11750       0   11752   11753   11753       0   11755   11756   11756       0
   11758   11759   11759       0   11761   11762   11762       0   11764   11765
   11765       0   11767   11768   11768       0   11770   11771   11771       0
   11773   11774   11774       0   11776   11777   11777       0   11779   11780
   11780       0   11782   11783   11783       0   11785   11786   11786       0
   11788   11789   11789       0   11791   11792   11792       0   11794   11795
   11795       0   11797   11798   11798       0   11800   11801   11801       0
   11803   11804   11804       0   11806   11807   11807       0   11809   11810
   11810       0   11812   11813   11813       0   11815   11816   11816       0
   11818   11819   11819       0   11821   11822   11822       0   11824   11825
   11825       0   11827   11828   11828       0   11830   11831   11831       0
   11833   11834   11834       0   11836   11837   11837       0   11839   11840
   11840       0   11842   11843   11843       0   11845   11846   11846       0
   11848   11849   11849       0   11851   11852   11852       0   11854   11855
   11855       0   11857   11858   11858       0   11860   11861   11861       0
   11863   11864   11864       0   11866   11867   11867       0   11869   11870
   11870       0   11872   11873   11873       0   11875   11876   11876       0
   11878   11879   11879       0   11881   11882   11882       0   11884   11885
   11885       0   11887   11888   11888       0   11890   11891   11891       0
   11893   11894   11894       0   11896   11897   11897       0   11899   11900
   11900       0   11902   11903   11903       0   11905   11906   11906       0
   11908   11909   11909       0   11911   11912   11912       0   11914   11915
   11915       0   11917   11918   11918       0   11920   11921   11921       0
   11923   11924   11924       0   11926   11927   11927       0   11929   11930
   11930       0   11932   11933   11933       0   11935   11936   11936       0
   11938   11939   11939       0   11941   11942   11942       0   11944   11945
   11945       0   11947   11948   11948       0   11950   11951   11951       0
   11953   11954   11954       0   11956   11957   11957       0   11959   11960
   11960       0   11962   11963   11963       0   11965   11966   11966       0
   11968   11969   11969       0   11971   11972   11972       0   11974   11975
   11975       0   11977   11978   11978       0   11980   11981   11981       0
   11983   11984   11984       0   11986   11987   11987       0   11989   11990
   11990       0   11992   11993   11993       0   11995   11996   11996       0
   11998   11999   11999       0   12001   12002   12002       0   12004   12005
   12005       0   12007   12008   12008       0   12010   12011   12011       0
   12013   12014   12014       0   12016   12017   12017       0   12019   12020
   12020       0   12022   12023   12023       0   12025   12026   12026       0
   12028   12029   12029       0   12031   12032   12032       0   12034   12035
   12035       0   12037   12038   12038       0   12040   12041   12041       0
   12043   12044   12044       0   12046   12047   12047       0   12049   12050
   12050       0   12052   12053   12053       0   12055   12056   12056       0
   12058   12059   12059       0   12061   12062   12062       0   12064   12065
   12065       0   12067   12068   12068       0   12070   12071   12071       0
   12073   12074   12074       0   12076   12077   12077       0   12079   12080
   12080       0   12082   12083   12083       0   12085   12086   12086       0
   12088   12089   12089       0   12091   12092   12092       0   12094   12095
   12095       0   12097   12098   12098       0   12100   12101   12101       0
   12103   12104   12104       0   12106   12107   12107       0   12109   12110
   12110       0   12112   12113   12113       0   12115   12116   12116       0
   12118   12119   12119       0   12121   12122   12122       0   12124   12125
   12125       0   12127   12128   12128       0   12130   12131   12131       0
   12133   12134   12134       0   12136   12137   12137       0   12139   12140
   12140       0   12142   12143   12143       0   12145   12146   12146       0
   12148   12149   12149       0   12151   12152   12152       0   12154   12155
   12155       0   12157   12158   12158       0   12160   12161   12161       0
   12163   12164   12164       0   12166   12167   12167       0   12169   12170
   12170       0   12172   12173   12173       0   12175   12176   12176       0
   12178   12179   12179       0   12181   12182   12182       0   12184   12185
   12185       0   12187   12188   12188       0   12190   12191   12191       0
   12193   12194   12194       0   12196   12197   12197       0   12199   12200
   12200       0   12202   12203   12203       0   12205   12206   12206       0
   12208   12209   12209       0   12211   12212   12212       0   12214   12215
   12215       0   12217   12218   12218       0   12220   12221   12221       0
   12223   12224   12224       0   12226   12227   12227       0   12229   12230
   12230       0   12232   12233   12233       0   12235   12236   12236       0
   12238   12239   12239       0   12241   12242   12242       0   12244   12245
   12245       0   12247   12248   12248       0   12250   12251   12251       0
   12253   12254   12254       0   12256   12257   12257       0   12259   12260
   12260       0   12262   12263   12263       0   12265   12266   12266       0
   12268   12269   12269       0   12271   12272   12272       0   12274   12275
   12275       0   12277   12278   12278       0   12280   12281   12281       0
   12283   12284   12284       0   12286   12287   12287       0   12289   12290
   12290       0   12292   12293   12293       0   12295   12296   12296       0
   12298   12299   12299       0   12301   12302   12302       0   12304   12305
   12305       0   12307   12308   12308       0   12310   12311   12311       0
   12313   12314   12314       0   12316   12317   12317       0   12319   12320
   12320       0   12322   12323   12323       0   12325   12326   12326       0
   12328   12329   12329       0   12331   12332   12332       0   12334   12335
   12335       0   12337   12338   12338       0   12340   12341   12341       0
   12343   12344   12344       0   12346   12347   12347       0   12349   12350
   12350       0   12352   12353   12353       0   12355   12356   12356       0
   12358   12359   12359       0   12361   12362   12362       0   12364   12365
   12365       0   12367   12368   12368       0   12370   12371   12371       0
   12373   12374   12374       0   12376   12377   12377       0   12379   12380
   12380       0   12382   12383   12383       0   12385   12386   12386       0
   12388   12389   12389       0   12391   12392   12392       0   12394   12395
   12395       0   12397   12398   12398       0   12400   12401   12401       0
   12403   12404   12404       0   12406   12407   12407       0   12409   12410
   12410       0   12412   12413   12413       0   12415   12416   12416       0
   12418   12419   12419       0   12421   12422   12422       0   12424   12425
   12425       0   12427   12428   12428       0   12430   12431   12431       0
   12433   12434   12434       0   12436   12437   12437       0   12439   12440
   12440       0   12442   12443   12443       0   12445   12446   12446       0
   12448   12449   12449       0   12451   12452   12452       0   12454   12455
   12455       0   12457   12458   12458       0   12460   12461   12461       0
   12463   12464   12464       0   12466   12467   12467       0   12469   12470
   12470       0   12472   12473   12473       0   12475   12476   12476       0
   12478   12479   12479       0   12481   12482   12482       0   12484   12485
   12485       0   12487   12488   12488       0   12490   12491   12491       0
   12493   12494   12494       0   12496   12497   12497       0   12499   12500
   12500       0   12502   12503   12503       0   12505   12506   12506       0
   12508   12509   12509       0   12511   12512   12512       0   12514   12515
   12515       0   12517   12518   12518       0   12520   12521   12521       0
   12523   12524   12524       0   12526   12527   12527       0   12529   12530
   12530       0   12532   12533   12533       0   12535   12536   12536       0
   12538   12539   12539       0   12541   12542   12542       0   12544   12545
   12545       0   12547   12548   12548       0   12550   12551   12551       0
   12553   12554   12554       0   12556   12557   12557       0   12559   12560
   12560       0   12562   12563   12563       0   12565   12566   12566       0
   12568   12569   12569       0   12571   12572   12572       0   12574   12575
   12575       0   12577   12578   12578       0   12580   12581   12581       0
   12583   12584   12584       0   12586   12587   12587       0   12589   12590
   12590       0   12592   12593   12593       0   12595   12596   12596       0
   12598   12599   12599       0   12601   12602   12602       0   12604   12605
   12605       0   12607   12608   12608       0   12610   12611   12611       0
   12613   12614   12614       0   12616   12617   12617       0   12619   12620
   12620       0   12622   12623   12623       0   12625   12626   12626       0
   12628   12629   12629       0   12631   12632   12632       0   12634   12635
   12635       0   12637   12638   12638       0   12640   12641   12641       0
   12643   12644   12644       0   12646   12647   12647       0   12649   12650
   12650       0   12652   12653   12653       0   12655   12656   12656       0
   12658   12659   12659       0   12661   12662   12662       0   12664   12665
   12665       0   12667   12668   12668       0   12670   12671   12671       0
   12673   12674   12674       0   12676   12677   12677       0   12679   12680
   12680       0   12682   12683   12683       0   12685   12686   12686       0
   12688   12689   12689       0   12691   12692   12692       0   12694   12695
   12695       0   12697   12698   12698       0   12700   12701   12701       0
   12703   12704   12704       0   12706   12707   12707       0   12709   12710
   12710       0   12712   12713   12713       0   12715   12716   12716       0
   12718   12719   12719       0   12721   12722   12722       0   12724   12725
   12725       0   12727   12728   12728       0   12730   12731   12731       0
   12733   12734   12734       0   12736   12737   12737       0   12739   12740
   12740       0   12742   12743   12743       0   12745   12746   12746       0
   12748   12749   12749       0   12751   12752   12752       0   12754   12755
   12755       0   12757   12758   12758       0   12760   12761   12761       0
   12763   12764   12764       0   12766   12767   12767       0   12769   12770
   12770       0   12772   12773   12773       0   12775   12776   12776       0
   12778   12779   12779       0   12781   12782   12782       0   12784   12785
   12785       0   12787   12788   12788       0   12790   12791   12791       0
   12793   12794   12794       0   12796   12797   12797       0   12799   12800
   12800       0   12802   12803   12803       0   12805   12806   12806       0
   12808   12809   12809       0   12811   12812   12812       0   12814   12815
   12815       0   12817   12818   12818       0   12820   12821   12821       0
   12823   12824   12824       0   12826   12827   12827       0   12829   12830
   12830       0   12832   12833   12833       0   12835   12836   12836       0
   12838   12839   12839       0   12841   12842   12842       0   12844   12845
   12845       0   12847   12848   12848       0   12850   12851   12851       0
   12853   12854   12854       0   12856   12857   12857       0   12859   12860
   12860       0   12862   12863   12863       0   12865   12866   12866       0
   12868   12869   12869       0   12871   12872   12872       0   12874   12875
   12875       0   12877   12878   12878       0   12880   12881   12881       0
   12883   12884   12884       0   12886   12887   12887       0   12889   12890
   12890       0   12892   12893   12893       0   12895   12896   12896       0
   12898   12899   12899       0   12901   12902   12902       0   12904   12905
   12905       0   12907   12908   12908       0   12910   12911   12911       0
   12913   12914   12914       0   12916   12917   12917       0   12919   12920
   12920       0   12922   12923   12923       0   12925   12926   12926       0
   12928   12929   12929       0   12931   12932   12932       0   12934   12935
   12935       0   12937   12938   12938       0   12940   12941   12941       0
   12943   12944   12944       0   12946   12947   12947       0   12949   12950
   12950       0   12952   12953   12953       0   12955   12956   12956       0
   12958   12959   12959       0   12961   12962   12962       0   12964   12965
   12965       0   12967   12968   12968       0   12970   12971   12971       0
   12973   12974   12974       0   12976   12977   12977       0   12979   12980
   12980       0   12982   12983   12983       0   12985   12986   12986       0
   12988   12989   12989       0   12991   12992   12992       0   12994   12995
   12995       0   12997   12998   12998       0   13000   13001   13001       0
   13003   13004   13004       0   13006   13007   13007       0   13009   13010
   13010       0   13012   13013   13013       0   13015   13016   13016       0
   13018   13019   13019       0   13021   13022   13022       0   13024   13025
   13025       0   13027   13028   13028       0   13030   13031   13031       0
   13033   13034   13034       0   13036   13037   13037       0   13039   13040
   13040       0   13042   13043   13043       0   13045   13046   13046       0
   13048   13049   13049       0   13051   13052   13052       0   13054   13055
   13055       0   13057   13058   13058       0   13060   13061   13061       0
   13063   13064   13064       0   13066   13067   13067       0   13069   13070
   13070       0   13072   13073   13073       0   13075   13076   13076       0
   13078   13079   13079       0   13081   13082   13082       0   13084   13085
   13085       0   13087   13088   13088       0   13090   13091   13091       0
   13093   13094   13094       0   13096   13097   13097       0   13099   13100
   13100       0   13102   13103   13103       0   13105   13106   13106       0
   13108   13109   13109       0   13111   13112   13112       0   13114   13115
   13115       0   13117   13118   13118       0   13120   13121   13121       0
   13123   13124   13124       0   13126   13127   13127       0   13129   13130
   13130       0   13132   13133   13133       0   13135   13136   13136       0
   13138   13139   13139       0   13141   13142   13142       0   13144   13145
   13145       0   13147   13148   13148       0   13150   13151   13151       0
   13153   13154   13154       0   13156   13157   13157       0   13159   13160
   13160       0   13162   13163   13163       0   13165   13166   13166       0
   13168   13169   13169       0   13171   13172   13172       0   13174   13175
   13175       0   13177   13178   13178       0   13180   13181   13181       0
   13183   13184   13184       0   13186   13187   13187       0   13189   13190
   13190       0   13192   13193   13193       0   13195   13196   13196       0
   13198   13199   13199       0   13201   13202   13202       0   13204   13205
   13205       0   13207   13208   13208       0   13210   13211   13211       0
   13213   13214   13214       0   13216   13217   13217       0   13219   13220
   13220       0   13222   13223   13223       0   13225   13226   13226       0
   13228   13229   13229       0   13231   13232   13232       0   13234   13235
   13235       0   13237   13238   13238       0   13240   13241   13241       0
   13243   13244   13244       0   13246   13247   13247       0   13249   13250
   13250       0   13252   13253   13253       0   13255   13256   13256       0
   13258   13259   13259       0   13261   13262   13262       0   13264   13265
   13265       0   13267   13268   13268       0   13270   13271   13271       0
   13273   13274   13274       0   13276   13277   13277       0   13279   13280
   13280       0   13282   13283   13283       0   13285   13286   13286       0
   13288   13289   13289       0   13291   13292   13292       0   13294   13295
   13295       0   13297   13298   13298       0   13300   13301   13301       0
   13303   13304   13304       0   13306   13307   13307       0   13309   13310
   13310       0   13312   13313   13313       0   13315   13316   13316       0
   13318   13319   13319       0   13321   13322   13322       0   13324   13325
   13325       0   13327   13328   13328       0   13330   13331   13331       0
   13333   13334   13334       0   13336   13337   13337       0   13339   13340
   13340       0   13342   13343   13343       0   13345   13346   13346       0
   13348   13349   13349       0   13351   13352   13352       0   13354   13355
   13355       0   13357   13358   13358       0   13360   13361   13361       0
   13363   13364   13364       0   13366   13367   13367       0   13369   13370
   13370       0   13372   13373   13373       0   13375   13376   13376       0
   13378   13379   13379       0   13381   13382   13382       0   13384   13385
   13385       0   13387   13388   13388       0   13390   13391   13391       0
   13393   13394   13394       0   13396   13397   13397       0   13399   13400
   13400       0   13402   13403   13403       0   13405   13406   13406       0
   13408   13409   13409       0   13411   13412   13412       0   13414   13415
   13415       0   13417   13418   13418       0   13420   13421   13421       0
   13423   13424   13424       0   13426   13427   13427       0   13429   13430
   13430       0   13432   13433   13433       0   13435   13436   13436       0
   13438   13439   13439       0   13441   13442   13442       0   13444   13445
   13445       0   13447   13448   13448       0   13450   13451   13451       0
   13453   13454   13454       0   13456   13457   13457       0   13459   13460
   13460       0   13462   13463   13463       0   13465   13466   13466       0
   13468   13469   13469       0   13471   13472   13472       0   13474   13475
   13475       0   13477   13478   13478       0   13480   13481   13481       0
   13483   13484   13484       0   13486   13487   13487       0   13489   13490
   13490       0   13492   13493   13493       0   13495   13496   13496       0
   13498   13499   13499       0   13501   13502   13502       0   13504   13505
   13505       0   13507   13508   13508       0   13510   13511   13511       0
   13513   13514   13514       0   13516   13517   13517       0   13519   13520
   13520       0   13522   13523   13523       0   13525   13526   13526       0
   13528   13529   13529       0   13531   13532   13532       0   13534   13535
   13535       0   13537   13538   13538       0   13540   13541   13541       0
   13543   13544   13544       0   13546   13547   13547       0   13549   13550
   13550       0   13552   13553   13553       0   13555   13556   13556       0
   13558   13559   13559       0   13561   13562   13562       0   13564   13565
   13565       0   13567   13568   13568       0   13570   13571   13571       0
   13573   13574   13574       0   13576   13577   13577       0   13579   13580
   13580       0   13582   13583   13583       0   13585   13586   13586       0
   13588   13589   13589       0   13591   13592   13592       0   13594   13595
   13595       0   13597   13598   13598       0   13600   13601   13601       0
   13603   13604   13604       0   13606   13607   13607       0   13609   13610
   13610       0   13612   13613   13613       0   13615   13616   13616       0
   13618   13619   13619       0   13621   13622   13622       0   13624   13625
   13625       0   13627   13628   13628       0   13630   13631   13631       0
   13633   13634   13634       0   13636   13637   13637       0   13639   13640
   13640       0   13642   13643   13643       0   13645   13646   13646       0
   13648   13649   13649       0   13651   13652   13652       0   13654   13655
   13655       0   13657   13658   13658       0   13660   13661   13661       0
   13663   13664   13664       0   13666   13667   13667       0   13669   13670
   13670       0   13672   13673   13673       0   13675   13676   13676       0
   13678   13679   13679       0   13681   13682   13682       0   13684   13685
   13685       0   13687   13688   13688       0   13690   13691   13691       0
   13693   13694   13694       0   13696   13697   13697       0   13699   13700
   13700       0   13702   13703   13703       0   13705   13706   13706       0
   13708   13709   13709       0   13711   13712   13712       0   13714   13715
   13715       0   13717   13718   13718       0   13720   13721   13721       0
   13723   13724   13724       0   13726   13727   13727       0   13729   13730
   13730       0   13732   13733   13733       0   13735   13736   13736       0
   13738   13739   13739       0   13741   13742   13742       0   13744   13745
   13745       0   13747   13748   13748       0   13750   13751   13751       0
   13753   13754   13754       0   13756   13757   13757       0   13759   13760
   13760       0   13762   13763   13763       0   13765   13766   13766       0
   13768   13769   13769       0   13771   13772   13772       0   13774   13775
   13775       0   13777   13778   13778       0   13780   13781   13781       0
   13783   13784   13784       0   13786   13787   13787       0   13789   13790
   13790       0   13792   13793   13793       0   13795   13796   13796       0
   13798   13799   13799       0   13801   13802   13802       0   13804   13805
   13805       0   13807   13808   13808       0   13810   13811   13811       0
   13813   13814   13814       0   13816   13817   13817       0   13819   13820
   13820       0   13822   13823   13823       0   13825   13826   13826       0
   13828   13829   13829       0   13831   13832   13832       0   13834   13835
   13835       0   13837   13838   13838       0   13840   13841   13841       0
   13843   13844   13844       0   13846   13847   13847       0   13849   13850
   13850       0   13852   13853   13853       0   13855   13856   13856       0
   13858   13859   13859       0   13861   13862   13862       0   13864   13865
   13865       0   13867   13868   13868       0   13870   13871   13871       0
   13873   13874   13874       0   13876   13877   13877       0   13879   13880
   13880       0   13882   13883   13883       0   13885   13886   13886       0
   13888   13889   13889       0   13891   13892   13892       0   13894   13895
   13895       0   13897   13898   13898       0   13900   13901   13901       0
   13903   13904   13904       0   13906   13907   13907       0   13909   13910
   13910       0   13912   13913   13913       0   13915   13916   13916       0
   13918   13919   13919       0   13921   13922   13922       0   13924   13925
   13925       0   13927   13928   13928       0   13930   13931   13931       0
   13933   13934   13934       0   13936   13937   13937       0   13939   13940
   13940       0   13942   13943   13943       0   13945   13946   13946       0
   13948   13949   13949       0   13951   13952   13952       0   13954   13955
   13955       0   13957   13958   13958       0   13960   13961   13961       0
   13963   13964   13964       0   13966   13967   13967       0   13969   13970
   13970       0   13972   13973   13973       0   13975   13976   13976       0
   13978   13979   13979       0   13981   13982   13982       0   13984   13985
   13985       0   13987   13988   13988       0   13990   13991   13991       0
   13993   13994   13994       0   13996   13997   13997       0   13999   14000
   14000       0   14002   14003   14003       0   14005   14006   14006       0
   14008   14009   14009       0   14011   14012   14012       0   14014   14015
   14015       0   14017   14018   14018       0   14020   14021   14021       0
   14023   14024   14024       0   14026   14027   14027       0   14029   14030
   14030       0   14032   14033   14033       0   14035   14036   14036       0
   14038   14039   14039       0   14041   14042   14042       0   14044   14045
   14045       0   14047   14048   14048       0   14050   14051   14051       0
   14053   14054   14054       0   14056   14057   14057       0   14059   14060
   14060       0   14062   14063   14063       0   14065   14066   14066       0
   14068   14069   14069       0   14071   14072   14072       0   14074   14075
   14075       0   14077   14078   14078       0   14080   14081   14081       0
   14083   14084   14084       0   14086   14087   14087       0   14089   14090
   14090       0   14092   14093   14093       0   14095   14096   14096       0
   14098   14099   14099       0   14101   14102   14102       0   14104   14105
   14105       0   14107   14108   14108       0   14110   14111   14111       0
   14113   14114   14114       0   14116   14117   14117       0   14119   14120
   14120       0   14122   14123   14123       0   14125   14126   14126       0
   14128   14129   14129       0   14131   14132   14132       0   14134   14135
   14135       0   14137   14138   14138       0   14140   14141   14141       0
   14143   14144   14144       0   14146   14147   14147       0   14149   14150
   14150       0   14152   14153   14153       0   14155   14156   14156       0
   14158   14159   14159       0   14161   14162   14162       0   14164   14165
   14165       0   14167   14168   14168       0   14170   14171   14171       0
   14173   14174   14174       0   14176   14177   14177       0   14179   14180
   14180       0   14182   14183   14183       0   14185   14186   14186       0
   14188   14189   14189       0   14191   14192   14192       0   14194   14195
   14195       0   14197   14198   14198       0   14200   14201   14201       0
   14203   14204   14204       0   14206   14207   14207       0   14209   14210
   14210       0   14212   14213   14213       0   14215   14216   14216       0
   14218   14219   14219       0   14221   14222   14222       0   14224   14225
   14225       0   14227   14228   14228       0   14230   14231   14231       0
   14233   14234   14234       0   14236   14237   14237       0   14239   14240
   14240       0   14242   14243   14243       0   14245   14246   14246       0
   14248   14249   14249       0   14251   14252   14252       0   14254   14255
   14255       0   14257   14258   14258       0   14260   14261   14261       0
   14263   14264   14264       0   14266   14267   14267       0   14269   14270
   14270       0   14272   14273   14273       0   14275   14276   14276       0
   14278   14279   14279       0   14281   14282   14282       0   14284   14285
   14285       0   14287   14288   14288       0   14290   14291   14291       0
   14293   14294   14294       0   14296   14297   14297       0   14299   14300
   14300       0   14302   14303   14303       0   14305   14306   14306       0
   14308   14309   14309       0   14311   14312   14312       0   14314   14315
   14315       0   14317   14318   14318       0   14320   14321   14321       0
   14323   14324   14324       0   14326   14327   14327       0   14329   14330
   14330       0   14332   14333   14333       0   14335   14336   14336       0
   14338   14339   14339       0   14341   14342   14342       0   14344   14345
   14345       0   14347   14348   14348       0   14350   14351   14351       0
   14353   14354   14354       0   14356   14357   14357       0   14359   14360
   14360       0   14362   14363   14363       0   14365   14366   14366       0
   14368   14369   14369       0   14371   14372   14372       0   14374   14375
   14375       0   14377   14378   14378       0   14380   14381   14381       0
   14383   14384   14384       0   14386   14387   14387       0   14389   14390
   14390       0   14392   14393   14393       0   14395   14396   14396       0
   14398   14399   14399       0   14401   14402   14402       0   14404   14405
   14405       0   14407   14408   14408       0   14410   14411   14411       0
   14413   14414   14414       0   14416   14417   14417       0   14419   14420
   14420       0   14422   14423   14423       0   14425   14426   14426       0
   14428   14429   14429       0   14431   14432   14432       0   14434   14435
   14435       0   14437   14438   14438       0   14440   14441   14441       0
   14443   14444   14444       0   14446   14447   14447       0   14449   14450
   14450       0   14452   14453   14453       0   14455   14456   14456       0
   14458   14459   14459       0   14461   14462   14462       0   14464   14465
   14465       0   14467   14468   14468       0   14470   14471   14471       0
   14473   14474   14474       0   14476   14477   14477       0   14479   14480
   14480       0   14482   14483   14483       0   14485   14486   14486       0
   14488   14489   14489       0   14491   14492   14492       0   14494   14495
   14495       0   14497   14498   14498       0   14500   14501   14501       0
   14503   14504   14504       0   14506   14507   14507       0   14509   14510
   14510       0   14512   14513   14513       0   14515   14516   14516       0
   14518   14519   14519       0   14521   14522   14522       0   14524   14525
   14525       0   14527   14528   14528       0   14530   14531   14531       0
   14533   14534   14534       0   14536   14537   14537       0   14539   14540
   14540       0   14542   14543   14543       0   14545   14546   14546       0
   14548   14549   14549       0   14551   14552   14552       0   14554   14555
   14555       0   14557   14558   14558       0   14560   14561   14561       0
   14563   14564   14564       0   14566   14567   14567       0   14569   14570
   14570       0   14572   14573   14573       0   14575   14576   14576       0
   14578   14579   14579       0   14581   14582   14582       0   14584   14585
   14585       0   14587   14588   14588       0   14590   14591   14591       0
   14593   14594   14594       0   14596   14597   14597       0   14599   14600
   14600       0   14602   14603   14603       0   14605   14606   14606       0
   14608   14609   14609       0   14611   14612   14612       0   14614   14615
   14615       0   14617   14618   14618       0   14620   14621   14621       0
   14623   14624   14624       0   14626   14627   14627       0   14629   14630
   14630       0   14632   14633   14633       0   14635   14636   14636       0
   14638   14639   14639       0   14641   14642   14642       0   14644   14645
   14645       0   14647   14648   14648       0   14650   14651   14651       0
   14653   14654   14654       0   14656   14657   14657       0   14659   14660
   14660       0   14662   14663   14663       0   14665   14666   14666       0
   14668   14669   14669       0   14671   14672   14672       0   14674   14675
   14675       0   14677   14678   14678       0   14680   14681   14681       0
   14683   14684   14684       0   14686   14687   14687       0   14689   14690
   14690       0   14692   14693   14693       0   14695   14696   14696       0
   14698   14699   14699       0   14701   14702   14702       0   14704   14705
   14705       0   14707   14708   14708       0   14710   14711   14711       0
   14713   14714   14714       0   14716   14717   14717       0   14719   14720
   14720       0   14722   14723   14723       0   14725   14726   14726       0
   14728   14729   14729       0   14731   14732   14732       0   14734   14735
   14735       0   14737   14738   14738       0   14740   14741   14741       0
   14743   14744   14744       0   14746   14747   14747       0   14749   14750
   14750       0   14752   14753   14753       0   14755   14756   14756       0
   14758   14759   14759       0   14761   14762   14762       0   14764   14765
   14765       0   14767   14768   14768       0   14770   14771   14771       0
   14773   14774   14774       0   14776   14777   14777       0   14779   14780
   14780       0   14782   14783   14783       0   14785   14786   14786       0
   14788   14789   14789       0   14791   14792   14792       0   14794   14795
   14795       0   14797   14798   14798       0   14800   14801   14801       0
   14803   14804   14804       0   14806   14807   14807       0   14809   14810
   14810       0   14812   14813   14813       0   14815   14816   14816       0
   14818   14819   14819       0   14821   14822   14822       0   14824   14825
   14825       0   14827   14828   14828       0   14830   14831   14831       0
   14833   14834   14834       0   14836   14837   14837       0   14839   14840
   14840       0   14842   14843   14843       0   14845   14846   14846       0
   14848   14849   14849       0   14851   14852   14852       0   14854   14855
   14855       0   14857   14858   14858       0   14860   14861   14861       0
   14863   14864   14864       0   14866   14867   14867       0   14869   14870
   14870       0   14872   14873   14873       0   14875   14876   14876       0
   14878   14879   14879       0   14881   14882   14882       0   14884   14885
   14885       0   14887   14888   14888       0   14890   14891   14891       0
   14893   14894   14894       0   14896   14897   14897       0   14899   14900
   14900       0   14902   14903   14903       0   14905   14906   14906       0
   14908   14909   14909       0   14911   14912   14912       0   14914   14915
   14915       0   14917   14918   14918       0   14920   14921   14921       0
   14923   14924   14924       0   14926   14927   14927       0   14929   14930
   14930       0   14932   14933   14933       0   14935   14936   14936       0
   14938   14939   14939       0   14941   14942   14942       0   14944   14945
   14945       0   14947   14948   14948       0   14950   14951   14951       0
   14953   14954   14954       0   14956   14957   14957       0   14959   14960
   14960       0   14962   14963   14963       0   14965   14966   14966       0
   14968   14969   14969       0   14971   14972   14972       0   14974   14975
   14975       0   14977   14978   14978       0   14980   14981   14981       0
   14983   14984   14984       0   14986   14987   14987       0   14989   14990
   14990       0   14992   14993   14993       0   14995   14996   14996       0
   14998   14999   14999       0   15001   15002   15002       0   15004   15005
   15005       0   15007   15008   15008       0   15010   15011   15011       0
   15013   15014   15014       0   15016   15017   15017       0   15019   15020
   15020       0   15022   15023   15023       0   15025   15026   15026       0
   15028   15029   15029       0   15031   15032   15032       0   15034   15035
   15035       0   15037   15038   15038       0   15040   15041   15041       0
   15043   15044   15044       0   15046   15047   15047       0   15049   15050
   15050       0   15052   15053   15053       0   15055   15056   15056       0
   15058   15059   15059       0   15061   15062   15062       0   15064   15065
   15065       0   15067   15068   15068       0   15070   15071   15071       0
   15073   15074   15074       0   15076   15077   15077       0   15079   15080
   15080       0   15082   15083   15083       0   15085   15086   15086       0
   15088   15089   15089       0   15091   15092   15092       0   15094   15095
   15095       0   15097   15098   15098       0   15100   15101   15101       0
   15103   15104   15104       0   15106   15107   15107       0   15109   15110
   15110       0   15112   15113   15113       0   15115   15116   15116       0
   15118   15119   15119       0   15121   15122   15122       0   15124   15125
   15125       0   15127   15128   15128       0   15130   15131   15131       0
   15133   15134   15134       0   15136   15137   15137       0   15139   15140
   15140       0   15142   15143   15143       0   15145   15146   15146       0
   15148   15149   15149       0   15151   15152   15152       0   15154   15155
   15155       0   15157   15158   15158       0   15160   15161   15161       0
   15163   15164   15164       0   15166   15167   15167       0   15169   15170
   15170       0   15172   15173   15173       0   15175   15176   15176       0
   15178   15179   15179       0   15181   15182   15182       0   15184   15185
   15185       0   15187   15188   15188       0   15190   15191   15191       0
   15193   15194   15194       0   15196   15197   15197       0   15199   15200
   15200       0   15202   15203   15203       0   15205   15206   15206       0
   15208   15209   15209       0   15211   15212   15212       0   15214   15215
   15215       0   15217   15218   15218       0   15220   15221   15221       0
   15223   15224   15224       0   15226   15227   15227       0   15229   15230
   15230       0   15232   15233   15233       0   15235   15236   15236       0
   15238   15239   15239       0   15241   15242   15242       0   15244   15245
   15245       0   15247   15248   15248       0   15250   15251   15251       0
   15253   15254   15254       0   15256   15257   15257       0   15259   15260
   15260       0   15262   15263   15263       0   15265   15266   15266       0
   15268   15269   15269       0   15271   15272   15272       0   15274   15275
   15275       0   15277   15278   15278       0   15280   15281   15281       0
   15283   15284   15284       0   15286   15287   15287       0   15289   15290
   15290       0   15292   15293   15293       0   15295   15296   15296       0
   15298   15299   15299       0   15301   15302   15302       0   15304   15305
   15305       0   15307   15308   15308       0   15310   15311   15311       0
   15313   15314   15314       0   15316   15317   15317       0   15319   15320
   15320       0   15322   15323   15323       0   15325   15326   15326       0
   15328   15329   15329       0   15331   15332   15332       0   15334   15335
   15335       0   15337   15338   15338       0   15340   15341   15341       0
   15343   15344   15344       0   15346   15347   15347       0   15349   15350
   15350       0   15352   15353   15353       0   15355   15356   15356       0
   15358   15359   15359       0   15361   15362   15362       0   15364   15365
   15365       0   15367   15368   15368       0   15370   15371   15371       0
   15373   15374   15374       0   15376   15377   15377       0   15379   15380
   15380       0   15382   15383   15383       0   15385   15386   15386       0
   15388   15389   15389       0   15391   15392   15392       0   15394   15395
   15395       0   15397   15398   15398       0   15400   15401   15401       0
   15403   15404   15404       0   15406   15407   15407       0   15409   15410
   15410       0   15412   15413   15413       0   15415   15416   15416       0
   15418   15419   15419       0   15421   15422   15422       0   15424   15425
   15425       0   15427   15428   15428       0   15430   15431   15431       0
   15433   15434   15434       0   15436   15437   15437       0   15439   15440
   15440       0   15442   15443   15443       0   15445   15446   15446       0
   15448   15449   15449       0   15451   15452   15452       0   15454   15455
   15455       0   15457   15458   15458       0   15460   15461   15461       0
   15463   15464   15464       0   15466   15467   15467       0   15469   15470
   15470       0   15472   15473   15473       0   15475   15476   15476       0
   15478   15479   15479       0   15481   15482   15482       0   15484   15485
   15485       0   15487   15488   15488       0   15490   15491   15491       0
   15493   15494   15494       0   15496   15497   15497       0   15499   15500
   15500       0   15502   15503   15503       0   15505   15506   15506       0
   15508   15509   15509       0   15511   15512   15512       0   15514   15515
   15515       0   15517   15518   15518       0   15520   15521   15521       0
   15523   15524   15524       0   15526   15527   15527       0   15529   15530
   15530       0   15532   15533   15533       0   15535   15536   15536       0
   15538   15539   15539       0   15541   15542   15542       0   15544   15545
   15545       0   15547   15548   15548       0   15550   15551   15551       0
   15553   15554   15554       0   15556   15557   15557       0   15559   15560
   15560       0   15562   15563   15563       0   15565   15566   15566       0
   15568   15569   15569       0   15571   15572   15572       0   15574   15575
   15575       0   15577   15578   15578       0   15580   15581   15581       0
   15583   15584   15584       0   15586   15587   15587       0   15589   15590
   15590       0   15592   15593   15593       0   15595   15596   15596       0
   15598   15599   15599       0   15601   15602   15602       0   15604   15605
   15605       0   15607   15608   15608       0   15610   15611   15611       0
   15613   15614   15614       0   15616   15617   15617       0   15619   15620
   15620       0   15622   15623   15623       0   15625   15626   15626       0
   15628   15629   15629       0   15631   15632   15632       0   15634   15635
   15635       0   15637   15638   15638       0   15640   15641   15641       0
   15643   15644   15644       0   15646   15647   15647       0   15649   15650
   15650       0   15652   15653   15653       0   15655   15656   15656       0
   15658   15659   15659       0   15661   15662   15662       0   15664   15665
   15665       0   15667   15668   15668       0   15670   15671   15671       0
   15673   15674   15674       0   15676   15677   15677       0   15679   15680
   15680       0   15682   15683   15683       0   15685   15686   15686       0
   15688   15689   15689       0   15691   15692   15692       0   15694   15695
   15695       0   15697   15698   15698       0   15700   15701   15701       0
   15703   15704   15704       0   15706   15707   15707       0   15709   15710
   15710       0   15712   15713   15713       0   15715   15716   15716       0
   15718   15719   15719       0   15721   15722   15722       0   15724   15725
   15725       0   15727   15728   15728       0   15730   15731   15731       0
   15733   15734   15734       0   15736   15737   15737       0   15739   15740
   15740       0   15742   15743   15743       0   15745   15746   15746       0
   15748   15749   15749       0   15751   15752   15752       0   15754   15755
   15755       0   15757   15758   15758       0   15760   15761   15761       0
   15763   15764   15764       0   15766   15767   15767       0   15769   15770
   15770       0   15772   15773   15773       0   15775   15776   15776       0
   15778   15779   15779       0   15781   15782   15782       0   15784   15785
   15785       0   15787   15788   15788       0   15790   15791   15791       0
   15793   15794   15794       0   15796   15797   15797       0   15799   15800
   15800       0   15802   15803   15803       0   15805   15806   15806       0
   15808   15809   15809       0   15811   15812   15812       0   15814   15815
   15815       0   15817   15818   15818       0   15820   15821   15821       0
   15823   15824   15824       0   15826   15827   15827       0   15829   15830
   15830       0   15832   15833   15833       0   15835   15836   15836       0
   15838   15839   15839       0   15841   15842   15842       0   15844   15845
   15845       0   15847   15848   15848       0   15850   15851   15851       0
   15853   15854   15854       0   15856   15857   15857       0   15859   15860
   15860       0   15862   15863   15863       0   15865   15866   15866       0
   15868   15869   15869       0   15871   15872   15872       0   15874   15875
   15875       0   15877   15878   15878       0   15880   15881   15881       0
   15883   15884   15884       0   15886   15887   15887       0   15889   15890
   15890       0   15892   15893   15893       0   15895   15896   15896       0
   15898   15899   15899       0   15901   15902   15902       0   15904   15905
   15905       0   15907   15908   15908       0   15910   15911   15911       0
   15913   15914   15914       0   15916   15917   15917       0   15919   15920
   15920       0   15922   15923   15923       0   15925   15926   15926       0
   15928   15929   15929       0   15931   15932   15932       0   15934   15935
   15935       0   15937   15938   15938       0   15940   15941   15941       0
   15943   15944   15944       0   15946   15947   15947       0   15949   15950
   15950       0   15952   15953   15953       0   15955   15956   15956       0
   15958   15959   15959       0   15961   15962   15962       0   15964   15965
   15965       0   15967   15968   15968       0   15970   15971   15971       0
   15973   15974   15974       0   15976   15977   15977       0   15979   15980
   15980       0   15982   15983   15983       0   15985   15986   15986       0
   15988   15989   15989       0   15991   15992   15992       0   15994   15995
   15995       0   15997   15998   15998       0   16000   16001   16001       0
   16003   16004   16004       0   16006   16007   16007       0   16009   16010
   16010       0   16012   16013   16013       0   16015   16016   16016       0
   16018   16019   16019       0   16021   16022   16022       0   16024   16025
   16025       0   16027   16028   16028       0   16030   16031   16031       0
   16033   16034   16034       0   16036   16037   16037       0   16039   16040
   16040       0   16042   16043   16043       0   16045   16046   16046       0
   16048   16049   16049       0   16051   16052   16052       0   16054   16055
   16055       0   16057   16058   16058       0   16060   16061   16061       0
   16063   16064   16064       0   16066   16067   16067       0   16069   16070
   16070       0   16072   16073   16073       0   16075   16076   16076       0
   16078   16079   16079       0   16081   16082   16082       0   16084   16085
   16085       0   16087   16088   16088       0   16090   16091   16091       0
   16093   16094   16094       0   16096   16097   16097       0   16099   16100
   16100       0   16102   16103   16103       0   16105   16106   16106       0
   16108   16109   16109       0   16111   16112   16112       0   16114   16115
   16115       0   16117   16118   16118       0   16120   16121   16121       0
   16123   16124   16124       0   16126   16127   16127       0   16129   16130
   16130       0   16132   16133   16133       0   16135   16136   16136       0
   16138   16139   16139       0   16141   16142   16142       0   16144   16145
   16145       0   16147   16148   16148       0   16150   16151   16151       0
   16153   16154   16154       0   16156   16157   16157       0   16159   16160
   16160       0   16162   16163   16163       0   16165   16166   16166       0
   16168   16169   16169       0   16171   16172   16172       0   16174   16175
   16175       0   16177   16178   16178       0   16180   16181   16181       0
   16183   16184   16184       0   16186   16187   16187       0   16189   16190
   16190       0   16192   16193   16193       0   16195   16196   16196       0
   16198   16199   16199       0   16201   16202   16202       0   16204   16205
   16205       0   16207   16208   16208       0   16210   16211   16211       0
   16213   16214   16214       0   16216   16217   16217       0   16219   16220
   16220       0   16222   16223   16223       0   16225   16226   16226       0
   16228   16229   16229       0   16231   16232   16232       0   16234   16235
   16235       0   16237   16238   16238       0   16240   16241   16241       0
   16243   16244   16244       0   16246   16247   16247       0   16249   16250
   16250       0   16252   16253   16253       0   16255   16256   16256       0
   16258   16259   16259       0   16261   16262   16262       0   16264   16265
   16265       0   16267   16268   16268       0   16270   16271   16271       0
   16273   16274   16274       0   16276   16277   16277       0   16279   16280
   16280       0   16282   16283   16283       0   16285   16286   16286       0
   16288   16289   16289       0   16291   16292   16292       0   16294   16295
   16295       0   16297   16298   16298       0   16300   16301   16301       0
   16303   16304   16304       0   16306   16307   16307       0   16309   16310
   16310       0   16312   16313   16313       0   16315   16316   16316       0
   16318   16319   16319       0   16321   16322   16322       0   16324   16325
   16325       0   16327   16328   16328       0   16330   16331   16331       0
   16333   16334   16334       0   16336   16337   16337       0   16339   16340
   16340       0   16342   16343   16343       0   16345   16346   16346       0
   16348   16349   16349       0   16351   16352   16352       0   16354   16355
   16355       0   16357   16358   16358       0   16360   16361   16361       0
   16363   16364   16364       0   16366   16367   16367       0   16369   16370
   16370       0   16372   16373   16373       0   16375   16376   16376       0
   16378   16379   16379       0   16381   16382   16382       0   16384   16385
   16385       0   16387   16388   16388       0   16390   16391   16391       0
   16393   16394   16394       0   16396   16397   16397       0   16399   16400
   16400       0   16402   16403   16403       0   16405   16406   16406       0
   16408   16409   16409       0   16411   16412   16412       0   16414   16415
   16415       0   16417   16418   16418       0   16420   16421   16421       0
   16423   16424   16424       0   16426   16427   16427       0   16429   16430
   16430       0   16432   16433   16433       0   16435   16436   16436       0
   16438   16439   16439       0   16441   16442   16442       0   16444   16445
   16445       0   16447   16448   16448       0   16450   16451   16451       0
   16453   16454   16454       0   16456   16457   16457       0   16459   16460
   16460       0   16462   16463   16463       0   16465   16466   16466       0
   16468   16469   16469       0   16471   16472   16472       0   16474   16475
   16475       0   16477   16478   16478       0   16480   16481   16481       0
   16483   16484   16484       0   16486   16487   16487       0   16489   16490
   16490       0   16492   16493   16493       0   16495   16496   16496       0
   16498   16499   16499       0   16501   16502   16502       0   16504   16505
   16505       0   16507   16508   16508       0   16510   16511   16511       0
   16513   16514   16514       0   16516   16517   16517       0   16519   16520
   16520       0   16522   16523   16523       0   16525   16526   16526       0
   16528   16529   16529       0   16531   16532   16532       0   16534   16535
   16535       0   16537   16538   16538       0   16540   16541   16541       0
   16543   16544   16544       0   16546   16547   16547       0   16549   16550
   16550       0   16552   16553   16553       0   16555   16556   16556       0
   16558   16559   16559       0   16561   16562   16562       0   16564   16565
   16565       0   16567   16568   16568       0   16570   16571   16571       0
   16573   16574   16574       0   16576   16577   16577       0   16579   16580
   16580       0   16582   16583   16583       0   16585   16586   16586       0
   16588   16589   16589       0   16591   16592   16592       0   16594   16595
   16595       0   16597   16598   16598       0   16600   16601   16601       0
   16603   16604   16604       0   16606   16607   16607       0   16609   16610
   16610       0   16612   16613   16613       0   16615   16616   16616       0
   16618   16619   16619       0   16621   16622   16622       0   16624   16625
   16625       0   16627   16628   16628       0   16630   16631   16631       0
   16633   16634   16634       0   16636   16637   16637       0   16639   16640
   16640       0   16642   16643   16643       0   16645   16646   16646       0
   16648   16649   16649       0   16651   16652   16652       0   16654   16655
   16655       0   16657   16658   16658       0   16660   16661   16661       0
   16663   16664   16664       0   16666   16667   16667       0   16669   16670
   16670       0   16672   16673   16673       0   16675   16676   16676       0
   16678   16679   16679       0   16681   16682   16682       0   16684   16685
   16685       0   16687   16688   16688       0   16690   16691   16691       0
   16693   16694   16694       0   16696   16697   16697       0   16699   16700
   16700       0   16702   16703   16703       0   16705   16706   16706       0
   16708   16709   16709       0   16711   16712   16712       0   16714   16715
   16715       0   16717   16718   16718       0   16720   16721   16721       0
   16723   16724   16724       0   16726   16727   16727       0   16729   16730
   16730       0   16732   16733   16733       0   16735   16736   16736       0
   16738   16739   16739       0   16741   16742   16742       0   16744   16745
   16745       0   16747   16748   16748       0   16750   16751   16751       0
   16753   16754   16754       0   16756   16757   16757       0   16759   16760
   16760       0   16762   16763   16763       0   16765   16766   16766       0
   16768   16769   16769       0   16771   16772   16772       0   16774   16775
   16775       0   16777   16778   16778       0   16780   16781   16781       0
   16783   16784   16784       0   16786   16787   16787       0   16789   16790
   16790       0   16792   16793   16793       0   16795   16796   16796       0
   16798   16799   16799       0   16801   16802   16802       0   16804   16805
   16805       0   16807   16808   16808       0   16810   16811   16811       0
   16813   16814   16814       0   16816   16817   16817       0   16819   16820
   16820       0   16822   16823   16823       0   16825   16826   16826       0
   16828   16829   16829       0   16831   16832   16832       0   16834   16835
   16835       0   16837   16838   16838       0   16840   16841   16841       0
   16843   16844   16844       0   16846   16847   16847       0   16849   16850
   16850       0   16852   16853   16853       0   16855   16856   16856       0
   16858   16859   16859       0   16861   16862   16862       0   16864   16865
   16865       0   16867   16868   16868       0   16870   16871   16871       0
   16873   16874   16874       0   16876   16877   16877       0   16879   16880
   16880       0   16882   16883   16883       0   16885   16886   16886       0
   16888   16889   16889       0   16891   16892   16892       0   16894   16895
   16895       0   16897   16898   16898       0   16900   16901   16901       0
   16903   16904   16904       0   16906   16907   16907       0   16909   16910
   16910       0   16912   16913   16913       0   16915   16916   16916       0
   16918   16919   16919       0   16921   16922   16922       0   16924   16925
   16925       0   16927   16928   16928       0   16930   16931   16931       0
   16933   16934   16934       0   16936   16937   16937       0   16939   16940
   16940       0   16942   16943   16943       0   16945   16946   16946       0
   16948   16949   16949       0   16951   16952   16952       0   16954   16955
   16955       0   16957   16958   16958       0   16960   16961   16961       0
   16963   16964   16964       0   16966   16967   16967       0   16969   16970
   16970       0   16972   16973   16973       0   16975   16976   16976       0
   16978   16979   16979       0   16981   16982   16982       0   16984   16985
   16985       0   16987   16988   16988       0   16990   16991   16991       0
   16993   16994   16994       0   16996   16997   16997       0   16999   17000
   17000       0   17002   17003   17003       0   17005   17006   17006       0
   17008   17009   17009       0   17011   17012   17012       0   17014   17015
   17015       0   17017   17018   17018       0   17020   17021   17021       0
   17023   17024   17024       0   17026   17027   17027       0   17029   17030
   17030       0   17032   17033   17033       0   17035   17036   17036       0
   17038   17039   17039       0   17041   17042   17042       0   17044   17045
   17045       0   17047   17048   17048       0   17050   17051   17051       0
   17053   17054   17054       0   17056   17057   17057       0   17059   17060
   17060       0   17062   17063   17063       0   17065   17066   17066       0
   17068   17069   17069       0   17071   17072   17072       0   17074   17075
   17075       0   17077   17078   17078       0   17080   17081   17081       0
   17083   17084   17084       0   17086   17087   17087       0   17089   17090
   17090       0   17092   17093   17093       0   17095   17096   17096       0
   17098   17099   17099       0   17101   17102   17102       0   17104   17105
   17105       0   17107   17108   17108       0   17110   17111   17111       0
   17113   17114   17114       0   17116   17117   17117       0   17119   17120
   17120       0   17122   17123   17123       0   17125   17126   17126       0
   17128   17129   17129       0   17131   17132   17132       0   17134   17135
   17135       0   17137   17138   17138       0   17140   17141   17141       0
   17143   17144   17144       0   17146   17147   17147       0   17149   17150
   17150       0   17152   17153   17153       0   17155   17156   17156       0
   17158   17159   17159       0   17161   17162   17162       0   17164   17165
   17165       0   17167   17168   17168       0   17170   17171   17171       0
   17173   17174   17174       0   17176   17177   17177       0   17179   17180
   17180       0   17182   17183   17183       0   17185   17186   17186       0
   17188   17189   17189       0   17191   17192   17192       0   17194   17195
   17195       0   17197   17198   17198       0   17200   17201   17201       0
   17203   17204   17204       0   17206   17207   17207       0   17209   17210
   17210       0   17212   17213   17213       0   17215   17216   17216       0
   17218   17219   17219       0   17221   17222   17222       0   17224   17225
   17225       0   17227   17228   17228       0   17230   17231   17231       0
   17233   17234   17234       0   17236   17237   17237       0   17239   17240
   17240       0   17242   17243   17243       0   17245   17246   17246       0
   17248   17249   17249       0   17251   17252   17252       0   17254   17255
   17255       0   17257   17258   17258       0   17260   17261   17261       0
   17263   17264   17264       0   17266   17267   17267       0   17269   17270
   17270       0   17272   17273   17273       0   17275   17276   17276       0
   17278   17279   17279       0   17281   17282   17282       0   17284   17285
   17285       0   17287   17288   17288       0   17290   17291   17291       0
   17293   17294   17294       0   17296   17297   17297       0   17299   17300
   17300       0   17302   17303   17303       0   17305   17306   17306       0
   17308   17309   17309       0   17311   17312   17312       0   17314   17315
   17315       0   17317   17318   17318       0   17320   17321   17321       0
   17323   17324   17324       0   17326   17327   17327       0   17329   17330
   17330       0   17332   17333   17333       0   17335   17336   17336       0
   17338   17339   17339       0   17341   17342   17342       0   17344   17345
   17345       0   17347   17348   17348       0   17350   17351   17351       0
   17353   17354   17354       0   17356   17357   17357       0   17359   17360
   17360       0   17362   17363   17363       0   17365   17366   17366       0
   17368   17369   17369       0   17371   17372   17372       0   17374   17375
   17375       0   17377   17378   17378       0   17380   17381   17381       0
   17383   17384   17384       0   17386   17387   17387       0   17389   17390
   17390       0   17392   17393   17393       0   17395   17396   17396       0
   17398   17399   17399       0   17401   17402   17402       0   17404   17405
   17405       0   17407   17408   17408       0   17410   17411   17411       0
   17413   17414   17414       0   17416   17417   17417       0   17419   17420
   17420       0   17422   17423   17423       0   17425   17426   17426       0
   17428   17429   17429       0   17431   17432   17432       0   17434   17435
   17435       0   17437   17438   17438       0   17440   17441   17441       0
   17443   17444   17444       0   17446   17447   17447       0   17449   17450
   17450       0   17452   17453   17453       0   17455   17456   17456       0
   17458   17459   17459       0   17461   17462   17462       0   17464   17465
   17465       0   17467   17468   17468       0   17470   17471   17471       0
   17473   17474   17474       0   17476   17477   17477       0   17479   17480
   17480       0   17482   17483   17483       0   17485   17486   17486       0
   17488   17489   17489       0   17491   17492   17492       0   17494   17495
   17495       0   17497   17498   17498       0   17500   17501   17501       0
   17503   17504   17504       0   17506   17507   17507       0   17509   17510
   17510       0   17512   17513   17513       0   17515   17516   17516       0
   17518   17519   17519       0   17521   17522   17522       0   17524   17525
   17525       0   17527   17528   17528       0   17530   17531   17531       0
   17533   17534   17534       0   17536   17537   17537       0   17539   17540
   17540       0   17542   17543   17543       0   17545   17546   17546       0
   17548   17549   17549       0   17551   17552   17552       0   17554   17555
   17555       0   17557   17558   17558       0   17560   17561   17561       0
   17563   17564   17564       0   17566   17567   17567       0   17569   17570
   17570       0   17572   17573   17573       0   17575   17576   17576       0
   17578   17579   17579       0   17581   17582   17582       0   17584   17585
   17585       0   17587   17588   17588       0   17590   17591   17591       0
   17593   17594   17594       0   17596   17597   17597       0   17599   17600
   17600       0   17602   17603   17603       0   17605   17606   17606       0
   17608   17609   17609       0   17611   17612   17612       0   17614   17615
   17615       0   17617   17618   17618       0   17620   17621   17621       0
   17623   17624   17624       0   17626   17627   17627       0   17629   17630
   17630       0   17632   17633   17633       0   17635   17636   17636       0
   17638   17639   17639       0   17641   17642   17642       0   17644   17645
   17645       0   17647   17648   17648       0   17650   17651   17651       0
   17653   17654   17654       0   17656   17657   17657       0   17659   17660
   17660       0   17662   17663   17663       0   17665   17666   17666       0
   17668   17669   17669       0   17671   17672   17672       0   17674   17675
   17675       0   17677   17678   17678       0   17680   17681   17681       0
   17683   17684   17684       0   17686   17687   17687       0   17689   17690
   17690       0   17692   17693   17693       0   17695   17696   17696       0
   17698   17699   17699       0   17701   17702   17702       0   17704   17705
   17705       0   17707   17708   17708       0   17710   17711   17711       0
   17713   17714   17714       0   17716   17717   17717       0   17719   17720
   17720       0   17722   17723   17723       0   17725   17726   17726       0
   17728   17729   17729       0   17731   17732   17732       0   17734   17735
   17735       0   17737   17738   17738       0   17740   17741   17741       0
   17743   17744   17744       0   17746   17747   17747       0   17749   17750
   17750       0   17752   17753   17753       0   17755   17756   17756       0
   17758   17759   17759       0   17761   17762   17762       0   17764   17765
   17765       0   17767   17768   17768       0   17770   17771   17771       0
   17773   17774   17774       0   17776   17777   17777       0   17779   17780
   17780       0   17782   17783   17783       0   17785   17786   17786       0
   17788   17789   17789       0   17791   17792   17792       0   17794   17795
   17795       0   17797   17798   17798       0   17800   17801   17801       0
   17803   17804   17804       0   17806   17807   17807       0   17809   17810
   17810       0   17812   17813   17813       0   17815   17816   17816       0
   17818   17819   17819       0   17821   17822   17822       0   17824   17825
   17825       0   17827   17828   17828       0   17830   17831   17831       0
   17833   17834   17834       0   17836   17837   17837       0   17839   17840
   17840       0   17842   17843   17843       0   17845   17846   17846       0
   17848   17849   17849       0   17851   17852   17852       0   17854   17855
   17855       0   17857   17858   17858       0   17860   17861   17861       0
   17863   17864   17864       0   17866   17867   17867       0   17869   17870
   17870       0   17872   17873   17873       0   17875   17876   17876       0
   17878   17879   17879       0   17881   17882   17882       0   17884   17885
   17885       0   17887   17888   17888       0   17890   17891   17891       0
   17893   17894   17894       0   17896   17897   17897       0   17899   17900
   17900       0   17902   17903   17903       0   17905   17906   17906       0
   17908   17909   17909       0   17911   17912   17912       0   17914   17915
   17915       0   17917   17918   17918       0   17920   17921   17921       0
   17923   17924   17924       0   17926   17927   17927       0   17929   17930
   17930       0   17932   17933   17933       0   17935   17936   17936       0
   17938   17939   17939       0   17941   17942   17942       0   17944   17945
   17945       0   17947   17948   17948       0   17950   17951   17951       0
   17953   17954   17954       0   17956   17957   17957       0   17959   17960
   17960       0   17962   17963   17963       0   17965   17966   17966       0
   17968   17969   17969       0   17971   17972   17972       0   17974   17975
   17975       0   17977   17978   17978       0   17980   17981   17981       0
   17983   17984   17984       0   17986   17987   17987       0   17989   17990
   17990       0   17992   17993   17993       0   17995   17996   17996       0
   17998   17999   17999       0   18001   18002   18002       0   18004   18005
   18005       0   18007   18008   18008       0   18010   18011   18011       0
   18013   18014   18014       0   18016   18017   18017       0   18019   18020
   18020       0   18022   18023   18023       0   18025   18026   18026       0
   18028   18029   18029       0   18031   18032   18032       0   18034   18035
   18035       0   18037   18038   18038       0   18040   18041   18041       0
   18043   18044   18044       0   18046   18047   18047       0   18049   18050
   18050       0   18052   18053   18053       0   18055   18056   18056       0
   18058   18059   18059       0   18061   18062   18062       0   18064   18065
   18065       0   18067   18068   18068       0   18070   18071   18071       0
   18073   18074   18074       0   18076   18077   18077       0   18079   18080
   18080       0   18082   18083   18083       0   18085   18086   18086       0
   18088   18089   18089       0   18091   18092   18092       0   18094   18095
   18095       0   18097   18098   18098       0   18100   18101   18101       0
   18103   18104   18104       0   18106   18107   18107       0   18109   18110
   18110       0   18112   18113   18113       0   18115   18116   18116       0
   18118   18119   18119       0   18121   18122   18122       0   18124   18125
   18125       0   18127   18128   18128       0   18130   18131   18131       0
   18133   18134   18134       0   18136   18137   18137       0   18139   18140
   18140       0   18142   18143   18143       0   18145   18146   18146       0
   18148   18149   18149       0   18151   18152   18152       0   18154   18155
   18155       0   18157   18158   18158       0   18160   18161   18161       0
   18163   18164   18164       0   18166   18167   18167       0   18169   18170
   18170       0   18172   18173   18173       0   18175   18176   18176       0
   18178   18179   18179       0   18181   18182   18182       0   18184   18185
   18185       0   18187   18188   18188       0   18190   18191   18191       0
   18193   18194   18194       0   18196   18197   18197       0   18199   18200
   18200       0   18202   18203   18203       0   18205   18206   18206       0
   18208   18209   18209       0   18211   18212   18212       0   18214   18215
   18215       0   18217   18218   18218       0   18220   18221   18221       0
   18223   18224   18224       0   18226   18227   18227       0   18229   18230
   18230       0   18232   18233   18233       0   18235   18236   18236       0
   18238   18239   18239       0   18241   18242   18242       0   18244   18245
   18245       0   18247   18248   18248       0   18250   18251   18251       0
   18253   18254   18254       0   18256   18257   18257       0   18259   18260
   18260       0   18262   18263   18263       0   18265   18266   18266       0
   18268   18269   18269       0   18271   18272   18272       0   18274   18275
   18275       0   18277   18278   18278       0   18280   18281   18281       0
   18283   18284   18284       0   18286   18287   18287       0   18289   18290
   18290       0   18292   18293   18293       0   18295   18296   18296       0
   18298   18299   18299       0   18301   18302   18302       0   18304   18305
   18305       0   18307   18308   18308       0   18310   18311   18311       0
   18313   18314   18314       0   18316   18317   18317       0   18319   18320
   18320       0   18322   18323   18323       0   18325   18326   18326       0
   18328   18329   18329       0   18331   18332   18332       0   18334   18335
   18335       0   18337   18338   18338       0   18340   18341   18341       0
   18343   18344   18344       0   18346   18347   18347       0   18349   18350
   18350       0   18352   18353   18353       0   18355   18356   18356       0
   18358   18359   18359       0   18361   18362   18362       0   18364   18365
   18365       0   18367   18368   18368       0   18370   18371   18371       0
   18373   18374   18374       0   18376   18377   18377       0   18379   18380
   18380       0   18382   18383   18383       0   18385   18386   18386       0
   18388   18389   18389       0   18391   18392   18392       0   18394   18395
   18395       0   18397   18398   18398       0   18400   18401   18401       0
   18403   18404   18404       0   18406   18407   18407       0   18409   18410
   18410       0   18412   18413   18413       0   18415   18416   18416       0
   18418   18419   18419       0   18421   18422   18422       0   18424   18425
   18425       0   18427   18428   18428       0   18430   18431   18431       0
   18433   18434   18434       0   18436   18437   18437       0   18439   18440
   18440       0   18442   18443   18443       0   18445   18446   18446       0
   18448   18449   18449       0   18451   18452   18452       0   18454   18455
   18455       0   18457   18458   18458       0   18460   18461   18461       0
   18463   18464   18464       0   18466   18467   18467       0   18469   18470
   18470       0   18472   18473   18473       0   18475   18476   18476       0
   18478   18479   18479       0   18481   18482   18482       0   18484   18485
   18485       0   18487   18488   18488       0   18490   18491   18491       0
   18493   18494   18494       0   18496   18497   18497       0   18499   18500
   18500       0   18502   18503   18503       0   18505   18506   18506       0
   18508   18509   18509       0   18511   18512   18512       0   18514   18515
   18515       0   18517   18518   18518       0   18520   18521   18521       0
   18523   18524   18524       0   18526   18527   18527       0   18529   18530
   18530       0   18532   18533   18533       0   18535   18536   18536       0
   18538   18539   18539       0   18541   18542   18542       0   18544   18545
   18545       0   18547   18548   18548       0   18550   18551   18551       0
   18553   18554   18554       0   18556   18557   18557       0   18559   18560
   18560       0   18562   18563   18563       0   18565   18566   18566       0
   18568   18569   18569       0   18571   18572   18572       0   18574   18575
   18575       0   18577   18578   18578       0   18580   18581   18581       0
   18583   18584   18584       0   18586   18587   18587       0   18589   18590
   18590       0   18592   18593   18593       0   18595   18596   18596       0
   18598   18599   18599       0   18601   18602   18602       0   18604   18605
   18605       0   18607   18608   18608       0   18610   18611   18611       0
   18613   18614   18614       0   18616   18617   18617       0   18619   18620
   18620       0   18622   18623   18623       0   18625   18626   18626       0
   18628   18629   18629       0   18631   18632   18632       0   18634   18635
   18635       0   18637   18638   18638       0   18640   18641   18641       0
   18643   18644   18644       0   18646   18647   18647       0   18649   18650
   18650       0   18652   18653   18653       0   18655   18656   18656       0
   18658   18659   18659       0   18661   18662   18662       0   18664   18665
   18665       0   18667   18668   18668       0   18670   18671   18671       0
   18673   18674   18674       0   18676   18677   18677       0   18679   18680
   18680       0   18682   18683   18683       0   18685   18686   18686       0
   18688   18689   18689       0   18691   18692   18692       0   18694   18695
   18695       0   18697   18698   18698       0   18700   18701   18701       0
   18703   18704   18704       0   18706   18707   18707       0   18709   18710
   18710       0   18712   18713   18713       0   18715   18716   18716       0
   18718   18719   18719       0   18721   18722   18722       0   18724   18725
   18725       0   18727   18728   18728       0   18730   18731   18731       0
   18733   18734   18734       0   18736   18737   18737       0   18739   18740
   18740       0   18742   18743   18743       0   18745   18746   18746       0
   18748   18749   18749       0   18751   18752   18752       0   18754   18755
   18755       0   18757   18758   18758       0   18760   18761   18761       0
   18763   18764   18764       0   18766   18767   18767       0   18769   18770
   18770       0   18772   18773   18773       0   18775   18776   18776       0
   18778   18779   18779       0   18781   18782   18782       0   18784   18785
   18785       0   18787   18788   18788       0   18790   18791   18791       0
   18793   18794   18794       0   18796   18797   18797       0   18799   18800
   18800       0   18802   18803   18803       0   18805   18806   18806       0
   18808   18809   18809       0   18811   18812   18812       0   18814   18815
   18815       0   18817   18818   18818       0   18820   18821   18821       0
   18823   18824   18824       0   18826   18827   18827       0   18829   18830
   18830       0   18832   18833   18833       0   18835   18836   18836       0
   18838   18839   18839       0   18841   18842   18842       0   18844   18845
   18845       0   18847   18848   18848       0   18850   18851   18851       0
   18853   18854   18854       0   18856   18857   18857       0   18859   18860
   18860       0   18862   18863   18863       0   18865   18866   18866       0
   18868   18869   18869       0   18871   18872   18872       0   18874   18875
   18875       0   18877   18878   18878       0   18880   18881   18881       0
   18883   18884   18884       0   18886   18887   18887       0   18889   18890
   18890       0   18892   18893   18893       0   18895   18896   18896       0
   18898   18899   18899       0   18901   18902   18902       0   18904   18905
   18905       0   18907   18908   18908       0   18910   18911   18911       0
   18913   18914   18914       0   18916   18917   18917       0   18919   18920
   18920       0   18922   18923   18923       0   18925   18926   18926       0
   18928   18929   18929       0   18931   18932   18932       0   18934   18935
   18935       0   18937   18938   18938       0   18940   18941   18941       0
   18943   18944   18944       0   18946   18947   18947       0   18949   18950
   18950       0   18952   18953   18953       0   18955   18956   18956       0
   18958   18959   18959       0   18961   18962   18962       0   18964   18965
   18965       0   18967   18968   18968       0   18970   18971   18971       0
   18973   18974   18974       0   18976   18977   18977       0   18979   18980
   18980       0   18982   18983   18983       0   18985   18986   18986       0
   18988   18989   18989       0   18991   18992   18992       0   18994   18995
   18995       0   18997   18998   18998       0   19000   19001   19001       0
   19003   19004   19004       0   19006   19007   19007       0   19009   19010
   19010       0   19012   19013   19013       0   19015   19016   19016       0
   19018   19019   19019       0   19021   19022   19022       0   19024   19025
   19025       0   19027   19028   19028       0   19030   19031   19031       0
   19033   19034   19034       0   19036   19037   19037       0   19039   19040
   19040       0   19042   19043   19043       0   19045   19046   19046       0
   19048   19049   19049       0   19051   19052   19052       0   19054   19055
   19055       0   19057   19058   19058       0   19060   19061   19061       0
   19063   19064   19064       0   19066   19067   19067       0   19069   19070
   19070       0   19072   19073   19073       0   19075   19076   19076       0
   19078   19079   19079       0   19081   19082   19082       0   19084   19085
   19085       0   19087   19088   19088       0   19090   19091   19091       0
   19093   19094   19094       0   19096   19097   19097       0   19099   19100
   19100       0   19102   19103   19103       0   19105   19106   19106       0
   19108   19109   19109       0   19111   19112   19112       0   19114   19115
   19115       0   19117   19118   19118       0   19120   19121   19121       0
   19123   19124   19124       0   19126   19127   19127       0   19129   19130
   19130       0   19132   19133   19133       0   19135   19136   19136       0
   19138   19139   19139       0   19141   19142   19142       0   19144   19145
   19145       0   19147   19148   19148       0   19150   19151   19151       0
   19153   19154   19154       0   19156   19157   19157       0   19159   19160
   19160       0   19162   19163   19163       0   19165   19166   19166       0
   19168   19169   19169       0   19171   19172   19172       0   19174   19175
   19175       0   19177   19178   19178       0   19180   19181   19181       0
   19183   19184   19184       0   19186   19187   19187       0   19189   19190
   19190       0   19192   19193   19193       0   19195   19196   19196       0
   19198   19199   19199       0   19201   19202   19202       0   19204   19205
   19205       0   19207   19208   19208       0   19210   19211   19211       0
   19213   19214   19214       0   19216   19217   19217       0   19219   19220
   19220       0   19222   19223   19223       0   19225   19226   19226       0
   19228   19229   19229       0   19231   19232   19232       0   19234   19235
   19235       0   19237   19238   19238       0   19240   19241   19241       0
   19243   19244   19244       0   19246   19247   19247       0   19249   19250
   19250       0   19252   19253   19253       0   19255   19256   19256       0
   19258   19259   19259       0   19261   19262   19262       0   19264   19265
   19265       0   19267   19268   19268       0   19270   19271   19271       0
   19273   19274   19274       0   19276   19277   19277       0   19279   19280
   19280       0   19282   19283   19283       0   19285   19286   19286       0
   19288   19289   19289       0   19291   19292   19292       0   19294   19295
   19295       0   19297   19298   19298       0   19300   19301   19301       0
   19303   19304   19304       0   19306   19307   19307       0   19309   19310
   19310       0   19312   19313   19313       0   19315   19316   19316       0
   19318   19319   19319       0   19321   19322   19322       0   19324   19325
   19325       0   19327   19328   19328       0   19330   19331   19331       0
   19333   19334   19334       0   19336   19337   19337       0   19339   19340
   19340       0   19342   19343   19343       0   19345   19346   19346       0
   19348   19349   19349       0   19351   19352   19352       0   19354   19355
   19355       0   19357   19358   19358       0   19360   19361   19361       0
   19363   19364   19364       0   19366   19367   19367       0   19369   19370
   19370       0   19372   19373   19373       0   19375   19376   19376       0
   19378   19379   19379       0   19381   19382   19382       0   19384   19385
   19385       0   19387   19388   19388       0   19390   19391   19391       0
   19393   19394   19394       0   19396   19397   19397       0   19399   19400
   19400       0   19402   19403   19403       0   19405   19406   19406       0
   19408   19409   19409       0   19411   19412   19412       0   19414   19415
   19415       0   19417   19418   19418       0   19420   19421   19421       0
   19423   19424   19424       0   19426   19427   19427       0   19429   19430
   19430       0   19432   19433   19433       0   19435   19436   19436       0
   19438   19439   19439       0   19441   19442   19442       0   19444   19445
   19445       0   19447   19448   19448       0   19450   19451   19451       0
   19453   19454   19454       0   19456   19457   19457       0   19459   19460
   19460       0   19462   19463   19463       0   19465   19466   19466       0
   19468   19469   19469       0   19471   19472   19472       0   19474   19475
   19475       0   19477   19478   19478       0   19480   19481   19481       0
   19483   19484   19484       0   19486   19487   19487       0   19489   19490
   19490       0   19492   19493   19493       0   19495   19496   19496       0
   19498   19499   19499       0   19501   19502   19502       0   19504   19505
   19505       0   19507   19508   19508       0   19510   19511   19511       0
   19513   19514   19514       0   19516   19517   19517       0   19519   19520
   19520       0   19522   19523   19523       0   19525   19526   19526       0
   19528   19529   19529       0   19531   19532   19532       0   19534   19535
   19535       0   19537   19538   19538       0   19540   19541   19541       0
   19543   19544   19544       0   19546   19547   19547       0   19549   19550
   19550       0   19552   19553   19553       0   19555   19556   19556       0
   19558   19559   19559       0   19561   19562   19562       0   19564   19565
   19565       0   19567   19568   19568       0   19570   19571   19571       0
   19573   19574   19574       0   19576   19577   19577       0   19579   19580
   19580       0   19582   19583   19583       0   19585   19586   19586       0
   19588   19589   19589       0   19591   19592   19592       0   19594   19595
   19595       0   19597   19598   19598       0   19600   19601   19601       0
   19603   19604   19604       0   19606   19607   19607       0   19609   19610
   19610       0   19612   19613   19613       0   19615   19616   19616       0
   19618   19619   19619       0   19621   19622   19622       0   19624   19625
   19625       0   19627   19628   19628       0   19630   19631   19631       0
   19633   19634   19634       0   19636   19637   19637       0   19639   19640
   19640       0   19642   19643   19643       0   19645   19646   19646       0
   19648   19649   19649       0   19651   19652   19652       0   19654   19655
   19655       0   19657   19658   19658       0   19660   19661   19661       0
   19663   19664   19664       0   19666   19667   19667       0   19669   19670
   19670       0   19672   19673   19673       0   19675   19676   19676       0
   19678   19679   19679       0   19681   19682   19682       0   19684   19685
   19685       0   19687   19688   19688       0   19690   19691   19691       0
   19693   19694   19694       0   19696   19697   19697       0   19699   19700
   19700       0   19702   19703   19703       0   19705   19706   19706       0
   19708   19709   19709       0   19711   19712   19712       0   19714   19715
   19715       0   19717   19718   19718       0   19720   19721   19721       0
   19723   19724   19724       0   19726   19727   19727       0   19729   19730
   19730       0   19732   19733   19733       0   19735   19736   19736       0
   19738   19739   19739       0   19741   19742   19742       0   19744   19745
   19745       0   19747   19748   19748       0   19750   19751   19751       0
   19753   19754   19754       0   19756   19757   19757       0   19759   19760
   19760       0   19762   19763   19763       0   19765   19766   19766       0
   19768   19769   19769       0   19771   19772   19772       0   19774   19775
   19775       0   19777   19778   19778       0   19780   19781   19781       0
   19783   19784   19784       0   19786   19787   19787       0   19789   19790
   19790       0   19792   19793   19793       0   19795   19796   19796       0
   19798   19799   19799       0   19801   19802   19802       0   19804   19805
   19805       0   19807   19808   19808       0   19810   19811   19811       0
   19813   19814   19814       0   19816   19817   19817       0   19819   19820
   19820       0   19822   19823   19823       0   19825   19826   19826       0
   19828   19829   19829       0   19831   19832   19832       0   19834   19835
   19835       0   19837   19838   19838       0   19840   19841   19841       0
   19843   19844   19844       0   19846   19847   19847       0   19849   19850
   19850       0   19852   19853   19853       0   19855   19856   19856       0
   19858   19859   19859       0   19861   19862   19862       0   19864   19865
   19865       0   19867   19868   19868       0   19870   19871   19871       0
   19873   19874   19874       0   19876   19877   19877       0   19879   19880
   19880       0   19882   19883   19883       0   19885   19886   19886       0
   19888   19889   19889       0   19891   19892   19892       0   19894   19895
   19895       0   19897   19898   19898       0   19900   19901   19901       0
   19903   19904   19904       0   19906   19907   19907       0   19909   19910
   19910       0   19912   19913   19913       0   19915   19916   19916       0
   19918   19919   19919       0   19921   19922   19922       0   19924   19925
   19925       0   19927   19928   19928       0   19930   19931   19931       0
   19933   19934   19934       0   19936   19937   19937       0   19939   19940
   19940       0   19942   19943   19943       0   19945   19946   19946       0
   19948   19949   19949       0   19951   19952   19952       0   19954   19955
   19955       0   19957   19958   19958       0   19960   19961   19961       0
   19963   19964   19964       0   19966   19967   19967       0   19969   19970
   19970       0   19972   19973   19973       0   19975   19976   19976       0
   19978   19979   19979       0   19981   19982   19982       0   19984   19985
   19985       0   19987   19988   19988       0   19990   19991   19991       0
   19993   19994   19994       0   19996   19997   19997       0   19999   20000
   20000       0   20002   20003   20003       0   20005   20006   20006       0
   20008   20009   20009       0   20011   20012   20012       0   20014   20015
   20015       0   20017   20018   20018       0   20020   20021   20021       0
   20023   20024   20024       0   20026   20027   20027       0   20029   20030
   20030       0   20032   20033   20033       0   20035   20036   20036       0
   20038   20039   20039       0   20041   20042   20042       0   20044   20045
   20045       0   20047   20048   20048       0   20050   20051   20051       0
   20053   20054   20054       0   20056   20057   20057       0   20059   20060
   20060       0   20062   20063   20063       0   20065   20066   20066       0
   20068   20069   20069       0   20071   20072   20072       0   20074   20075
   20075       0   20077   20078   20078       0   20080   20081   20081       0
   20083   20084   20084       0   20086   20087   20087       0   20089   20090
   20090       0   20092   20093   20093       0   20095   20096   20096       0
   20098   20099   20099       0   20101   20102   20102       0   20104   20105
   20105       0   20107   20108   20108       0   20110   20111   20111       0
   20113   20114   20114       0   20116   20117   20117       0   20119   20120
   20120       0   20122   20123   20123       0   20125   20126   20126       0
   20128   20129   20129       0   20131   20132   20132       0   20134   20135
   20135       0   20137   20138   20138       0   20140   20141   20141       0
   20143   20144   20144       0   20146   20147   20147       0   20149   20150
   20150       0   20152   20153   20153       0   20155   20156   20156       0
   20158   20159   20159       0   20161   20162   20162       0   20164   20165
   20165       0   20167   20168   20168       0   20170   20171   20171       0
   20173   20174   20174       0   20176   20177   20177       0   20179   20180
   20180       0   20182   20183   20183       0   20185   20186   20186       0
   20188   20189   20189       0   20191   20192   20192       0   20194   20195
   20195       0   20197   20198   20198       0   20200   20201   20201       0
   20203   20204   20204       0   20206   20207   20207       0   20209   20210
   20210       0   20212   20213   20213       0   20215   20216   20216       0
   20218   20219   20219       0   20221   20222   20222       0   20224   20225
   20225       0   20227   20228   20228       0   20230   20231   20231       0
   20233   20234   20234       0   20236   20237   20237       0   20239   20240
   20240       0   20242   20243   20243       0   20245   20246   20246       0
   20248   20249   20249       0   20251   20252   20252       0   20254   20255
   20255       0   20257   20258   20258       0   20260   20261   20261       0
   20263   20264   20264       0   20266   20267   20267       0   20269   20270
   20270       0   20272   20273   20273       0   20275   20276   20276       0
   20278   20279   20279       0   20281   20282   20282       0   20284   20285
   20285       0   20287   20288   20288       0   20290   20291   20291       0
   20293   20294   20294       0   20296   20297   20297       0   20299   20300
   20300       0   20302   20303   20303       0   20305   20306   20306       0
   20308   20309   20309       0   20311   20312   20312       0   20314   20315
   20315       0   20317   20318   20318       0   20320   20321   20321       0
   20323   20324   20324       0   20326   20327   20327       0   20329   20330
   20330       0   20332   20333   20333       0   20335   20336   20336       0
   20338   20339   20339       0   20341   20342   20342       0   20344   20345
   20345       0   20347   20348   20348       0   20350   20351   20351       0
   20353   20354   20354       0   20356   20357   20357       0   20359   20360
   20360       0   20362   20363   20363       0   20365   20366   20366       0
   20368   20369   20369       0   20371   20372   20372       0   20374   20375
   20375       0   20377   20378   20378       0   20380   20381   20381       0
   20383   20384   20384       0   20386   20387   20387       0   20389   20390
   20390       0   20392   20393   20393       0   20395   20396   20396       0
   20398   20399   20399       0   20401   20402   20402       0   20404   20405
   20405       0   20407   20408   20408       0   20410   20411   20411       0
   20413   20414   20414       0   20416   20417   20417       0   20419   20420
   20420       0   20422   20423   20423       0   20425   20426   20426       0
   20428   20429   20429       0   20431   20432   20432       0   20434   20435
   20435       0   20437   20438   20438       0   20440   20441   20441       0
   20443   20444   20444       0   20446   20447   20447       0   20449   20450
   20450       0   20452   20453   20453       0   20455   20456   20456       0
   20458   20459   20459       0   20461   20462   20462       0   20464   20465
   20465       0   20467   20468   20468       0   20470   20471   20471       0
   20473   20474   20474       0   20476   20477   20477       0   20479   20480
   20480       0   20482   20483   20483       0   20485   20486   20486       0
   20488   20489   20489       0   20491   20492   20492       0   20494   20495
   20495       0   20497   20498   20498       0   20500   20501   20501       0
   20503   20504   20504       0   20506   20507   20507       0   20509   20510
   20510       0   20512   20513   20513       0   20515   20516   20516       0
   20518   20519   20519       0   20521   20522   20522       0   20524   20525
   20525       0   20527   20528   20528       0   20530   20531   20531       0
   20533   20534   20534       0   20536   20537   20537       0   20539   20540
   20540       0   20542   20543   20543       0   20545   20546   20546       0
   20548   20549   20549       0   20551   20552   20552       0   20554   20555
   20555       0   20557   20558   20558       0   20560   20561   20561       0
   20563   20564   20564       0   20566   20567   20567       0   20569   20570
   20570       0   20572   20573   20573       0   20575   20576   20576       0
   20578   20579   20579       0   20581   20582   20582       0   20584   20585
   20585       0   20587   20588   20588       0   20590   20591   20591       0
   20593   20594   20594       0   20596   20597   20597       0   20599   20600
   20600       0   20602   20603   20603       0   20605   20606   20606       0
   20608   20609   20609       0   20611   20612   20612       0   20614   20615
   20615       0   20617   20618   20618       0   20620   20621   20621       0
   20623   20624   20624       0   20626   20627   20627       0   20629   20630
   20630       0   20632   20633   20633       0   20635   20636   20636       0
   20638   20639   20639       0   20641   20642   20642       0   20644   20645
   20645       0   20647   20648   20648       0   20650   20651   20651       0
   20653   20654   20654       0   20656   20657   20657       0   20659   20660
   20660       0   20662   20663   20663       0   20665   20666   20666       0
   20668   20669   20669       0   20671   20672   20672       0   20674   20675
   20675       0   20677   20678   20678       0   20680   20681   20681       0
   20683   20684   20684       0   20686   20687   20687       0   20689   20690
   20690       0   20692   20693   20693       0   20695   20696   20696       0
   20698   20699   20699       0   20701   20702   20702       0   20704   20705
   20705       0   20707   20708   20708       0   20710   20711   20711       0
   20713   20714   20714       0   20716   20717   20717       0   20719   20720
   20720       0   20722   20723   20723       0   20725   20726   20726       0
   20728   20729   20729       0   20731   20732   20732       0   20734   20735
   20735       0   20737   20738   20738       0   20740   20741   20741       0
   20743   20744   20744       0   20746   20747   20747       0   20749   20750
   20750       0   20752   20753   20753       0   20755   20756   20756       0
   20758   20759   20759       0   20761   20762   20762       0   20764   20765
   20765       0   20767   20768   20768       0   20770   20771   20771       0
   20773   20774   20774       0   20776   20777   20777       0   20779   20780
   20780       0   20782   20783   20783       0   20785   20786   20786       0
   20788   20789   20789       0   20791   20792   20792       0   20794   20795
   20795       0   20797   20798   20798       0   20800   20801   20801       0
   20803   20804   20804       0   20806   20807   20807       0   20809   20810
   20810       0   20812   20813   20813       0   20815   20816   20816       0
   20818   20819   20819       0   20821   20822   20822       0   20824   20825
   20825       0   20827   20828   20828       0   20830   20831   20831       0
   20833   20834   20834       0   20836   20837   20837       0   20839   20840
   20840       0   20842   20843   20843       0   20845   20846   20846       0
   20848   20849   20849       0   20851   20852   20852       0   20854   20855
   20855       0   20857   20858   20858       0   20860   20861   20861       0
   20863   20864   20864       0   20866   20867   20867       0   20869   20870
   20870       0   20872   20873   20873       0   20875   20876   20876       0
   20878   20879   20879       0   20881   20882   20882       0   20884   20885
   20885       0   20887   20888   20888       0   20890   20891   20891       0
   20893   20894   20894       0   20896   20897   20897       0   20899   20900
   20900       0   20902   20903   20903       0   20905   20906   20906       0
   20908   20909   20909       0   20911   20912   20912       0   20914   20915
   20915       0   20917   20918   20918       0   20920   20921   20921       0
   20923   20924   20924       0   20926   20927   20927       0   20929   20930
   20930       0   20932   20933   20933       0   20935   20936   20936       0
   20938   20939   20939       0   20941   20942   20942       0   20944   20945
   20945       0   20947   20948   20948       0   20950   20951   20951       0
   20953   20954   20954       0   20956   20957   20957       0   20959   20960
   20960       0   20962   20963   20963       0   20965   20966   20966       0
   20968   20969   20969       0   20971   20972   20972       0   20974   20975
   20975       0   20977   20978   20978       0   20980   20981   20981       0
   20983   20984   20984       0   20986   20987   20987       0   20989   20990
   20990       0   20992   20993   20993       0   20995   20996   20996       0
   20998   20999   20999       0   21001   21002   21002       0   21004   21005
   21005       0   21007   21008   21008       0   21010   21011   21011       0
   21013   21014   21014       0   21016   21017   21017       0   21019   21020
   21020       0   21022   21023   21023       0   21025   21026   21026       0
   21028   21029   21029       0   21031   21032   21032       0   21034   21035
   21035       0   21037   21038   21038       0   21040   21041   21041       0
   21043   21044   21044       0   21046   21047   21047       0   21049   21050
   21050       0   21052   21053   21053       0   21055   21056   21056       0
   21058   21059   21059       0   21061   21062   21062       0   21064   21065
   21065       0   21067   21068   21068       0   21070   21071   21071       0
   21073   21074   21074       0   21076   21077   21077       0   21079   21080
   21080       0   21082   21083   21083       0   21085   21086   21086       0
   21088   21089   21089       0   21091   21092   21092       0   21094   21095
   21095       0   21097   21098   21098       0   21100   21101   21101       0
   21103   21104   21104       0   21106   21107   21107       0   21109   21110
   21110       0   21112   21113   21113       0   21115   21116   21116       0
   21118   21119   21119       0   21121   21122   21122       0   21124   21125
   21125       0   21127   21128   21128       0   21130   21131   21131       0
   21133   21134   21134       0   21136   21137   21137       0   21139   21140
   21140       0   21142   21143   21143       0   21145   21146   21146       0
   21148   21149   21149       0   21151   21152   21152       0   21154   21155
   21155       0   21157   21158   21158       0   21160   21161   21161       0
   21163   21164   21164       0   21166   21167   21167       0   21169   21170
   21170       0   21172   21173   21173       0   21175   21176   21176       0
   21178   21179   21179       0   21181   21182   21182       0   21184   21185
   21185       0   21187   21188   21188       0   21190   21191   21191       0
   21193   21194   21194       0   21196   21197   21197       0   21199   21200
   21200       0   21202   21203   21203       0   21205   21206   21206       0
   21208   21209   21209       0   21211   21212   21212       0   21214   21215
   21215       0   21217   21218   21218       0   21220   21221   21221       0
   21223   21224   21224       0   21226   21227   21227       0   21229   21230
   21230       0   21232   21233   21233       0   21235   21236   21236       0
   21238   21239   21239       0   21241   21242   21242       0   21244   21245
   21245       0   21247   21248   21248       0   21250   21251   21251       0
   21253   21254   21254       0   21256   21257   21257       0   21259   21260
   21260       0   21262   21263   21263       0   21265   21266   21266       0
   21268   21269   21269       0   21271   21272   21272       0   21274   21275
   21275       0   21277   21278   21278       0   21280   21281   21281       0
   21283   21284   21284       0   21286   21287   21287       0   21289   21290
   21290       0   21292   21293   21293       0   21295   21296   21296       0
   21298   21299   21299       0   21301   21302   21302       0   21304   21305
   21305       0   21307   21308   21308       0   21310   21311   21311       0
   21313   21314   21314       0   21316   21317   21317       0   21319   21320
   21320       0   21322   21323   21323       0   21325   21326   21326       0
   21328   21329   21329       0   21331   21332   21332       0   21334   21335
   21335       0   21337   21338   21338       0   21340   21341   21341       0
   21343   21344   21344       0   21346   21347   21347       0   21349   21350
   21350       0   21352   21353   21353       0   21355   21356   21356       0
   21358   21359   21359       0   21361   21362   21362       0   21364   21365
   21365       0   21367   21368   21368       0   21370   21371   21371       0
   21373   21374   21374       0   21376   21377   21377       0   21379   21380
   21380       0   21382   21383   21383       0   21385   21386   21386       0
   21388   21389   21389       0   21391   21392   21392       0   21394   21395
   21395       0   21397   21398   21398       0   21400   21401   21401       0
   21403   21404   21404       0   21406   21407   21407       0   21409   21410
   21410       0   21412   21413   21413       0   21415   21416   21416       0
   21418   21419   21419       0   21421   21422   21422       0   21424   21425
   21425       0   21427   21428   21428       0   21430   21431   21431       0
   21433   21434   21434       0   21436   21437   21437       0   21439   21440
   21440       0   21442   21443   21443       0   21445   21446   21446       0
   21448   21449   21449       0   21451   21452   21452       0   21454   21455
   21455       0   21457   21458   21458       0   21460   21461   21461       0
   21463   21464   21464       0   21466   21467   21467       0   21469   21470
   21470       0   21472   21473   21473       0   21475   21476   21476       0
   21478   21479   21479       0   21481   21482   21482       0   21484   21485
   21485       0   21487   21488   21488       0   21490   21491   21491       0
   21493   21494   21494       0   21496   21497   21497       0   21499   21500
   21500       0   21502   21503   21503       0   21505   21506   21506       0
   21508   21509   21509       0   21511   21512   21512       0   21514   21515
   21515       0   21517   21518   21518       0   21520   21521   21521       0
   21523   21524   21524       0   21526   21527   21527       0   21529   21530
   21530       0   21532   21533   21533       0   21535   21536   21536       0
   21538   21539   21539       0   21541   21542   21542       0   21544   21545
   21545       0   21547   21548   21548       0   21550   21551   21551       0
   21553   21554   21554       0   21556   21557   21557       0   21559   21560
   21560       0   21562   21563   21563       0   21565   21566   21566       0
   21568   21569   21569       0   21571   21572   21572       0   21574   21575
   21575       0   21577   21578   21578       0   21580   21581   21581       0
   21583   21584   21584       0   21586   21587   21587       0   21589   21590
   21590       0   21592   21593   21593       0   21595   21596   21596       0
   21598   21599   21599       0   21601   21602   21602       0   21604   21605
   21605       0   21607   21608   21608       0   21610   21611   21611       0
   21613   21614   21614       0   21616   21617   21617       0   21619   21620
   21620       0   21622   21623   21623       0   21625   21626   21626       0
   21628   21629   21629       0   21631   21632   21632       0   21634   21635
   21635       0   21637   21638   21638       0   21640   21641   21641       0
   21643   21644   21644       0   21646   21647   21647       0   21649   21650
   21650       0   21652   21653   21653       0   21655   21656   21656       0
   21658   21659   21659       0   21661   21662   21662       0   21664   21665
   21665       0   21667   21668   21668       0   21670   21671   21671       0
   21673   21674   21674       0   21676   21677   21677       0   21679   21680
   21680       0   21682   21683   21683       0   21685   21686   21686       0
   21688   21689   21689       0   21691   21692   21692       0   21694   21695
   21695       0   21697   21698   21698       0   21700   21701   21701       0
   21703   21704   21704       0   21706   21707   21707       0   21709   21710
   21710       0   21712   21713   21713       0   21715   21716   21716       0
   21718   21719   21719       0   21721   21722   21722       0   21724   21725
   21725       0   21727   21728   21728       0   21730   21731   21731       0
   21733   21734   21734       0   21736   21737   21737       0   21739   21740
   21740       0   21742   21743   21743       0   21745   21746   21746       0
   21748   21749   21749       0   21751   21752   21752       0   21754   21755
   21755       0   21757   21758   21758       0   21760   21761   21761       0
   21763   21764   21764       0   21766   21767   21767       0   21769   21770
   21770       0   21772   21773   21773       0   21775   21776   21776       0
   21778   21779   21779       0   21781   21782   21782       0   21784   21785
   21785       0   21787   21788   21788       0   21790   21791   21791       0
   21793   21794   21794       0   21796   21797   21797       0   21799   21800
   21800       0   21802   21803   21803       0   21805   21806   21806       0
   21808   21809   21809       0   21811   21812   21812       0   21814   21815
   21815       0   21817   21818   21818       0   21820   21821   21821       0
   21823   21824   21824       0   21826   21827   21827       0   21829   21830
   21830       0   21832   21833   21833       0   21835   21836   21836       0
   21838   21839   21839       0   21841   21842   21842       0   21844   21845
   21845       0   21847   21848   21848       0   21850   21851   21851       0
   21853   21854   21854       0   21856   21857   21857       0   21859   21860
   21860       0   21862   21863   21863       0   21865   21866   21866       0
   21868   21869   21869       0   21871   21872   21872       0   21874   21875
   21875       0   21877   21878   21878       0   21880   21881   21881       0
   21883   21884   21884       0   21886   21887   21887       0   21889   21890
   21890       0   21892   21893   21893       0   21895   21896   21896       0
   21898   21899   21899       0   21901   21902   21902       0   21904   21905
   21905       0   21907   21908   21908       0   21910   21911   21911       0
   21913   21914   21914       0   21916   21917   21917       0   21919   21920
   21920       0   21922   21923   21923       0   21925   21926   21926       0
   21928   21929   21929       0   21931   21932   21932       0   21934   21935
   21935       0   21937   21938   21938       0   21940   21941   21941       0
   21943   21944   21944       0   21946   21947   21947       0   21949   21950
   21950       0   21952   21953   21953       0   21955   21956   21956       0
   21958   21959   21959       0   21961   21962   21962       0   21964   21965
   21965       0   21967   21968   21968       0   21970   21971   21971       0
   21973   21974   21974       0   21976   21977   21977       0   21979   21980
   21980       0   21982   21983   21983       0   21985   21986   21986       0
   21988   21989   21989       0   21991   21992   21992       0   21994   21995
   21995       0   21997   21998   21998       0   22000   22001   22001       0
   22003   22004   22004       0   22006   22007   22007       0   22009   22010
   22010       0   22012   22013   22013       0   22015   22016   22016       0
   22018   22019   22019       0   22021   22022   22022       0   22024   22025
   22025       0   22027   22028   22028       0   22030   22031   22031       0
   22033   22034   22034       0   22036   22037   22037       0   22039   22040
   22040       0   22042   22043   22043       0   22045   22046   22046       0
   22048   22049   22049       0   22051   22052   22052       0   22054   22055
   22055       0   22057   22058   22058       0   22060   22061   22061       0
   22063   22064   22064       0   22066   22067   22067       0   22069   22070
   22070       0   22072   22073   22073       0   22075   22076   22076       0
   22078   22079   22079       0   22081   22082   22082       0   22084   22085
   22085       0   22087   22088   22088       0   22090   22091   22091       0
   22093   22094   22094       0   22096   22097   22097       0   22099   22100
   22100       0   22102   22103   22103       0   22105   22106   22106       0
   22108   22109   22109       0   22111   22112   22112       0   22114   22115
   22115       0   22117   22118   22118       0   22120   22121   22121       0
   22123   22124   22124       0   22126   22127   22127       0   22129   22130
   22130       0   22132   22133   22133       0   22135   22136   22136       0
   22138   22139   22139       0   22141   22142   22142       0   22144   22145
   22145       0   22147   22148   22148       0   22150   22151   22151       0
   22153   22154   22154       0   22156   22157   22157       0   22159   22160
   22160       0   22162   22163   22163       0   22165   22166   22166       0
   22168   22169   22169       0   22171   22172   22172       0   22174   22175
   22175       0   22177   22178   22178       0   22180   22181   22181       0
   22183   22184   22184       0   22186   22187   22187       0   22189   22190
   22190       0   22192   22193   22193       0   22195   22196   22196       0
   22198   22199   22199       0   22201   22202   22202       0   22204   22205
   22205       0   22207   22208   22208       0   22210   22211   22211       0
   22213   22214   22214       0   22216   22217   22217       0   22219   22220
   22220       0   22222   22223   22223       0   22225   22226   22226       0
   22228   22229   22229       0   22231   22232   22232       0   22234   22235
   22235       0   22237   22238   22238       0   22240   22241   22241       0
   22243   22244   22244       0   22246   22247   22247       0   22249   22250
   22250       0   22252   22253   22253       0   22255   22256   22256       0
   22258   22259   22259       0   22261   22262   22262       0   22264   22265
   22265       0   22267   22268   22268       0   22270   22271   22271       0
   22273   22274   22274       0   22276   22277   22277       0   22279   22280
   22280       0   22282   22283   22283       0   22285   22286   22286       0
   22288   22289   22289       0   22291   22292   22292       0   22294   22295
   22295       0   22297   22298   22298       0   22300   22301   22301       0
   22303   22304   22304       0   22306   22307   22307       0   22309   22310
   22310       0   22312   22313   22313       0   22315   22316   22316       0
   22318   22319   22319       0   22321   22322   22322       0   22324   22325
   22325       0   22327   22328   22328       0   22330   22331   22331       0
   22333   22334   22334       0   22336   22337   22337       0   22339   22340
   22340       0   22342   22343   22343       0   22345   22346   22346       0
   22348   22349   22349       0   22351   22352   22352       0   22354   22355
   22355       0   22357   22358   22358       0   22360   22361   22361       0
   22363   22364   22364       0   22366   22367   22367       0   22369   22370
   22370       0   22372   22373   22373       0   22375   22376   22376       0
   22378   22379   22379       0   22381   22382   22382       0   22384   22385
   22385       0   22387   22388   22388       0   22390   22391   22391       0
   22393   22394   22394       0   22396   22397   22397       0   22399   22400
   22400       0   22402   22403   22403       0   22405   22406   22406       0
   22408   22409   22409       0   22411   22412   22412       0   22414   22415
   22415       0   22417   22418   22418       0   22420   22421   22421       0
   22423   22424   22424       0   22426   22427   22427       0   22429   22430
   22430       0   22432   22433   22433       0   22435   22436   22436       0
   22438   22439   22439       0   22441   22442   22442       0   22444   22445
   22445       0   22447   22448   22448       0   22450   22451   22451       0
   22453   22454   22454       0   22456   22457   22457       0   22459   22460
   22460       0   22462   22463   22463       0   22465   22466   22466       0
   22468   22469   22469       0   22471   22472   22472       0   22474   22475
   22475       0   22477   22478   22478       0   22480   22481   22481       0
   22483   22484   22484       0   22486   22487   22487       0   22489   22490
   22490       0   22492   22493   22493       0   22495   22496   22496       0
   22498   22499   22499       0   22501   22502   22502       0   22504   22505
   22505       0   22507   22508   22508       0   22510   22511   22511       0
   22513   22514   22514       0   22516   22517   22517       0   22519   22520
   22520       0   22522   22523   22523       0   22525   22526   22526       0
   22528   22529   22529       0   22531   22532   22532       0   22534   22535
   22535       0   22537   22538   22538       0   22540   22541   22541       0
   22543   22544   22544       0   22546   22547   22547       0   22549   22550
   22550       0   22552   22553   22553       0   22555   22556   22556       0
   22558   22559   22559       0   22561   22562   22562       0   22564   22565
   22565       0   22567   22568   22568       0   22570   22571   22571       0
   22573   22574   22574       0   22576   22577   22577       0   22579   22580
   22580       0   22582   22583   22583       0   22585   22586   22586       0
   22588   22589   22589       0   22591   22592   22592       0   22594   22595
   22595       0   22597   22598   22598       0   22600   22601   22601       0
   22603   22604   22604       0   22606   22607   22607       0   22609   22610
   22610       0   22612   22613   22613       0   22615   22616   22616       0
   22618   22619   22619       0   22621   22622   22622       0   22624   22625
   22625       0   22627   22628   22628       0   22630   22631   22631       0
   22633   22634   22634       0   22636   22637   22637       0   22639   22640
   22640       0   22642   22643   22643       0   22645   22646   22646       0
   22648   22649   22649       0   22651   22652   22652       0   22654   22655
   22655       0   22657   22658   22658       0   22660   22661   22661       0
   22663   22664   22664       0   22666   22667   22667       0   22669   22670
   22670       0   22672   22673   22673       0   22675   22676   22676       0
   22678   22679   22679       0   22681   22682   22682       0   22684   22685
   22685       0   22687   22688   22688       0   22690   22691   22691       0
   22693   22694   22694       0   22696   22697   22697       0   22699   22700
   22700       0   22702   22703   22703       0   22705   22706   22706       0
   22708   22709   22709       0   22711   22712   22712       0   22714   22715
   22715       0   22717   22718   22718       0   22720   22721   22721       0
   22723   22724   22724       0   22726   22727   22727       0   22729   22730
   22730       0   22732   22733   22733       0   22735   22736   22736       0
   22738   22739   22739       0   22741   22742   22742       0   22744   22745
   22745       0   22747   22748   22748       0   22750   22751   22751       0
   22753   22754   22754       0   22756   22757   22757       0   22759   22760
   22760       0   22762   22763   22763       0   22765   22766   22766       0
   22768   22769   22769       0   22771   22772   22772       0   22774   22775
   22775       0   22777   22778   22778       0   22780   22781   22781       0
   22783   22784   22784       0   22786   22787   22787       0   22789   22790
   22790       0   22792   22793   22793       0   22795   22796   22796       0
   22798   22799   22799       0   22801   22802   22802       0   22804   22805
   22805       0   22807   22808   22808       0   22810   22811   22811       0
   22813   22814   22814       0   22816   22817   22817       0   22819   22820
   22820       0   22822   22823   22823       0   22825   22826   22826       0
   22828   22829   22829       0   22831   22832   22832       0   22834   22835
   22835       0   22837   22838   22838       0   22840   22841   22841       0
   22843   22844   22844       0   22846   22847   22847       0   22849   22850
   22850       0   22852   22853   22853       0   22855   22856   22856       0
   22858   22859   22859       0   22861   22862   22862       0   22864   22865
   22865       0   22867   22868   22868       0   22870   22871   22871       0
   22873   22874   22874       0   22876   22877   22877       0   22879   22880
   22880       0   22882   22883   22883       0   22885   22886   22886       0
   22888   22889   22889       0   22891   22892   22892       0   22894   22895
   22895       0   22897   22898   22898       0   22900   22901   22901       0
   22903   22904   22904       0   22906   22907   22907       0   22909   22910
   22910       0   22912   22913   22913       0   22915   22916   22916       0
   22918   22919   22919       0   22921   22922   22922       0   22924   22925
   22925       0   22927   22928   22928       0   22930   22931   22931       0
   22933   22934   22934       0   22936   22937   22937       0   22939   22940
   22940       0   22942   22943   22943       0   22945   22946   22946       0
   22948   22949   22949       0   22951   22952   22952       0   22954   22955
   22955       0   22957   22958   22958       0   22960   22961   22961       0
   22963   22964   22964       0   22966   22967   22967       0   22969   22970
   22970       0   22972   22973   22973       0   22975   22976   22976       0
   22978   22979   22979       0   22981   22982   22982       0   22984   22985
   22985       0   22987   22988   22988       0   22990   22991   22991       0
   22993   22994   22994       0   22996   22997   22997       0   22999   23000
   23000       0   23002   23003   23003       0   23005   23006   23006       0
   23008   23009   23009       0   23011   23012   23012       0   23014   23015
   23015       0   23017   23018   23018       0   23020   23021   23021       0
   23023   23024   23024       0   23026   23027   23027       0   23029   23030
   23030       0   23032   23033   23033       0   23035   23036   23036       0
   23038   23039   23039       0   23041   23042   23042       0   23044   23045
   23045       0   23047   23048   23048       0   23050   23051   23051       0
   23053   23054   23054       0   23056   23057   23057       0   23059   23060
   23060       0   23062   23063   23063       0   23065   23066   23066       0
   23068   23069   23069       0   23071   23072   23072       0   23074   23075
   23075       0   23077   23078   23078       0   23080   23081   23081       0
   23083   23084   23084       0   23086   23087   23087       0   23089   23090
   23090       0   23092   23093   23093       0   23095   23096   23096       0
   23098   23099   23099       0   23101   23102   23102       0   23104   23105
   23105       0   23107   23108   23108       0   23110   23111   23111       0
   23113   23114   23114       0   23116   23117   23117       0   23119   23120
   23120       0   23122   23123   23123       0   23125   23126   23126       0
   23128   23129   23129       0   23131   23132   23132       0   23134   23135
   23135       0   23137   23138   23138       0   23140   23141   23141       0
   23143   23144   23144       0   23146   23147   23147       0   23149   23150
   23150       0   23152   23153   23153       0   23155   23156   23156       0
   23158   23159   23159       0   23161   23162   23162       0   23164   23165
   23165       0   23167   23168   23168       0   23170   23171   23171       0
   23173   23174   23174       0   23176   23177   23177       0   23179   23180
   23180       0   23182   23183   23183       0   23185   23186   23186       0
   23188   23189   23189       0   23191   23192   23192       0   23194   23195
   23195       0   23197   23198   23198       0   23200   23201   23201       0
   23203   23204   23204       0   23206   23207   23207       0   23209   23210
   23210       0   23212   23213   23213       0   23215   23216   23216       0
   23218   23219   23219       0   23221   23222   23222       0   23224   23225
   23225       0   23227   23228   23228       0   23230   23231   23231       0
   23233   23234   23234       0   23236   23237   23237       0   23239   23240
   23240       0   23242   23243   23243       0   23245   23246   23246       0
   23248   23249   23249       0   23251   23252   23252       0   23254   23255
   23255       0   23257   23258   23258       0   23260   23261   23261       0
   23263   23264   23264       0   23266   23267   23267       0   23269   23270
   23270       0   23272   23273   23273       0   23275   23276   23276       0
   23278   23279   23279       0   23281   23282   23282       0   23284   23285
   23285       0   23287   23288   23288       0   23290   23291   23291       0
   23293   23294   23294       0   23296   23297   23297       0   23299   23300
   23300       0   23302   23303   23303       0   23305   23306   23306       0
   23308   23309   23309       0   23311   23312   23312       0   23314   23315
   23315       0   23317   23318   23318       0   23320   23321   23321       0
   23323   23324   23324       0   23326   23327   23327       0   23329   23330
   23330       0   23332   23333   23333       0   23335   23336   23336       0
   23338   23339   23339       0   23341   23342   23342       0   23344   23345
   23345       0   23347   23348   23348       0   23350   23351   23351       0
   23353   23354   23354       0   23356   23357   23357       0   23359   23360
   23360       0   23362   23363   23363       0   23365   23366   23366       0
   23368   23369   23369       0   23371   23372   23372       0   23374   23375
   23375       0   23377   23378   23378       0   23380   23381   23381       0
   23383   23384   23384       0   23386   23387   23387       0   23389   23390
   23390       0   23392   23393   23393       0   23395   23396   23396       0
   23398   23399   23399       0   23401   23402   23402       0   23404   23405
   23405       0   23407   23408   23408       0   23410   23411   23411       0
   23413   23414   23414       0   23416   23417   23417       0   23419   23420
   23420       0   23422   23423   23423       0   23425   23426   23426       0
   23428   23429   23429       0   23431   23432   23432       0   23434   23435
   23435       0   23437   23438   23438       0   23440   23441   23441       0
   23443   23444   23444       0   23446   23447   23447       0   23449   23450
   23450       0   23452   23453   23453       0   23455   23456   23456       0
   23458   23459   23459       0   23461   23462   23462       0   23464   23465
   23465       0   23467   23468   23468       0   23470   23471   23471       0
   23473   23474   23474       0   23476   23477   23477       0   23479   23480
   23480       0   23482   23483   23483       0   23485   23486   23486       0
   23488   23489   23489       0   23491   23492   23492       0   23494   23495
   23495       0   23497   23498   23498       0   23500   23501   23501       0
   23503   23504   23504       0   23506   23507   23507       0   23509   23510
   23510       0   23512   23513   23513       0   23515   23516   23516       0
   23518   23519   23519       0   23521   23522   23522       0   23524   23525
   23525       0   23527   23528   23528       0   23530   23531   23531       0
   23533   23534   23534       0   23536   23537   23537       0   23539   23540
   23540       0   23542   23543   23543       0   23545   23546   23546       0
   23548   23549   23549       0   23551   23552   23552       0   23554   23555
   23555       0   23557   23558   23558       0   23560   23561   23561       0
   23563   23564   23564       0   23566   23567   23567       0   23569   23570
   23570       0   23572   23573   23573       0   23575   23576   23576       0
   23578   23579   23579       0   23581   23582   23582       0   23584   23585
   23585       0   23587   23588   23588       0   23590   23591   23591       0
   23593   23594   23594       0   23596   23597   23597       0   23599   23600
   23600       0   23602   23603   23603       0   23605   23606   23606       0
   23608   23609   23609       0   23611   23612   23612       0   23614   23615
   23615       0   23617   23618   23618       0   23620   23621   23621       0
   23623   23624   23624       0   23626   23627   23627       0   23629   23630
   23630       0   23632   23633   23633       0   23635   23636   23636       0
   23638   23639   23639       0   23641   23642   23642       0   23644   23645
   23645       0   23647   23648   23648       0   23650   23651   23651       0
   23653   23654   23654       0   23656   23657   23657       0   23659   23660
   23660       0   23662   23663   23663       0   23665   23666   23666       0
   23668   23669   23669       0   23671   23672   23672       0   23674   23675
   23675       0   23677   23678   23678       0   23680   23681   23681       0
   23683   23684   23684       0   23686   23687   23687       0   23689   23690
   23690       0   23692   23693   23693       0   23695   23696   23696       0
   23698   23699   23699       0   23701   23702   23702       0   23704   23705
   23705       0   23707   23708   23708       0   23710   23711   23711       0
   23713   23714   23714       0   23716   23717   23717       0   23719   23720
   23720       0   23722   23723   23723       0   23725   23726   23726       0
   23728   23729   23729       0   23731   23732   23732       0   23734   23735
   23735       0   23737   23738   23738       0   23740   23741   23741       0
   23743   23744   23744       0   23746   23747   23747       0   23749   23750
   23750       0   23752   23753   23753       0   23755   23756   23756       0
   23758   23759   23759       0   23761   23762   23762       0   23764   23765
   23765       0   23767   23768   23768       0   23770   23771   23771       0
   23773   23774   23774       0   23776   23777   23777       0   23779   23780
   23780       0   23782   23783   23783       0   23785   23786   23786       0
   23788   23789   23789       0   23791   23792   23792       0   23794   23795
   23795       0   23797   23798   23798       0   23800   23801   23801       0
   23803   23804   23804       0   23806   23807   23807       0   23809   23810
   23810       0   23812   23813   23813       0   23815   23816   23816       0
   23818   23819   23819       0   23821   23822   23822       0   23824   23825
   23825       0   23827   23828   23828       0   23830   23831   23831       0
   23833   23834   23834       0   23836   23837   23837       0   23839   23840
   23840       0   23842   23843   23843       0   23845   23846   23846       0
   23848   23849   23849       0   23851   23852   23852       0   23854   23855
   23855       0   23857   23858   23858       0   23860   23861   23861       0
   23863   23864   23864       0   23866   23867   23867       0   23869   23870
   23870       0   23872   23873   23873       0   23875   23876   23876       0
   23878   23879   23879       0   23881   23882   23882       0   23884   23885
   23885       0   23887   23888   23888       0   23890   23891   23891       0
   23893   23894   23894       0   23896   23897   23897       0   23899   23900
   23900       0   23902   23903   23903       0   23905   23906   23906       0
   23908   23909   23909       0   23911   23912   23912       0   23914   23915
   23915       0   23917   23918   23918       0   23920   23921   23921       0
   23923   23924   23924       0   23926   23927   23927       0   23929   23930
   23930       0   23932   23933   23933       0   23935   23936   23936       0
   23938   23939   23939       0   23941   23942   23942       0   23944   23945
   23945       0   23947   23948   23948       0   23950   23951   23951       0
   23953   23954   23954       0   23956   23957   23957       0   23959   23960
   23960       0   23962   23963   23963       0   23965   23966   23966       0
   23968   23969   23969       0   23971   23972   23972       0   23974   23975
   23975       0   23977   23978   23978       0   23980   23981   23981       0
   23983   23984   23984       0   23986   23987   23987       0   23989   23990
   23990       0   23992   23993   23993       0   23995   23996   23996       0
   23998   23999   23999       0   24001   24002   24002       0   24004   24005
   24005       0   24007   24008   24008       0   24010   24011   24011       0
   24013   24014   24014       0   24016   24017   24017       0   24019   24020
   24020       0   24022   24023   24023       0   24025   24026   24026       0
   24028   24029   24029       0   24031   24032   24032       0   24034   24035
   24035       0   24037   24038   24038       0   24040   24041   24041       0
   24043   24044   24044       0   24046   24047   24047       0   24049   24050
   24050       0   24052   24053   24053       0   24055   24056   24056       0
   24058   24059   24059       0   24061   24062   24062       0   24064   24065
   24065       0   24067   24068   24068       0   24070   24071   24071       0
   24073   24074   24074       0   24076   24077   24077       0   24079   24080
   24080       0   24082   24083   24083       0   24085   24086   24086       0
   24088   24089   24089       0   24091   24092   24092       0   24094   24095
   24095       0   24097   24098   24098       0   24100   24101   24101       0
   24103   24104   24104       0   24106   24107   24107       0   24109   24110
   24110       0   24112   24113   24113       0   24115   24116   24116       0
   24118   24119   24119       0   24121   24122   24122       0   24124   24125
   24125       0   24127   24128   24128       0   24130   24131   24131       0
   24133   24134   24134       0   24136   24137   24137       0   24139   24140
   24140       0   24142   24143   24143       0   24145   24146   24146       0
   24148   24149   24149       0   24151   24152   24152       0   24154   24155
   24155       0   24157   24158   24158       0   24160   24161   24161       0
   24163   24164   24164       0   24166   24167   24167       0   24169   24170
   24170       0   24172   24173   24173       0   24175   24176   24176       0
   24178   24179   24179       0   24181   24182   24182       0   24184   24185
   24185       0   24187   24188   24188       0   24190   24191   24191       0
   24193   24194   24194       0   24196   24197   24197       0   24199   24200
   24200       0   24202   24203   24203       0   24205   24206   24206       0
   24208   24209   24209       0   24211   24212   24212       0   24214   24215
   24215       0   24217   24218   24218       0   24220   24221   24221       0
   24223   24224   24224       0   24226   24227   24227       0   24229   24230
   24230       0   24232   24233   24233       0   24235   24236   24236       0
   24238   24239   24239       0   24241   24242   24242       0   24244   24245
   24245       0   24247   24248   24248       0   24250   24251   24251       0
   24253   24254   24254       0   24256   24257   24257       0   24259   24260
   24260       0   24262   24263   24263       0   24265   24266   24266       0
   24268   24269   24269       0   24271   24272   24272       0   24274   24275
   24275       0   24277   24278   24278       0   24280   24281   24281       0
   24283   24284   24284       0   24286   24287   24287       0   24289   24290
   24290       0   24292   24293   24293       0   24295   24296   24296       0
   24298   24299   24299       0   24301   24302   24302       0   24304   24305
   24305       0   24307   24308   24308       0   24310   24311   24311       0
   24313   24314   24314       0   24316   24317   24317       0   24319   24320
   24320       0   24322   24323   24323       0   24325   24326   24326       0
   24328   24329   24329       0   24331   24332   24332       0   24334   24335
   24335       0   24337   24338   24338       0   24340   24341   24341       0
   24343   24344   24344       0   24346   24347   24347       0   24349   24350
   24350       0   24352   24353   24353       0   24355   24356   24356       0
   24358   24359   24359       0   24361   24362   24362       0   24364   24365
   24365       0   24367   24368   24368       0   24370   24371   24371       0
   24373   24374   24374       0   24376   24377   24377       0   24379   24380
   24380       0   24382   24383   24383       0   24385   24386   24386       0
   24388   24389   24389       0   24391   24392   24392       0   24394   24395
   24395       0   24397   24398   24398       0   24400   24401   24401       0
   24403   24404   24404       0   24406   24407   24407       0   24409   24410
   24410       0   24412   24413   24413       0   24415   24416   24416       0
   24418   24419   24419       0   24421   24422   24422       0   24424   24425
   24425       0   24427   24428   24428       0   24430   24431   24431       0
   24433   24434   24434       0   24436   24437   24437       0   24439   24440
   24440       0   24442   24443   24443       0   24445   24446   24446       0
   24448   24449   24449       0   24451   24452   24452       0   24454   24455
   24455       0   24457   24458   24458       0   24460   24461   24461       0
   24463   24464   24464       0   24466   24467   24467       0   24469   24470
   24470       0   24472   24473   24473       0   24475   24476   24476       0
   24478   24479   24479       0   24481   24482   24482       0   24484   24485
   24485       0   24487   24488   24488       0   24490   24491   24491       0
   24493   24494   24494       0   24496   24497   24497       0   24499   24500
   24500       0   24502   24503   24503       0   24505   24506   24506       0
   24508   24509   24509       0   24511   24512   24512       0   24514   24515
   24515       0   24517   24518   24518       0   24520   24521   24521       0
   24523   24524   24524       0   24526   24527   24527       0   24529   24530
   24530       0   24532   24533   24533       0   24535   24536   24536       0
   24538   24539   24539       0   24541   24542   24542       0   24544   24545
   24545       0   24547   24548   24548       0   24550   24551   24551       0
   24553   24554   24554       0   24556   24557   24557       0   24559   24560
   24560       0   24562   24563   24563       0   24565   24566   24566       0
   24568   24569   24569       0   24571   24572   24572       0   24574   24575
   24575       0   24577   24578   24578       0   24580   24581   24581       0
   24583   24584   24584       0   24586   24587   24587       0   24589   24590
   24590       0   24592   24593   24593       0   24595   24596   24596       0
   24598   24599   24599       0   24601   24602   24602       0   24604   24605
   24605       0   24607   24608   24608       0   24610   24611   24611       0
   24613   24614   24614       0   24616   24617   24617       0   24619   24620
   24620       0   24622   24623   24623       0   24625   24626   24626       0
   24628   24629   24629       0   24631   24632   24632       0   24634   24635
   24635       0   24637   24638   24638       0   24640   24641   24641       0
   24643   24644   24644       0   24646   24647   24647       0   24649   24650
   24650       0   24652   24653   24653       0   24655   24656   24656       0
   24658   24659   24659       0   24661   24662   24662       0   24664   24665
   24665       0   24667   24668   24668       0   24670   24671   24671       0
   24673   24674   24674       0   24676   24677   24677       0   24679   24680
   24680       0   24682   24683   24683       0   24685   24686   24686       0
   24688   24689   24689       0   24691   24692   24692       0   24694   24695
   24695       0   24697   24698   24698       0   24700   24701   24701       0
   24703   24704   24704       0   24706   24707   24707       0   24709   24710
   24710       0   24712   24713   24713       0   24715   24716   24716       0
   24718   24719   24719       0   24721   24722   24722       0   24724   24725
   24725       0   24727   24728   24728       0   24730   24731   24731       0
   24733   24734   24734       0   24736   24737   24737       0   24739   24740
   24740       0   24742   24743   24743       0   24745   24746   24746       0
   24748   24749   24749       0   24751   24752   24752       0   24754   24755
   24755       0   24757   24758   24758       0   24760   24761   24761       0
   24763   24764   24764       0   24766   24767   24767       0   24769   24770
   24770       0   24772   24773   24773       0   24775   24776   24776       0
   24778   24779   24779       0   24781   24782   24782       0   24784   24785
   24785       0   24787   24788   24788       0   24790   24791   24791       0
   24793   24794   24794       0   24796   24797   24797       0   24799   24800
   24800       0   24802   24803   24803       0   24805   24806   24806       0
   24808   24809   24809       0   24811   24812   24812       0   24814   24815
   24815       0   24817   24818   24818       0   24820   24821   24821       0
   24823   24824   24824       0   24826   24827   24827       0   24829   24830
   24830       0   24832   24833   24833       0   24835   24836   24836       0
   24838   24839   24839       0   24841   24842   24842       0   24844   24845
   24845       0   24847   24848   24848       0   24850   24851   24851       0
   24853   24854   24854       0   24856   24857   24857       0   24859   24860
   24860       0   24862   24863   24863       0   24865   24866   24866       0
   24868   24869   24869       0   24871   24872   24872       0   24874   24875
   24875       0   24877   24878   24878       0   24880   24881   24881       0
   24883   24884   24884       0   24886   24887   24887       0   24889   24890
   24890       0   24892   24893   24893       0   24895   24896   24896       0
   24898   24899   24899       0   24901   24902   24902       0   24904   24905
   24905       0   24907   24908   24908       0   24910   24911   24911       0
   24913   24914   24914       0   24916   24917   24917       0   24919   24920
   24920       0   24922   24923   24923       0   24925   24926   24926       0
   24928   24929   24929       0   24931   24932   24932       0   24934   24935
   24935       0   24937   24938   24938       0   24940   24941   24941       0
   24943   24944   24944       0   24946   24947   24947       0   24949   24950
   24950       0   24952   24953   24953       0   24955   24956   24956       0
   24958   24959   24959       0   24961   24962   24962       0   24964   24965
   24965       0   24967   24968   24968       0   24970   24971   24971       0
   24973   24974   24974       0   24976   24977   24977       0   24979   24980
   24980       0   24982   24983   24983       0   24985   24986   24986       0
   24988   24989   24989       0   24991   24992   24992       0   24994   24995
   24995       0   24997   24998   24998       0   25000   25001   25001       0
   25003   25004   25004       0   25006   25007   25007       0   25009   25010
   25010       0   25012   25013   25013       0   25015   25016   25016       0
   25018   25019   25019       0   25021   25022   25022       0   25024   25025
   25025       0   25027   25028   25028       0   25030   25031   25031       0
   25033   25034   25034       0   25036   25037   25037       0   25039   25040
   25040       0   25042   25043   25043       0   25045   25046   25046       0
   25048   25049   25049       0   25051   25052   25052       0   25054   25055
   25055       0   25057   25058   25058       0   25060   25061   25061       0
   25063   25064   25064       0   25066   25067   25067       0   25069   25070
   25070       0   25072   25073   25073       0   25075   25076   25076       0
   25078   25079   25079       0   25081   25082   25082       0   25084   25085
   25085       0   25087   25088   25088       0   25090   25091   25091       0
   25093   25094   25094       0   25096   25097   25097       0   25099   25100
   25100       0   25102   25103   25103       0   25105   25106   25106       0
   25108   25109   25109       0   25111   25112   25112       0   25114   25115
   25115       0   25117   25118   25118       0   25120   25121   25121       0
   25123   25124   25124       0   25126   25127   25127       0   25129   25130
   25130       0   25132   25133   25133       0   25135   25136   25136       0
   25138   25139   25139       0   25141   25142   25142       0   25144   25145
   25145       0   25147   25148   25148       0   25150   25151   25151       0
   25153   25154   25154       0   25156   25157   25157       0   25159   25160
   25160       0   25162   25163   25163       0   25165   25166   25166       0
   25168   25169   25169       0   25171   25172   25172       0   25174   25175
   25175       0   25177   25178   25178       0   25180   25181   25181       0
   25183   25184   25184       0   25186   25187   25187       0   25189   25190
   25190       0   25192   25193   25193       0   25195   25196   25196       0
   25198   25199   25199       0   25201   25202   25202       0   25204   25205
   25205       0   25207   25208   25208       0   25210   25211   25211       0
   25213   25214   25214       0   25216   25217   25217       0   25219   25220
   25220       0   25222   25223   25223       0   25225   25226   25226       0
   25228   25229   25229       0   25231   25232   25232       0   25234   25235
   25235       0   25237   25238   25238       0   25240   25241   25241       0
   25243   25244   25244       0   25246   25247   25247       0   25249   25250
   25250       0   25252   25253   25253       0   25255   25256   25256       0
   25258   25259   25259       0   25261   25262   25262       0   25264   25265
   25265       0   25267   25268   25268       0   25270   25271   25271       0
   25273   25274   25274       0   25276   25277   25277       0   25279   25280
   25280       0   25282   25283   25283       0   25285   25286   25286       0
   25288   25289   25289       0   25291   25292   25292       0   25294   25295
   25295       0   25297   25298   25298       0   25300   25301   25301       0
   25303   25304   25304       0   25306   25307   25307       0   25309   25310
   25310       0   25312   25313   25313       0   25315   25316   25316       0
   25318   25319   25319       0   25321   25322   25322       0   25324   25325
   25325       0   25327   25328   25328       0   25330   25331   25331       0
   25333   25334   25334       0   25336   25337   25337       0   25339   25340
   25340       0   25342   25343   25343       0   25345   25346   25346       0
   25348   25349   25349       0   25351   25352   25352       0   25354   25355
   25355       0   25357   25358   25358       0   25360   25361   25361       0
   25363   25364   25364       0   25366   25367   25367       0   25369   25370
   25370       0   25372   25373   25373       0   25375   25376   25376       0
   25378   25379   25379       0   25381   25382   25382       0   25384   25385
   25385       0   25387   25388   25388       0   25390   25391   25391       0
   25393   25394   25394       0   25396   25397   25397       0   25399   25400
   25400       0   25402   25403   25403       0   25405   25406   25406       0
   25408   25409   25409       0   25411   25412   25412       0   25414   25415
   25415       0   25417   25418   25418       0   25420   25421   25421       0
   25423   25424   25424       0   25426   25427   25427       0   25429   25430
   25430       0   25432   25433   25433       0   25435   25436   25436       0
   25438   25439   25439       0   25441   25442   25442       0   25444   25445
   25445       0   25447   25448   25448       0   25450   25451   25451       0
   25453   25454   25454       0   25456   25457   25457       0   25459   25460
   25460       0   25462   25463   25463       0   25465   25466   25466       0
   25468   25469   25469       0   25471   25472   25472       0   25474   25475
   25475       0   25477   25478   25478       0   25480   25481   25481       0
   25483   25484   25484       0   25486   25487   25487       0   25489   25490
   25490       0   25492   25493   25493       0   25495   25496   25496       0
   25498   25499   25499       0   25501   25502   25502       0   25504   25505
   25505       0   25507   25508   25508       0   25510   25511   25511       0
   25513   25514   25514       0   25516   25517   25517       0   25519   25520
   25520       0   25522   25523   25523       0   25525   25526   25526       0
   25528   25529   25529       0   25531   25532   25532       0   25534   25535
   25535       0   25537   25538   25538       0   25540   25541   25541       0
   25543   25544   25544       0   25546   25547   25547       0   25549   25550
   25550       0   25552   25553   25553       0   25555   25556   25556       0
   25558   25559   25559       0   25561   25562   25562       0   25564   25565
   25565       0   25567   25568   25568       0   25570   25571   25571       0
   25573   25574   25574       0   25576   25577   25577       0   25579   25580
   25580       0   25582   25583   25583       0   25585   25586   25586       0
   25588   25589   25589       0   25591   25592   25592       0   25594   25595
   25595       0   25597   25598   25598       0   25600   25601   25601       0
   25603   25604   25604       0   25606   25607   25607       0   25609   25610
   25610       0   25612   25613   25613       0   25615   25616   25616       0
   25618   25619   25619       0   25621   25622   25622       0   25624   25625
   25625       0   25627   25628   25628       0   25630   25631   25631       0
   25633   25634   25634       0   25636   25637   25637       0   25639   25640
   25640       0   25642   25643   25643       0   25645   25646   25646       0
   25648   25649   25649       0   25651   25652   25652       0   25654   25655
   25655       0   25657   25658   25658       0   25660   25661   25661       0
   25663   25664   25664       0   25666   25667   25667       0   25669   25670
   25670       0   25672   25673   25673       0   25675   25676   25676       0
   25678   25679   25679       0   25681   25682   25682       0   25684   25685
   25685       0   25687   25688   25688       0   25690   25691   25691       0
   25693   25694   25694       0   25696   25697   25697       0   25699   25700
   25700       0   25702   25703   25703       0   25705   25706   25706       0
   25708   25709   25709       0   25711   25712   25712       0   25714   25715
   25715       0   25717   25718   25718       0   25720   25721   25721       0
   25723   25724   25724       0   25726   25727   25727       0   25729   25730
   25730       0   25732   25733   25733       0   25735   25736   25736       0
   25738   25739   25739       0   25741   25742   25742       0   25744   25745
   25745       0   25747   25748   25748       0   25750   25751   25751       0
   25753   25754   25754       0   25756   25757   25757       0   25759   25760
   25760       0   25762   25763   25763       0   25765   25766   25766       0
   25768   25769   25769       0   25771   25772   25772       0   25774   25775
   25775       0   25777   25778   25778       0   25780   25781   25781       0
   25783   25784   25784       0   25786   25787   25787       0   25789   25790
   25790       0   25792   25793   25793       0   25795   25796   25796       0
   25798   25799   25799       0   25801   25802   25802       0   25804   25805
   25805       0   25807   25808   25808       0   25810   25811   25811       0
   25813   25814   25814       0   25816   25817   25817       0   25819   25820
   25820       0   25822   25823   25823       0   25825   25826   25826       0
   25828   25829   25829       0   25831   25832   25832       0   25834   25835
   25835       0   25837   25838   25838       0   25840   25841   25841       0
   25843   25844   25844       0   25846   25847   25847       0   25849   25850
   25850       0   25852   25853   25853       0   25855   25856   25856       0
   25858   25859   25859       0   25861   25862   25862       0   25864   25865
   25865       0   25867   25868   25868       0   25870   25871   25871       0
   25873   25874   25874       0   25876   25877   25877       0   25879   25880
   25880       0   25882   25883   25883       0   25885   25886   25886       0
   25888   25889   25889       0   25891   25892   25892       0   25894   25895
   25895       0   25897   25898   25898       0   25900   25901   25901       0
   25903   25904   25904       0   25906   25907   25907       0   25909   25910
   25910       0   25912   25913   25913       0   25915   25916   25916       0
   25918   25919   25919       0   25921   25922   25922       0   25924   25925
   25925       0   25927   25928   25928       0   25930   25931   25931       0
   25933   25934   25934       0   25936   25937   25937       0   25939   25940
   25940       0   25942   25943   25943       0   25945   25946   25946       0
   25948   25949   25949       0   25951   25952   25952       0   25954   25955
   25955       0   25957   25958   25958       0   25960   25961   25961       0
   25963   25964   25964       0   25966   25967   25967       0   25969   25970
   25970       0   25972   25973   25973       0   25975   25976   25976       0
   25978   25979   25979       0   25981   25982   25982       0   25984   25985
   25985       0   25987   25988   25988       0   25990   25991   25991       0
   25993   25994   25994       0   25996   25997   25997       0   25999   26000
   26000       0   26002   26003   26003       0   26005   26006   26006       0
   26008   26009   26009       0   26011   26012   26012       0   26014   26015
   26015       0   26017   26018   26018       0   26020   26021   26021       0
   26023   26024   26024       0   26026   26027   26027       0   26029   26030
   26030       0   26032   26033   26033       0   26035   26036   26036       0
   26038   26039   26039       0   26041   26042   26042       0   26044   26045
   26045       0   26047   26048   26048       0   26050   26051   26051       0
   26053   26054   26054       0   26056   26057   26057       0   26059   26060
   26060       0   26062   26063   26063       0   26065   26066   26066       0
   26068   26069   26069       0   26071   26072   26072       0   26074   26075
   26075       0   26077   26078   26078       0   26080   26081   26081       0
   26083   26084   26084       0   26086   26087   26087       0   26089   26090
   26090       0   26092   26093   26093       0   26095   26096   26096       0
   26098   26099   26099       0   26101   26102   26102       0   26104   26105
   26105       0   26107   26108   26108       0   26110   26111   26111       0
   26113   26114   26114       0   26116   26117   26117       0   26119   26120
   26120       0   26122   26123   26123       0   26125   26126   26126       0
   26128   26129   26129       0   26131   26132   26132       0   26134   26135
   26135       0   26137   26138   26138       0   26140   26141   26141       0
   26143   26144   26144       0   26146   26147   26147       0   26149   26150
   26150       0   26152   26153   26153       0   26155   26156   26156       0
   26158   26159   26159       0   26161   26162   26162       0   26164   26165
   26165       0   26167   26168   26168       0   26170   26171   26171       0
   26173   26174   26174       0   26176   26177   26177       0   26179   26180
   26180       0   26182   26183   26183       0   26185   26186   26186       0
   26188   26189   26189       0   26191   26192   26192       0   26194   26195
   26195       0   26197   26198   26198       0   26200   26201   26201       0
   26203   26204   26204       0   26206   26207   26207       0   26209   26210
   26210       0   26212   26213   26213       0   26215   26216   26216       0
   26218   26219   26219       0   26221   26222   26222       0   26224   26225
   26225       0   26227   26228   26228       0   26230   26231   26231       0
   26233   26234   26234       0   26236   26237   26237       0   26239   26240
   26240       0   26242   26243   26243       0   26245   26246   26246       0
   26248   26249   26249       0   26251   26252   26252       0   26254   26255
   26255       0   26257   26258   26258       0   26260   26261   26261       0
   26263   26264   26264       0   26266   26267   26267       0   26269   26270
   26270       0   26272   26273   26273       0   26275   26276   26276       0
   26278   26279   26279       0   26281   26282   26282       0   26284   26285
   26285       0   26287   26288   26288       0   26290   26291   26291       0
   26293   26294   26294       0   26296   26297   26297       0   26299   26300
   26300       0   26302   26303   26303       0   26305   26306   26306       0
   26308   26309   26309       0   26311   26312   26312       0   26314   26315
   26315       0   26317   26318   26318       0   26320   26321   26321       0
   26323   26324   26324       0   26326   26327   26327       0   26329   26330
   26330       0   26332   26333   26333       0   26335   26336   26336       0
   26338   26339   26339       0   26341   26342   26342       0   26344   26345
   26345       0   26347   26348   26348       0   26350   26351   26351       0
   26353   26354   26354       0   26356   26357   26357       0   26359   26360
   26360       0   26362   26363   26363       0   26365   26366   26366       0
   26368   26369   26369       0   26371   26372   26372       0   26374   26375
   26375       0   26377   26378   26378       0   26380   26381   26381       0
   26383   26384   26384       0   26386   26387   26387       0   26389   26390
   26390       0   26392   26393   26393       0   26395   26396   26396       0
   26398   26399   26399       0   26401   26402   26402       0   26404   26405
   26405       0   26407   26408   26408       0   26410   26411   26411       0
   26413   26414   26414       0   26416   26417   26417       0   26419   26420
   26420       0   26422   26423   26423       0   26425   26426   26426       0
   26428   26429   26429       0   26431   26432   26432       0   26434   26435
   26435       0   26437   26438   26438       0   26440   26441   26441       0
   26443   26444   26444       0   26446   26447   26447       0   26449   26450
   26450       0   26452   26453   26453       0   26455   26456   26456       0
   26458   26459   26459       0   26461   26462   26462       0   26464   26465
   26465       0   26467   26468   26468       0   26470   26471   26471       0
   26473   26474   26474       0   26476   26477   26477       0   26479   26480
   26480       0   26482   26483   26483       0   26485   26486   26486       0
   26488   26489   26489       0   26491   26492   26492       0   26494   26495
   26495       0   26497   26498   26498       0   26500   26501   26501       0
   26503   26504   26504       0   26506   26507   26507       0   26509   26510
   26510       0   26512   26513   26513       0   26515   26516   26516       0
   26518   26519   26519       0   26521   26522   26522       0   26524   26525
   26525       0   26527   26528   26528       0   26530   26531   26531       0
   26533   26534   26534       0   26536   26537   26537       0   26539   26540
   26540       0   26542   26543   26543       0   26545   26546   26546       0
   26548   26549   26549       0   26551   26552   26552       0   26554   26555
   26555       0   26557   26558   26558       0   26560   26561   26561       0
   26563   26564   26564       0   26566   26567   26567       0   26569   26570
   26570       0   26572   26573   26573       0   26575   26576   26576       0
   26578   26579   26579       0   26581   26582   26582       0   26584   26585
   26585       0   26587   26588   26588       0   26590   26591   26591       0
   26593   26594   26594       0   26596   26597   26597       0   26599   26600
   26600       0   26602   26603   26603       0   26605   26606   26606       0
   26608   26609   26609       0   26611   26612   26612       0   26614   26615
   26615       0   26617   26618   26618       0   26620   26621   26621       0
   26623   26624   26624       0   26626   26627   26627       0   26629   26630
   26630       0   26632   26633   26633       0   26635   26636   26636       0
   26638   26639   26639       0   26641   26642   26642       0   26644   26645
   26645       0   26647   26648   26648       0   26650   26651   26651       0
   26653   26654   26654       0   26656   26657   26657       0   26659   26660
   26660       0   26662   26663   26663       0   26665   26666   26666       0
   26668   26669   26669       0   26671   26672   26672       0   26674   26675
   26675       0   26677   26678   26678       0   26680   26681   26681       0
   26683   26684   26684       0   26686   26687   26687       0   26689   26690
   26690       0   26692   26693   26693       0   26695   26696   26696       0
   26698   26699   26699       0   26701   26702   26702       0   26704   26705
   26705       0   26707   26708   26708       0   26710   26711   26711       0
   26713   26714   26714       0   26716   26717   26717       0   26719   26720
   26720       0   26722   26723   26723       0   26725   26726   26726       0
   26728   26729   26729       0   26731   26732   26732       0   26734   26735
   26735       0   26737   26738   26738       0   26740   26741   26741       0
   26743   26744   26744       0   26746   26747   26747       0   26749   26750
   26750       0   26752   26753   26753       0   26755   26756   26756       0
   26758   26759   26759       0   26761   26762   26762       0   26764   26765
   26765       0   26767   26768   26768       0   26770   26771   26771       0
   26773   26774   26774       0   26776   26777   26777       0   26779   26780
   26780       0   26782   26783   26783       0   26785   26786   26786       0
   26788   26789   26789       0   26791   26792   26792       0   26794   26795
   26795       0   26797   26798   26798       0   26800   26801   26801       0
   26803   26804   26804       0   26806   26807   26807       0   26809   26810
   26810       0   26812   26813   26813       0   26815   26816   26816       0
   26818   26819   26819       0   26821   26822   26822       0   26824   26825
   26825       0   26827   26828   26828       0   26830   26831   26831       0
   26833   26834   26834       0   26836   26837   26837       0   26839   26840
   26840       0   26842   26843   26843       0   26845   26846   26846       0
   26848   26849   26849       0   26851   26852   26852       0   26854   26855
   26855       0   26857   26858   26858       0   26860   26861   26861       0
   26863   26864   26864       0   26866   26867   26867       0   26869   26870
   26870       0   26872   26873   26873       0   26875   26876   26876       0
   26878   26879   26879       0   26881   26882   26882       0   26884   26885
   26885       0   26887   26888   26888       0   26890   26891   26891       0
   26893   26894   26894       0   26896   26897   26897       0   26899   26900
   26900       0   26902   26903   26903       0   26905   26906   26906       0
   26908   26909   26909       0   26911   26912   26912       0   26914   26915
   26915       0   26917   26918   26918       0   26920   26921   26921       0
   26923   26924   26924       0   26926   26927   26927       0   26929   26930
   26930       0   26932   26933   26933       0   26935   26936   26936       0
   26938   26939   26939       0   26941   26942   26942       0   26944   26945
   26945       0   26947   26948   26948       0   26950   26951   26951       0
   26953   26954   26954       0   26956   26957   26957       0   26959   26960
   26960       0   26962   26963   26963       0   26965   26966   26966       0
   26968   26969   26969       0   26971   26972   26972       0   26974   26975
   26975       0   26977   26978   26978       0   26980   26981   26981       0
   26983   26984   26984       0   26986   26987   26987       0   26989   26990
   26990       0   26992   26993   26993       0   26995   26996   26996       0
   26998   26999   26999       0   27001   27002   27002       0   27004   27005
   27005       0   27007   27008   27008       0   27010   27011   27011       0
   27013   27014   27014       0   27016   27017   27017       0   27019   27020
   27020       0   27022   27023   27023       0   27025   27026   27026       0
   27028   27029   27029       0   27031   27032   27032       0   27034   27035
   27035       0   27037   27038   27038       0   27040   27041   27041       0
   27043   27044   27044       0   27046   27047   27047       0   27049   27050
   27050       0   27052   27053   27053       0   27055   27056   27056       0
   27058   27059   27059       0   27061   27062   27062       0   27064   27065
   27065       0   27067   27068   27068       0   27070   27071   27071       0
   27073   27074   27074       0   27076   27077   27077       0   27079   27080
   27080       0   27082   27083   27083       0   27085   27086   27086       0
   27088   27089   27089       0   27091   27092   27092       0   27094   27095
   27095       0   27097   27098   27098       0   27100   27101   27101       0
   27103   27104   27104       0   27106   27107   27107       0   27109   27110
   27110       0   27112   27113   27113       0   27115   27116   27116       0
   27118   27119   27119       0   27121   27122   27122       0   27124   27125
   27125       0   27127   27128   27128       0   27130   27131   27131       0
   27133   27134   27134       0   27136   27137   27137       0   27139   27140
   27140       0   27142   27143   27143       0   27145   27146   27146       0
   27148   27149   27149       0   27151   27152   27152       0   27154   27155
   27155       0   27157   27158   27158       0   27160   27161   27161       0
   27163   27164   27164       0   27166   27167   27167       0   27169   27170
   27170       0   27172   27173   27173       0   27175   27176   27176       0
   27178   27179   27179       0   27181   27182   27182       0   27184   27185
   27185       0   27187   27188   27188       0   27190   27191   27191       0
   27193   27194   27194       0   27196   27197   27197       0   27199   27200
   27200       0   27202   27203   27203       0   27205   27206   27206       0
   27208   27209   27209       0   27211   27212   27212       0   27214   27215
   27215       0   27217   27218   27218       0   27220   27221   27221       0
   27223   27224   27224       0   27226   27227   27227       0   27229   27230
   27230       0   27232   27233   27233       0   27235   27236   27236       0
   27238   27239   27239       0   27241   27242   27242       0   27244   27245
   27245       0   27247   27248   27248       0   27250   27251   27251       0
   27253   27254   27254       0   27256   27257   27257       0   27259   27260
   27260       0   27262   27263   27263       0   27265   27266   27266       0
   27268   27269   27269       0   27271   27272   27272       0   27274   27275
   27275       0   27277   27278   27278       0   27280   27281   27281       0
   27283   27284   27284       0   27286   27287   27287       0   27289   27290
   27290       0   27292   27293   27293       0   27295   27296   27296       0
   27298   27299   27299       0   27301   27302   27302       0   27304   27305
   27305       0   27307   27308   27308       0   27310   27311   27311       0
   27313   27314   27314       0   27316   27317   27317       0   27319   27320
   27320       0   27322   27323   27323       0   27325   27326   27326       0
   27328   27329   27329       0   27331   27332   27332       0   27334   27335
   27335       0   27337   27338   27338       0   27340   27341   27341       0
   27343   27344   27344       0   27346   27347   27347       0   27349   27350
   27350       0   27352   27353   27353       0   27355   27356   27356       0
   27358   27359   27359       0   27361   27362   27362       0   27364   27365
   27365       0   27367   27368   27368       0   27370   27371   27371       0
   27373   27374   27374       0   27376   27377   27377       0   27379   27380
   27380       0   27382   27383   27383       0   27385   27386   27386       0
   27388   27389   27389       0   27391   27392   27392       0   27394   27395
   27395       0   27397   27398   27398       0   27400   27401   27401       0
   27403   27404   27404       0   27406   27407   27407       0   27409   27410
   27410       0   27412   27413   27413       0   27415   27416   27416       0
   27418   27419   27419       0   27421   27422   27422       0   27424   27425
   27425       0   27427   27428   27428       0   27430   27431   27431       0
   27433   27434   27434       0   27436   27437   27437       0   27439   27440
   27440       0   27442   27443   27443       0   27445   27446   27446       0
   27448   27449   27449       0   27451   27452   27452       0   27454   27455
   27455       0   27457   27458   27458       0   27460   27461   27461       0
   27463   27464   27464       0   27466   27467   27467       0   27469   27470
   27470       0   27472   27473   27473       0   27475   27476   27476       0
   27478   27479   27479       0   27481   27482   27482       0   27484   27485
   27485       0   27487   27488   27488       0   27490   27491   27491       0
   27493   27494   27494       0   27496   27497   27497       0   27499   27500
   27500       0   27502   27503   27503       0   27505   27506   27506       0
   27508   27509   27509       0   27511   27512   27512       0   27514   27515
   27515       0   27517   27518   27518       0   27520   27521   27521       0
   27523   27524   27524       0   27526   27527   27527       0   27529   27530
   27530       0   27532   27533   27533       0   27535   27536   27536       0
   27538   27539   27539       0   27541   27542   27542       0   27544   27545
   27545       0   27547   27548   27548       0   27550   27551   27551       0
   27553   27554   27554       0   27556   27557   27557       0   27559   27560
   27560       0   27562   27563   27563       0   27565   27566   27566       0
   27568   27569   27569       0   27571   27572   27572       0   27574   27575
   27575       0   27577   27578   27578       0   27580   27581   27581       0
   27583   27584   27584       0   27586   27587   27587       0   27589   27590
   27590       0   27592   27593   27593       0   27595   27596   27596       0
   27598   27599   27599       0   27601   27602   27602       0   27604   27605
   27605       0   27607   27608   27608       0   27610   27611   27611       0
   27613   27614   27614       0   27616   27617   27617       0   27619   27620
   27620       0   27622   27623   27623       0   27625   27626   27626       0
   27628   27629   27629       0   27631   27632   27632       0   27634   27635
   27635       0   27637   27638   27638       0   27640   27641   27641       0
   27643   27644   27644       0   27646   27647   27647       0   27649   27650
   27650       0   27652   27653   27653       0   27655   27656   27656       0
   27658   27659   27659       0   27661   27662   27662       0   27664   27665
   27665       0   27667   27668   27668       0   27670   27671   27671       0
   27673   27674   27674       0   27676   27677   27677       0   27679   27680
   27680       0   27682   27683   27683       0   27685   27686   27686       0
   27688   27689   27689       0   27691   27692   27692       0   27694   27695
   27695       0   27697   27698   27698       0   27700   27701   27701       0
   27703   27704   27704       0   27706   27707   27707       0   27709   27710
   27710       0   27712   27713   27713       0   27715   27716   27716       0
   27718   27719   27719       0   27721   27722   27722       0   27724   27725
   27725       0   27727   27728   27728       0   27730   27731   27731       0
   27733   27734   27734       0   27736   27737   27737       0   27739   27740
   27740       0   27742   27743   27743       0   27745   27746   27746       0
   27748   27749   27749       0   27751   27752   27752       0   27754   27755
   27755       0   27757   27758   27758       0   27760   27761   27761       0
   27763   27764   27764       0   27766   27767   27767       0   27769   27770
   27770       0   27772   27773   27773       0   27775   27776   27776       0
   27778   27779   27779       0   27781   27782   27782       0   27784   27785
   27785       0   27787   27788   27788       0   27790   27791   27791       0
   27793   27794   27794       0   27796   27797   27797       0   27799   27800
   27800       0   27802   27803   27803       0   27805   27806   27806       0
   27808   27809   27809       0   27811   27812   27812       0   27814   27815
   27815       0   27817   27818   27818       0   27820   27821   27821       0
   27823   27824   27824       0   27826   27827   27827       0   27829   27830
   27830       0   27832   27833   27833       0   27835   27836   27836       0
   27838   27839   27839       0   27841   27842   27842       0   27844   27845
   27845       0   27847   27848   27848       0   27850   27851   27851       0
   27853   27854   27854       0   27856   27857   27857       0   27859   27860
   27860       0   27862   27863   27863       0   27865   27866   27866       0
   27868   27869   27869       0   27871   27872   27872       0   27874   27875
   27875       0   27877   27878   27878       0   27880   27881   27881       0
   27883   27884   27884       0   27886   27887   27887       0   27889   27890
   27890       0   27892   27893   27893       0   27895   27896   27896       0
   27898   27899   27899       0   27901   27902   27902       0   27904   27905
   27905       0   27907   27908   27908       0   27910   27911   27911       0
   27913   27914   27914       0   27916   27917   27917       0   27919   27920
   27920       0   27922   27923   27923       0   27925   27926   27926       0
   27928   27929   27929       0   27931   27932   27932       0   27934   27935
   27935       0   27937   27938   27938       0   27940   27941   27941       0
   27943   27944   27944       0   27946   27947   27947       0   27949   27950
   27950       0   27952   27953   27953       0   27955   27956   27956       0
   27958   27959   27959       0   27961   27962   27962       0   27964   27965
   27965       0   27967   27968   27968       0   27970   27971   27971       0
   27973   27974   27974       0   27976   27977   27977       0   27979   27980
   27980       0   27982   27983   27983       0   27985   27986   27986       0
   27988   27989   27989       0   27991   27992   27992       0   27994   27995
   27995       0   27997   27998   27998       0   28000   28001   28001       0
   28003   28004   28004       0   28006   28007   28007       0   28009   28010
   28010       0   28012   28013   28013       0   28015   28016   28016       0
   28018   28019   28019       0   28021   28022   28022       0   28024   28025
   28025       0   28027   28028   28028       0   28030   28031   28031       0
   28033   28034   28034       0   28036   28037   28037       0   28039   28040
   28040       0   28042   28043   28043       0   28045   28046   28046       0
   28048   28049   28049       0   28051   28052   28052       0   28054   28055
   28055       0   28057   28058   28058       0   28060   28061   28061       0
   28063   28064   28064       0   28066   28067   28067       0   28069   28070
   28070       0   28072   28073   28073       0   28075   28076   28076       0
   28078   28079   28079       0   28081   28082   28082       0   28084   28085
   28085       0   28087   28088   28088       0   28090   28091   28091       0
   28093   28094   28094       0   28096   28097   28097       0   28099   28100
   28100       0   28102   28103   28103       0   28105   28106   28106       0
   28108   28109   28109       0   28111   28112   28112       0   28114   28115
   28115       0   28117   28118   28118       0   28120   28121   28121       0
   28123   28124   28124       0   28126   28127   28127       0   28129   28130
   28130       0   28132   28133   28133       0   28135   28136   28136       0
   28138   28139   28139       0   28141   28142   28142       0   28144   28145
   28145       0   28147   28148   28148       0   28150   28151   28151       0
   28153   28154   28154       0   28156   28157   28157       0   28159   28160
   28160       0   28162   28163   28163       0   28165   28166   28166       0
   28168   28169   28169       0   28171   28172   28172       0   28174   28175
   28175       0   28177   28178   28178       0   28180   28181   28181       0
   28183   28184   28184       0   28186   28187   28187       0   28189   28190
   28190       0   28192   28193   28193       0   28195   28196   28196       0
   28198   28199   28199       0   28201   28202   28202       0   28204   28205
   28205       0   28207   28208   28208       0   28210   28211   28211       0
   28213   28214   28214       0   28216   28217   28217       0   28219   28220
   28220       0   28222   28223   28223       0   28225   28226   28226       0
   28228   28229   28229       0   28231   28232   28232       0   28234   28235
   28235       0   28237   28238   28238       0   28240   28241   28241       0
   28243   28244   28244       0   28246   28247   28247       0   28249   28250
   28250       0   28252   28253   28253       0   28255   28256   28256       0
   28258   28259   28259       0   28261   28262   28262       0   28264   28265
   28265       0   28267   28268   28268       0   28270   28271   28271       0
   28273   28274   28274       0   28276   28277   28277       0   28279   28280
   28280       0   28282   28283   28283       0   28285   28286   28286       0
   28288   28289   28289       0   28291   28292   28292       0   28294   28295
   28295       0   28297   28298   28298       0   28300   28301   28301       0
   28303   28304   28304       0   28306   28307   28307       0   28309   28310
   28310       0   28312   28313   28313       0   28315   28316   28316       0
   28318   28319   28319       0   28321   28322   28322       0   28324   28325
   28325       0   28327   28328   28328       0   28330   28331   28331       0
   28333   28334   28334       0   28336   28337   28337       0   28339   28340
   28340       0   28342   28343   28343       0   28345   28346   28346       0
   28348   28349   28349       0   28351   28352   28352       0   28354   28355
   28355       0   28357   28358   28358       0   28360   28361   28361       0
   28363   28364   28364       0   28366   28367   28367       0   28369   28370
   28370       0   28372   28373   28373       0   28375   28376   28376       0
   28378   28379   28379       0   28381   28382   28382       0   28384   28385
   28385       0   28387   28388   28388       0   28390   28391   28391       0
   28393   28394   28394       0   28396   28397   28397       0   28399   28400
   28400       0   28402   28403   28403       0   28405   28406   28406       0
   28408   28409   28409       0   28411   28412   28412       0   28414   28415
   28415       0   28417   28418   28418       0   28420   28421   28421       0
   28423   28424   28424       0   28426   28427   28427       0   28429   28430
   28430       0   28432   28433   28433       0   28435   28436   28436       0
   28438   28439   28439       0   28441   28442   28442       0   28444   28445
   28445       0   28447   28448   28448       0   28450   28451   28451       0
   28453   28454   28454       0   28456   28457   28457       0   28459   28460
   28460       0   28462   28463   28463       0   28465   28466   28466       0
   28468   28469   28469       0   28471   28472   28472       0   28474   28475
   28475       0   28477   28478   28478       0   28480   28481   28481       0
   28483   28484   28484       0   28486   28487   28487       0   28489   28490
   28490       0   28492   28493   28493       0   28495   28496   28496       0
   28498   28499   28499       0   28501   28502   28502       0   28504   28505
   28505       0   28507   28508   28508       0   28510   28511   28511       0
   28513   28514   28514       0   28516   28517   28517       0   28519   28520
   28520       0   28522   28523   28523       0   28525   28526   28526       0
   28528   28529   28529       0   28531   28532   28532       0   28534   28535
   28535       0   28537   28538   28538       0   28540   28541   28541       0
   28543   28544   28544       0   28546   28547   28547       0   28549   28550
   28550       0   28552   28553   28553       0   28555   28556   28556       0
   28558   28559   28559       0   28561   28562   28562       0   28564   28565
   28565       0   28567   28568   28568       0   28570   28571   28571       0
   28573   28574   28574       0   28576   28577   28577       0   28579   28580
   28580       0   28582   28583   28583       0   28585   28586   28586       0
   28588   28589   28589       0   28591   28592   28592       0   28594   28595
   28595       0   28597   28598   28598       0   28600   28601   28601       0
   28603   28604   28604       0   28606   28607   28607       0   28609   28610
   28610       0   28612   28613   28613       0   28615   28616   28616       0
   28618   28619   28619       0   28621   28622   28622       0   28624   28625
   28625       0   28627   28628   28628       0   28630   28631   28631       0
   28633   28634   28634       0   28636   28637   28637       0   28639   28640
   28640       0   28642   28643   28643       0   28645   28646   28646       0
   28648   28649   28649       0   28651   28652   28652       0   28654   28655
   28655       0   28657   28658   28658       0   28660   28661   28661       0
   28663   28664   28664       0   28666   28667   28667       0   28669   28670
   28670       0   28672   28673   28673       0   28675   28676   28676       0
   28678   28679   28679       0   28681   28682   28682       0   28684   28685
   28685       0   28687   28688   28688       0   28690   28691   28691       0
   28693   28694   28694       0   28696   28697   28697       0   28699   28700
   28700       0   28702   28703   28703       0   28705   28706   28706       0
   28708   28709   28709       0   28711   28712   28712       0   28714   28715
   28715       0   28717   28718   28718       0   28720   28721   28721       0
   28723   28724   28724       0   28726   28727   28727       0   28729   28730
   28730       0   28732   28733   28733       0   28735   28736   28736       0
   28738   28739   28739       0   28741   28742   28742       0   28744   28745
   28745       0   28747   28748   28748       0   28750   28751   28751       0
   28753   28754   28754       0   28756   28757   28757       0   28759   28760
   28760       0   28762   28763   28763       0   28765   28766   28766       0
   28768   28769   28769       0   28771   28772   28772       0   28774   28775
   28775       0   28777   28778   28778       0   28780   28781   28781       0
   28783   28784   28784       0   28786   28787   28787       0   28789   28790
   28790       0   28792   28793   28793       0   28795   28796   28796       0
   28798   28799   28799       0   28801   28802   28802       0   28804   28805
   28805       0   28807   28808   28808       0   28810   28811   28811       0
   28813   28814   28814       0   28816   28817   28817       0   28819   28820
   28820       0   28822   28823   28823       0   28825   28826   28826       0
   28828   28829   28829       0   28831   28832   28832       0   28834   28835
   28835       0   28837   28838   28838       0   28840   28841   28841       0
   28843   28844   28844       0   28846   28847   28847       0   28849   28850
   28850       0   28852   28853   28853       0   28855   28856   28856       0
   28858   28859   28859       0   28861   28862   28862       0   28864   28865
   28865       0   28867   28868   28868       0   28870   28871   28871       0
   28873   28874   28874       0   28876   28877   28877       0   28879   28880
   28880       0   28882   28883   28883       0   28885   28886   28886       0
   28888   28889   28889       0   28891   28892   28892       0   28894   28895
   28895       0   28897   28898   28898       0   28900   28901   28901       0
   28903   28904   28904       0   28906   28907   28907       0   28909   28910
   28910       0   28912   28913   28913       0   28915   28916   28916       0
   28918   28919   28919       0   28921   28922   28922       0   28924   28925
   28925       0   28927   28928   28928       0   28930   28931   28931       0
   28933   28934   28934       0   28936   28937   28937       0   28939   28940
   28940       0   28942   28943   28943       0   28945   28946   28946       0
   28948   28949   28949       0   28951   28952   28952       0   28954   28955
   28955       0   28957   28958   28958       0   28960   28961   28961       0
   28963   28964   28964       0   28966   28967   28967       0   28969   28970
   28970       0   28972   28973   28973       0   28975   28976   28976       0
   28978   28979   28979       0   28981   28982   28982       0   28984   28985
   28985       0   28987   28988   28988       0   28990   28991   28991       0
   28993   28994   28994       0   28996   28997   28997       0   28999   29000
   29000       0   29002   29003   29003       0   29005   29006   29006       0
   29008   29009   29009       0   29011   29012   29012       0   29014   29015
   29015       0   29017   29018   29018       0   29020   29021   29021       0
   29023   29024   29024       0   29026   29027   29027       0   29029   29030
   29030       0   29032   29033   29033       0   29035   29036   29036       0
   29038   29039   29039       0   29041   29042   29042       0   29044   29045
   29045       0   29047   29048   29048       0   29050   29051   29051       0
   29053   29054   29054       0   29056   29057   29057       0   29059   29060
   29060       0   29062   29063   29063       0   29065   29066   29066       0
   29068   29069   29069       0   29071   29072   29072       0   29074   29075
   29075       0   29077   29078   29078       0   29080   29081   29081       0
   29083   29084   29084       0   29086   29087   29087       0   29089   29090
   29090       0   29092   29093   29093       0   29095   29096   29096       0
   29098   29099   29099       0   29101   29102   29102       0   29104   29105
   29105       0   29107   29108   29108       0   29110   29111   29111       0
   29113   29114   29114       0   29116   29117   29117       0   29119   29120
   29120       0   29122   29123   29123       0   29125   29126   29126       0
   29128   29129   29129       0   29131   29132   29132       0   29134   29135
   29135       0   29137   29138   29138       0   29140   29141   29141       0
   29143   29144   29144       0   29146   29147   29147       0   29149   29150
   29150       0   29152   29153   29153       0   29155   29156   29156       0
   29158   29159   29159       0   29161   29162   29162       0   29164   29165
   29165       0   29167   29168   29168       0   29170   29171   29171       0
   29173   29174   29174       0   29176   29177   29177       0   29179   29180
   29180       0   29182   29183   29183       0   29185   29186   29186       0
   29188   29189   29189       0   29191   29192   29192       0   29194   29195
   29195       0   29197   29198   29198       0   29200   29201   29201       0
   29203   29204   29204       0   29206   29207   29207       0   29209   29210
   29210       0   29212   29213   29213       0   29215   29216   29216       0
   29218   29219   29219       0   29221   29222   29222       0   29224   29225
   29225       0   29227   29228   29228       0   29230   29231   29231       0
   29233   29234   29234       0   29236   29237   29237       0   29239   29240
   29240       0   29242   29243   29243       0   29245   29246   29246       0
   29248   29249   29249       0   29251   29252   29252       0   29254   29255
   29255       0   29257   29258   29258       0   29260   29261   29261       0
   29263   29264   29264       0   29266   29267   29267       0   29269   29270
   29270       0   29272   29273   29273       0   29275   29276   29276       0
   29278   29279   29279       0   29281   29282   29282       0   29284   29285
   29285       0   29287   29288   29288       0   29290   29291   29291       0
   29293   29294   29294       0   29296   29297   29297       0   29299   29300
   29300       0   29302   29303   29303       0   29305   29306   29306       0
   29308   29309   29309       0   29311   29312   29312       0   29314   29315
   29315       0   29317   29318   29318       0   29320   29321   29321       0
   29323   29324   29324       0   29326   29327   29327       0   29329   29330
   29330       0   29332   29333   29333       0   29335   29336   29336       0
   29338   29339   29339       0   29341   29342   29342       0   29344   29345
   29345       0   29347   29348   29348       0   29350   29351   29351       0
   29353   29354   29354       0   29356   29357   29357       0   29359   29360
   29360       0   29362   29363   29363       0   29365   29366   29366       0
   29368   29369   29369       0   29371   29372   29372       0   29374   29375
   29375       0   29377   29378   29378       0   29380   29381   29381       0
   29383   29384   29384       0   29386   29387   29387       0   29389   29390
   29390       0   29392   29393   29393       0   29395   29396   29396       0
   29398   29399   29399       0   29401   29402   29402       0   29404   29405
   29405       0   29407   29408   29408       0   29410   29411   29411       0
   29413   29414   29414       0   29416   29417   29417       0   29419   29420
   29420       0   29422   29423   29423       0   29425   29426   29426       0
   29428   29429   29429       0   29431   29432   29432       0   29434   29435
   29435       0   29437   29438   29438       0   29440   29441   29441       0
   29443   29444   29444       0   29446   29447   29447       0   29449   29450
   29450       0   29452   29453   29453       0   29455   29456   29456       0
   29458   29459   29459       0   29461   29462   29462       0   29464   29465
   29465       0   29467   29468   29468       0   29470   29471   29471       0
   29473   29474   29474       0   29476   29477   29477       0   29479   29480
   29480       0   29482   29483   29483       0   29485   29486   29486       0
   29488   29489   29489       0   29491   29492   29492       0   29494   29495
   29495       0   29497   29498   29498       0   29500   29501   29501       0
   29503   29504   29504       0   29506   29507   29507       0   29509   29510
   29510       0   29512   29513   29513       0   29515   29516   29516       0
   29518   29519   29519       0   29521   29522   29522       0   29524   29525
   29525       0   29527   29528   29528       0   29530   29531   29531       0
   29533   29534   29534       0   29536   29537   29537       0   29539   29540
   29540       0   29542   29543   29543       0   29545   29546   29546       0
   29548   29549   29549       0   29551   29552   29552       0   29554   29555
   29555       0   29557   29558   29558       0   29560   29561   29561       0
   29563   29564   29564       0   29566   29567   29567       0   29569   29570
   29570       0   29572   29573   29573       0   29575   29576   29576       0
   29578   29579   29579       0   29581   29582   29582       0   29584   29585
   29585       0   29587   29588   29588       0   29590   29591   29591       0
   29593   29594   29594       0   29596   29597   29597       0   29599   29600
   29600       0   29602   29603   29603       0   29605   29606   29606       0
   29608   29609   29609       0   29611   29612   29612       0   29614   29615
   29615       0   29617   29618   29618       0   29620   29621   29621       0
   29623   29624   29624       0   29626   29627   29627       0   29629   29630
   29630       0   29632   29633   29633       0   29635   29636   29636       0
   29638   29639   29639       0   29641   29642   29642       0   29644   29645
   29645       0   29647   29648   29648       0   29650   29651   29651       0
   29653   29654   29654       0   29656   29657   29657       0   29659   29660
   29660       0   29662   29663   29663       0   29665   29666   29666       0
   29668   29669   29669       0   29671   29672   29672       0   29674   29675
   29675       0   29677   29678   29678       0   29680   29681   29681       0
   29683   29684   29684       0   29686   29687   29687       0   29689   29690
   29690       0   29692   29693   29693       0   29695   29696   29696       0
   29698   29699   29699       0   29701   29702   29702       0   29704   29705
   29705       0   29707   29708   29708       0   29710   29711   29711       0
   29713   29714   29714       0   29716   29717   29717       0   29719   29720
   29720       0   29722   29723   29723       0   29725   29726   29726       0
   29728   29729   29729       0   29731   29732   29732       0   29734   29735
   29735       0   29737   29738   29738       0   29740   29741   29741       0
   29743   29744   29744       0   29746   29747   29747       0   29749   29750
   29750       0   29752   29753   29753       0   29755   29756   29756       0
   29758   29759   29759       0   29761   29762   29762       0   29764   29765
   29765       0   29767   29768   29768       0   29770   29771   29771       0
   29773   29774   29774       0   29776   29777   29777       0   29779   29780
   29780       0   29782   29783   29783       0   29785   29786   29786       0
   29788   29789   29789       0   29791   29792   29792       0   29794   29795
   29795       0   29797   29798   29798       0   29800   29801   29801       0
   29803   29804   29804       0   29806   29807   29807       0   29809   29810
   29810       0   29812   29813   29813       0   29815   29816   29816       0
   29818   29819   29819       0   29821   29822   29822       0   29824   29825
   29825       0   29827   29828   29828       0   29830   29831   29831       0
   29833   29834   29834       0   29836   29837   29837       0   29839   29840
   29840       0   29842   29843   29843       0   29845   29846   29846       0
   29848   29849   29849       0   29851   29852   29852       0   29854   29855
   29855       0   29857   29858   29858       0   29860   29861   29861       0
   29863   29864   29864       0   29866   29867   29867       0   29869   29870
   29870       0   29872   29873   29873       0   29875   29876   29876       0
   29878   29879   29879       0   29881   29882   29882       0   29884   29885
   29885       0   29887   29888   29888       0   29890   29891   29891       0
   29893   29894   29894       0   29896   29897   29897       0   29899   29900
   29900       0   29902   29903   29903       0   29905   29906   29906       0
   29908   29909   29909       0   29911   29912   29912       0   29914   29915
   29915       0   29917   29918   29918       0   29920   29921   29921       0
   29923   29924   29924       0   29926   29927   29927       0   29929   29930
   29930       0   29932   29933   29933       0   29935   29936   29936       0
   29938   29939   29939       0   29941   29942   29942       0   29944   29945
   29945       0   29947   29948   29948       0   29950   29951   29951       0
   29953   29954   29954       0   29956   29957   29957       0   29959   29960
   29960       0   29962   29963   29963       0   29965   29966   29966       0
   29968   29969   29969       0   29971   29972   29972       0   29974   29975
   29975       0   29977   29978   29978       0   29980   29981   29981       0
   29983   29984   29984       0   29986   29987   29987       0   29989   29990
   29990       0   29992   29993   29993       0   29995   29996   29996       0
   29998   29999   29999       0   30001   30002   30002       0   30004   30005
   30005       0   30007   30008   30008       0   30010   30011   30011       0
   30013   30014   30014       0   30016   30017   30017       0   30019   30020
   30020       0   30022   30023   30023       0   30025   30026   30026       0
   30028   30029   30029       0   30031   30032   30032       0   30034   30035
   30035       0   30037   30038   30038       0   30040   30041   30041       0
   30043   30044   30044       0   30046   30047   30047       0   30049   30050
   30050       0   30052   30053   30053       0   30055   30056   30056       0
   30058   30059   30059       0   30061   30062   30062       0   30064   30065
   30065       0   30067   30068   30068       0   30070   30071   30071       0
   30073   30074   30074       0   30076   30077   30077       0   30079   30080
   30080       0   30082   30083   30083       0   30085   30086   30086       0
   30088   30089   30089       0   30091   30092   30092       0   30094   30095
   30095       0   30097   30098   30098       0   30100   30101   30101       0
   30103   30104   30104       0   30106   30107   30107       0   30109   30110
   30110       0   30112   30113   30113       0   30115   30116   30116       0
   30118   30119   30119       0   30121   30122   30122       0   30124   30125
   30125       0   30127   30128   30128       0   30130   30131   30131       0
   30133   30134   30134       0   30136   30137   30137       0   30139   30140
   30140       0   30142   30143   30143       0   30145   30146   30146       0
   30148   30149   30149       0   30151   30152   30152       0   30154   30155
   30155       0   30157   30158   30158       0   30160   30161   30161       0
   30163   30164   30164       0   30166   30167   30167       0   30169   30170
   30170       0   30172   30173   30173       0   30175   30176   30176       0
   30178   30179   30179       0   30181   30182   30182       0   30184   30185
   30185       0   30187   30188   30188       0   30190   30191   30191       0
   30193   30194   30194       0   30196   30197   30197       0   30199   30200
   30200       0   30202   30203   30203       0   30205   30206   30206       0
   30208   30209   30209       0   30211   30212   30212       0   30214   30215
   30215       0   30217   30218   30218       0   30220   30221   30221       0
   30223   30224   30224       0   30226   30227   30227       0   30229   30230
   30230       0   30232   30233   30233       0   30235   30236   30236       0
   30238   30239   30239       0   30241   30242   30242       0   30244   30245
   30245       0   30247   30248   30248       0   30250   30251   30251       0
   30253   30254   30254       0   30256   30257   30257       0   30259   30260
   30260       0   30262   30263   30263       0   30265   30266   30266       0
   30268   30269   30269       0   30271   30272   30272       0   30274   30275
   30275       0   30277   30278   30278       0   30280   30281   30281       0
   30283   30284   30284       0   30286   30287   30287       0   30289   30290
   30290       0   30292   30293   30293       0   30295   30296   30296       0
   30298   30299   30299       0   30301   30302   30302       0   30304   30305
   30305       0   30307   30308   30308       0   30310   30311   30311       0
   30313   30314   30314       0   30316   30317   30317       0   30319   30320
   30320       0   30322   30323   30323       0   30325   30326   30326       0
   30328   30329   30329       0   30331   30332   30332       0   30334   30335
   30335       0   30337   30338   30338       0   30340   30341   30341       0
   30343   30344   30344       0   30346   30347   30347       0   30349   30350
   30350       0   30352   30353   30353       0   30355   30356   30356       0
   30358   30359   30359       0   30361   30362   30362       0   30364   30365
   30365       0   30367   30368   30368       0   30370   30371   30371       0
   30373   30374   30374       0   30376   30377   30377       0   30379   30380
   30380       0   30382   30383   30383       0   30385   30386   30386       0
   30388   30389   30389       0   30391   30392   30392       0   30394   30395
   30395       0   30397   30398   30398       0   30400   30401   30401       0
   30403   30404   30404       0   30406   30407   30407       0   30409   30410
   30410       0   30412   30413   30413       0   30415   30416   30416       0
   30418   30419   30419       0   30421   30422   30422       0   30424   30425
   30425       0   30427   30428   30428       0   30430   30431   30431       0
   30433   30434   30434       0   30436   30437   30437       0   30439   30440
   30440       0   30442   30443   30443       0   30445   30446   30446       0
   30448   30449   30449       0   30451   30452   30452       0   30454   30455
   30455       0   30457   30458   30458       0   30460   30461   30461       0
   30463   30464   30464       0   30466   30467   30467       0   30469   30470
   30470       0   30472   30473   30473       0   30475   30476   30476       0
   30478   30479   30479       0   30481   30482   30482       0   30484   30485
   30485       0   30487   30488   30488       0   30490   30491   30491       0
   30493   30494   30494       0   30496   30497   30497       0   30499   30500
   30500       0   30502   30503   30503       0   30505   30506   30506       0
   30508   30509   30509       0   30511   30512   30512       0   30514   30515
   30515       0   30517   30518   30518       0   30520   30521   30521       0
   30523   30524   30524       0   30526   30527   30527       0   30529   30530
   30530       0   30532   30533   30533       0   30535   30536   30536       0
   30538   30539   30539       0   30541   30542   30542       0   30544   30545
   30545       0   30547   30548   30548       0   30550   30551   30551       0
   30553   30554   30554       0   30556   30557   30557       0   30559   30560
   30560       0   30562   30563   30563       0   30565   30566   30566       0
   30568   30569   30569       0   30571   30572   30572       0   30574   30575
   30575       0   30577   30578   30578       0   30580   30581   30581       0
   30583   30584   30584       0   30586   30587   30587       0   30589   30590
   30590       0   30592   30593   30593       0   30595   30596   30596       0
   30598   30599   30599       0   30601   30602   30602       0   30604   30605
   30605       0   30607   30608   30608       0   30610   30611   30611       0
   30613   30614   30614       0   30616   30617   30617       0   30619   30620
   30620       0   30622   30623   30623       0   30625   30626   30626       0
   30628   30629   30629       0   30631   30632   30632       0   30634   30635
   30635       0   30637   30638   30638       0   30640   30641   30641       0
   30643   30644   30644       0   30646   30647   30647       0   30649   30650
   30650       0   30652   30653   30653       0   30655   30656   30656       0
   30658   30659   30659       0   30661   30662   30662       0   30664   30665
   30665       0   30667   30668   30668       0   30670   30671   30671       0
   30673   30674   30674       0   30676   30677   30677       0   30679   30680
   30680       0
%FLAG HBOND_ACOEF
%FORMAT(5E16.8)

%FLAG HBOND_BCOEF
%FORMAT(5E16.8)

%FLAG HBCUT
%FORMAT(5E16.8)

%FLAG AMBER_ATOM_TYPE
%FORMAT(20a4)
N3  H   H   H   CX  HP  HP  C   O   N   H   CX  H1  CT  HC  CT  HC  HC  HC  CT  
HC  HC  CT  HC  HC  HC  C   O   N   H   CX  H1  CT  HC  CT  HC  HC  HC  CT  HC  
HC  HC  C   O   N   H   CX  H1  CT  HC  HC  CT  HC  HC  C   OH  OH  HO  C   O   
HO  HO  HO  N   H   CX  H1  CT  HC  HC  CT  HC  HC  C   O   N   H   H   C   O   
N   H   CX  H1  CT  H1  H1  S   C   O   N   H   CX  H1  CT  H1  H1  S   C   O   
N   H   CX  H1  CT  H1  CT  HC  HC  HC  OH  HO  C   O   N   H   CX  H1  CT  H1  
H1  OH  HO  C   O   N   H   CX  H1  CT  HC  CT  HC  HC  HC  CT  HC  HC  CT  HC  
HC  HC  C   O   N   H   CX  H1  CT  H1  H1  S   C   O   N   H   CX  H1  CT  H1  
H1  OH  HO  C   O   N   H   CX  H1  CT  HC  HC  CT  HC  CT  HC  HC  HC  CT  HC  
HC  HC  C   O   N   H   CX  H1  CT  HC  HC  CA  CA  HA  CA  HA  C   OH  HO  CA  
HA  CA  HA  C   O   N   H   CX  H1  CT  HC  HC  CT  HC  HC  C   O   N   H   H   
C   O   N   H   CX  H1  CT  HC  HC  CT  HC  CT  HC  HC  HC  CT  HC  HC  HC  C   
O   N   H   CX  H1  CT  HC  HC  CT  HC  HC  C   OH  OH  HO  C   O   HO  HO  HO  
N   H   CX  H1  CT  HC  HC  C   O   N   H   H   C   O   N   H   CX  H1  CT  HC  
HC  CA  CA  HA  CA  HA  C   OH  HO  CA  HA  CA  HA  C   O   N   H   CX  H1  CT  
H1  H1  S   C   O   N   H   CX  H1  CT  HC  HC  C   O   N   H   H   C   O2  O2  
N3  H   H   H   CX  HP  CT  HC  HC  CA  CA  HA  CA  HA  CA  HA  CA  HA  CA  HA  
C   O   N   H   CX  H1  CT  HC  CT  HC  HC  HC  CT  HC  HC  HC  C   O   N   H   
CX  H1  CT  HC  HC  C   O   N   H   H   C   O   N   H   CX  H1  CT  HC  HC  CT  
HC  HC  C   O   N   H   H   C   O   N   H   CX  H1  CT  HC  HC  CC  NA  H   CR  
H5  NA  H   CW  H4  C   O   N   H   CX  H1  CT  HC  HC  CT  HC  CT  HC  HC  HC  
CT  HC  HC  HC  C   O   N   H   CX  H1  CT  H1  H1  S   C   O   N   H   CX  H1  
H1  C   O   N   H   CX  H1  CT  H1  H1  OH  HO  C   O   N   H   CX  H1  CT  HC  
HC  CC  NA  H   CR  H5  NA  H   CW  H4  C   O   N   H   CX  H1  CT  HC  HC  CT  
HC  CT  HC  HC  HC  CT  HC  HC  HC  C   O   N   H   CX  H1  CT  HC  CT  HC  HC  
HC  CT  HC  HC  HC  C   O   N   H   CX  H1  CT  HC  HC  CT  HC  HC  C   OH  OH  
HO  C   O   HO  HO  HO  N   H   CX  H1  CT  HC  HC  HC  C   O   N   H   CX  H1  
CT  HC  HC  CT  HC  CT  HC  HC  HC  CT  HC  HC  HC  C   O   N   H   CX  H1  CT  
HC  HC  CA  CA  HA  CA  HA  C   OH  HO  CA  HA  CA  HA  C   O   N   H   CX  H1  
CT  HC  HC  CT  HC  CT  HC  HC  HC  CT  HC  HC  HC  C   O   N   H   CX  H1  CT  
HC  CT  HC  HC  HC  CT  HC  HC  HC  C   O   N   H   CX  H1  CT  H1  H1  S   C   
O   N   H   CX  H1  H1  C   O   N   H   CX  H1  CT  HC  HC  CT  HC  HC  C   OH  
OH  HO  C   O   HO  HO  HO  N   H   CX  H1  CT  HC  HC  CT  HC  HC  CT  H1  H1  
N2  H   CA  N2  H   H   N2  H   H   C   O   N   H   CX  H1  H1  C   O   N   H   
CX  H1  CT  HC  HC  CA  CA  HA  CA  HA  CA  HA  CA  HA  CA  HA  C   O   N   H   
CX  H1  CT  HC  HC  CA  CA  HA  CA  HA  CA  HA  CA  HA  CA  HA  C   O   N   H   
CX  H1  CT  HC  HC  CA  CA  HA  CA  HA  C   OH  HO  CA  HA  CA  HA  C   O   N   
H   CX  H1  CT  H1  CT  HC  HC  HC  OH  HO  C   O   N   CT  H1  H1  CT  HC  HC  
CT  HC  HC  CX  H1  C   O   N   H   CX  H1  CT  HC  HC  CT  HC  HC  CT  HC  HC  
CT  HP  HP  N3  H   H   H   C   O   N   H   CX  H1  CT  HC  HC  HC  C   O2  O2  
OW  HW  HW  OW  HW  HW  OW  HW  HW  OW  HW  HW  OW  HW  HW  OW  HW  HW  OW  HW  
HW  OW  HW  HW  OW  HW  HW  OW  HW  HW  OW  HW  HW  OW  HW  HW  OW  HW  HW  OW  
HW  HW  OW  HW  HW  OW  HW  HW  OW  HW  HW  OW  HW  HW  OW  HW  HW  OW  HW  HW  
OW  HW  HW  OW  HW  HW  OW  HW  HW  OW  HW  HW  OW  HW  HW  OW  HW  HW  OW  HW  
HW  OW  HW  HW  OW  HW  HW  OW  HW  HW  OW  HW  HW  OW  HW  HW  OW  HW  HW  OW  
HW  HW  OW  HW  HW  OW  HW  HW  OW  HW  HW  OW  HW  HW  OW  HW  HW  OW  HW  HW  
OW  HW  HW  OW  HW  HW  OW  HW  HW  OW  HW  HW  OW  HW  HW  OW  HW  HW  OW  HW  
HW  OW  HW  HW  OW  HW  HW  OW  HW  HW  OW  HW  HW  OW  HW  HW  OW  HW  HW  OW  
HW  HW  OW  HW  HW  OW  HW  HW  OW  HW  HW  OW  HW  HW  OW  HW  HW  OW  HW  HW  
OW  HW  HW  OW  HW  HW  OW  HW  HW  OW  HW  HW  OW  HW  HW  OW  HW  HW  OW  HW  
HW  OW  HW  HW  OW  HW  HW  OW  HW  HW  OW  HW  HW  OW  HW  HW  OW  HW  HW  OW  
HW  HW  OW  HW  HW  OW  HW  HW  OW  HW  HW  OW  HW  HW  OW  HW  HW  OW  HW  HW  
OW  HW  HW  OW  HW  HW  OW  HW  HW  OW  HW  HW  OW  HW  HW  OW  HW  HW  OW  HW  
HW  OW  HW  HW  OW  HW  HW  OW  HW  HW  OW  HW  HW  OW  HW  HW  OW  HW  HW  OW  
HW  HW  OW  HW  HW  OW  HW  HW  OW  HW  HW  OW  HW  HW  OW  HW  HW  OW  HW  HW  
OW  HW  HW  OW  HW  HW  OW  HW  HW  OW  HW  HW  OW  HW  HW  OW  HW  HW  OW  HW  
HW  OW  HW  HW  OW  HW  HW  OW  HW  HW  OW  HW  HW  OW  HW  HW  OW  HW  HW  OW  
HW  HW  OW  HW  HW  OW  HW  HW  OW  HW  HW  OW  HW  HW  OW  HW  HW  OW  HW  HW  
OW  HW  HW  OW  HW  HW  OW  HW  HW  OW  HW  HW  OW  HW  HW  OW  HW  HW  OW  HW  
HW  OW  HW  HW  OW  HW  HW  OW  HW  HW  OW  HW  HW  OW  HW  HW  OW  HW  HW  OW  
HW  HW  OW  HW  HW  OW  HW  HW  OW  HW  HW  OW  HW  HW  OW  HW  HW  OW  HW  HW  
OW  HW  HW  OW  HW  HW  OW  HW  HW  OW  HW  HW  OW  HW  HW  OW  HW  HW  OW  HW  
HW  OW  HW  HW  OW  HW  HW  OW  HW  HW  OW  HW  HW  OW  HW  HW  OW  HW  HW  OW  
HW  HW  OW  HW  HW  OW  HW  HW  OW  HW  HW  OW  HW  HW  OW  HW  HW  OW  HW  HW  
OW  HW  HW  OW  HW  HW  OW  HW  HW  OW  HW  HW  OW  HW  HW  OW  HW  HW  OW  HW  
HW  OW  HW  HW  OW  HW  HW  OW  HW  HW  OW  HW  HW  OW  HW  HW  OW  HW  HW  OW  
HW  HW  OW  HW  HW  OW  HW  HW  OW  HW  HW  OW  HW  HW  OW  HW  HW  OW  HW  HW  
OW  HW  HW  OW  HW  HW  OW  HW  HW  OW  HW  HW  OW  HW  HW  OW  HW  HW  OW  HW  
HW  OW  HW  HW  OW  HW  HW  OW  HW  HW  OW  HW  HW  OW  HW  HW  OW  HW  HW  OW  
HW  HW  OW  HW  HW  OW  HW  HW  OW  HW  HW  OW  HW  HW  OW  HW  HW  OW  HW  HW  
OW  HW  HW  OW  HW  HW  OW  HW  HW  OW  HW  HW  OW  HW  HW  OW  HW  HW  OW  HW  
HW  OW  HW  HW  OW  HW  HW  OW  HW  HW  OW  HW  HW  OW  HW  HW  OW  HW  HW  OW  
HW  HW  OW  HW  HW  OW  HW  HW  OW  HW  HW  OW  HW  HW  OW  HW  HW  OW  HW  HW  
OW  HW  HW  OW  HW  HW  OW  HW  HW  OW  HW  HW  OW  HW  HW  OW  HW  HW  OW  HW  
HW  OW  HW  HW  OW  HW  HW  OW  HW  HW  OW  HW  HW  OW  HW  HW  OW  HW  HW  OW  
HW  HW  OW  HW  HW  OW  HW  HW  OW  HW  HW  OW  HW  HW  OW  HW  HW  OW  HW  HW  
OW  HW  HW  OW  HW  HW  OW  HW  HW  OW  HW  HW  OW  HW  HW  OW  HW  HW  OW  HW  
HW  OW  HW  HW  OW  HW  HW  OW  HW  HW  OW  HW  HW  OW  HW  HW  OW  HW  HW  OW  
HW  HW  OW  HW  HW  OW  HW  HW  OW  HW  HW  OW  HW  HW  OW  HW  HW  OW  HW  HW  
OW  HW  HW  OW  HW  HW  OW  HW  HW  OW  HW  HW  OW  HW  HW  OW  HW  HW  OW  HW  
HW  OW  HW  HW  OW  HW  HW  OW  HW  HW  OW  HW  HW  OW  HW  HW  OW  HW  HW  OW  
HW  HW  OW  HW  HW  OW  HW  HW  OW  HW  HW  OW  HW  HW  OW  HW  HW  OW  HW  HW  
OW  HW  HW  OW  HW  HW  OW  HW  HW  OW  HW  HW  OW  HW  HW  OW  HW  HW  OW  HW  
HW  OW  HW  HW  OW  HW  HW  OW  HW  HW  OW  HW  HW  OW  HW  HW  OW  HW  HW  OW  
HW  HW  OW  HW  HW  OW  HW  HW  OW  HW  HW  OW  HW  HW  OW  HW  HW  OW  HW  HW  
OW  HW  HW  OW  HW  HW  OW  HW  HW  OW  HW  HW  OW  HW  HW  OW  HW  HW  OW  HW  
HW  OW  HW  HW  OW  HW  HW  OW  HW  HW  OW  HW  HW  OW  HW  HW  OW  HW  HW  OW  
HW  HW  OW  HW  HW  OW  HW  HW  OW  HW  HW  OW  HW  HW  OW  HW  HW  OW  HW  HW  
OW  HW  HW  OW  HW  HW  OW  HW  HW  OW  HW  HW  OW  HW  HW  OW  HW  HW  OW  HW  
HW  OW  HW  HW  OW  HW  HW  OW  HW  HW  OW  HW  HW  OW  HW  HW  OW  HW  HW  OW  
HW  HW  OW  HW  HW  OW  HW  HW  OW  HW  HW  OW  HW  HW  OW  HW  HW  OW  HW  HW  
OW  HW  HW  OW  HW  HW  OW  HW  HW  OW  HW  HW  OW  HW  HW  OW  HW  HW  OW  HW  
HW  OW  HW  HW  OW  HW  HW  OW  HW  HW  OW  HW  HW  OW  HW  HW  OW  HW  HW  OW  
HW  HW  OW  HW  HW  OW  HW  HW  OW  HW  HW  OW  HW  HW  OW  HW  HW  OW  HW  HW  
OW  HW  HW  OW  HW  HW  OW  HW  HW  OW  HW  HW  OW  HW  HW  OW  HW  HW  OW  HW  
HW  OW  HW  HW  OW  HW  HW  OW  HW  HW  OW  HW  HW  OW  HW  HW  OW  HW  HW  OW  
HW  HW  OW  HW  HW  OW  HW  HW  OW  HW  HW  OW  HW  HW  OW  HW  HW  OW  HW  HW  
OW  HW  HW  OW  HW  HW  OW  HW  HW  OW  HW  HW  OW  HW  HW  OW  HW  HW  OW  HW  
HW  OW  HW  HW  OW  HW  HW  OW  HW  HW  OW  HW  HW  OW  HW  HW  OW  HW  HW  OW  
HW  HW  OW  HW  HW  OW  HW  HW  OW  HW  HW  OW  HW  HW  OW  HW  HW  OW  HW  HW  
OW  HW  HW  OW  HW  HW  OW  HW  HW  OW  HW  HW  OW  HW  HW  OW  HW  HW  OW  HW  
HW  OW  HW  HW  OW  HW  HW  OW  HW  HW  OW  HW  HW  OW  HW  HW  OW  HW  HW  OW  
HW  HW  OW  HW  HW  OW  HW  HW  OW  HW  HW  OW  HW  HW  OW  HW  HW  OW  HW  HW  
OW  HW  HW  OW  HW  HW  OW  HW  HW  OW  HW  HW  OW  HW  HW  OW  HW  HW  OW  HW  
HW  OW  HW  HW  OW  HW  HW  OW  HW  HW  OW  HW  HW  OW  HW  HW  OW  HW  HW  OW  
HW  HW  OW  HW  HW  OW  HW  HW  OW  HW  HW  OW  HW  HW  OW  HW  HW  OW  HW  HW  
OW  HW  HW  OW  HW  HW  OW  HW  HW  OW  HW  HW  OW  HW  HW  OW  HW  HW  OW  HW  
HW  OW  HW  HW  OW  HW  HW  OW  HW  HW  OW  HW  HW  OW  HW  HW  OW  HW  HW  OW  
HW  HW  OW  HW  HW  OW  HW  HW  OW  HW  HW  OW  HW  HW  OW  HW  HW  OW  HW  HW  
OW  HW  HW  OW  HW  HW  OW  HW  HW  OW  HW  HW  OW  HW  HW  OW  HW  HW  OW  HW  
HW  OW  HW  HW  OW  HW  HW  OW  HW  HW  OW  HW  HW  OW  HW  HW  OW  HW  HW  OW  
HW  HW  OW  HW  HW  OW  HW  HW  OW  HW  HW  OW  HW  HW  OW  HW  HW  OW  HW  HW  
OW  HW  HW  OW  HW  HW  OW  HW  HW  OW  HW  HW  OW  HW  HW  OW  HW  HW  OW  HW  
HW  OW  HW  HW  OW  HW  HW  OW  HW  HW  OW  HW  HW  OW  HW  HW  OW  HW  HW  OW  
HW  HW  OW  HW  HW  OW  HW  HW  OW  HW  HW  OW  HW  HW  OW  HW  HW  OW  HW  HW  
OW  HW  HW  OW  HW  HW  OW  HW  HW  OW  HW  HW  OW  HW  HW  OW  HW  HW  OW  HW  
HW  OW  HW  HW  OW  HW  HW  OW  HW  HW  OW  HW  HW  OW  HW  HW  OW  HW  HW  OW  
HW  HW  OW  HW  HW  OW  HW  HW  OW  HW  HW  OW  HW  HW  OW  HW  HW  OW  HW  HW  
OW  HW  HW  OW  HW  HW  OW  HW  HW  OW  HW  HW  OW  HW  HW  OW  HW  HW  OW  HW  
HW  OW  HW  HW  OW  HW  HW  OW  HW  HW  OW  HW  HW  OW  HW  HW  OW  HW  HW  OW  
HW  HW  OW  HW  HW  OW  HW  HW  OW  HW  HW  OW  HW  HW  OW  HW  HW  OW  HW  HW  
OW  HW  HW  OW  HW  HW  OW  HW  HW  OW  HW  HW  OW  HW  HW  OW  HW  HW  OW  HW  
HW  OW  HW  HW  OW  HW  HW  OW  HW  HW  OW  HW  HW  OW  HW  HW  OW  HW  HW  OW  
HW  HW  OW  HW  HW  OW  HW  HW  OW  HW  HW  OW  HW  HW  OW  HW  HW  OW  HW  HW  
OW  HW  HW  OW  HW  HW  OW  HW  HW  OW  HW  HW  OW  HW  HW  OW  HW  HW  OW  HW  
HW  OW  HW  HW  OW  HW  HW  OW  HW  HW  OW  HW  HW  OW  HW  HW  OW  HW  HW  OW  
HW  HW  OW  HW  HW  OW  HW  HW  OW  HW  HW  OW  HW  HW  OW  HW  HW  OW  HW  HW  
OW  HW  HW  OW  HW  HW  OW  HW  HW  OW  HW  HW  OW  HW  HW  OW  HW  HW  OW  HW  
HW  OW  HW  HW  OW  HW  HW  OW  HW  HW  OW  HW  HW  OW  HW  HW  OW  HW  HW  OW  
HW  HW  OW  HW  HW  OW  HW  HW  OW  HW  HW  OW  HW  HW  OW  HW  HW  OW  HW  HW  
OW  HW  HW  OW  HW  HW  OW  HW  HW  OW  HW  HW  OW  HW  HW  OW  HW  HW  OW  HW  
HW  OW  HW  HW  OW  HW  HW  OW  HW  HW  OW  HW  HW  OW  HW  HW  OW  HW  HW  OW  
HW  HW  OW  HW  HW  OW  HW  HW  OW  HW  HW  OW  HW  HW  OW  HW  HW  OW  HW  HW  
OW  HW  HW  OW  HW  HW  OW  HW  HW  OW  HW  HW  OW  HW  HW  OW  HW  HW  OW  HW  
HW  OW  HW  HW  OW  HW  HW  OW  HW  HW  OW  HW  HW  OW  HW  HW  OW  HW  HW  OW  
HW  HW  OW  HW  HW  OW  HW  HW  OW  HW  HW  OW  HW  HW  OW  HW  HW  OW  HW  HW  
OW  HW  HW  OW  HW  HW  OW  HW  HW  OW  HW  HW  OW  HW  HW  OW  HW  HW  OW  HW  
HW  OW  HW  HW  OW  HW  HW  OW  HW  HW  OW  HW  HW  OW  HW  HW  OW  HW  HW  OW  
HW  HW  OW  HW  HW  OW  HW  HW  OW  HW  HW  OW  HW  HW  OW  HW  HW  OW  HW  HW  
OW  HW  HW  OW  HW  HW  OW  HW  HW  OW  HW  HW  OW  HW  HW  OW  HW  HW  OW  HW  
HW  OW  HW  HW  OW  HW  HW  OW  HW  HW  OW  HW  HW  OW  HW  HW  OW  HW  HW  OW  
HW  HW  OW  HW  HW  OW  HW  HW  OW  HW  HW  OW  HW  HW  OW  HW  HW  OW  HW  HW  
OW  HW  HW  OW  HW  HW  OW  HW  HW  OW  HW  HW  OW  HW  HW  OW  HW  HW  OW  HW  
HW  OW  HW  HW  OW  HW  HW  OW  HW  HW  OW  HW  HW  OW  HW  HW  OW  HW  HW  OW  
HW  HW  OW  HW  HW  OW  HW  HW  OW  HW  HW  OW  HW  HW  OW  HW  HW  OW  HW  HW  
OW  HW  HW  OW  HW  HW  OW  HW  HW  OW  HW  HW  OW  HW  HW  OW  HW  HW  OW  HW  
HW  OW  HW  HW  OW  HW  HW  OW  HW  HW  OW  HW  HW  OW  HW  HW  OW  HW  HW  OW  
HW  HW  OW  HW  HW  OW  HW  HW  OW  HW  HW  OW  HW  HW  OW  HW  HW  OW  HW  HW  
OW  HW  HW  OW  HW  HW  OW  HW  HW  OW  HW  HW  OW  HW  HW  OW  HW  HW  OW  HW  
HW  OW  HW  HW  OW  HW  HW  OW  HW  HW  OW  HW  HW  OW  HW  HW  OW  HW  HW  OW  
HW  HW  OW  HW  HW  OW  HW  HW  OW  HW  HW  OW  HW  HW  OW  HW  HW  OW  HW  HW  
OW  HW  HW  OW  HW  HW  OW  HW  HW  OW  HW  HW  OW  HW  HW  OW  HW  HW  OW  HW  
HW  OW  HW  HW  OW  HW  HW  OW  HW  HW  OW  HW  HW  OW  HW  HW  OW  HW  HW  OW  
HW  HW  OW  HW  HW  OW  HW  HW  OW  HW  HW  OW  HW  HW  OW  HW  HW  OW  HW  HW  
OW  HW  HW  OW  HW  HW  OW  HW  HW  OW  HW  HW  OW  HW  HW  OW  HW  HW  OW  HW  
HW  OW  HW  HW  OW  HW  HW  OW  HW  HW  OW  HW  HW  OW  HW  HW  OW  HW  HW  OW  
HW  HW  OW  HW  HW  OW  HW  HW  OW  HW  HW  OW  HW  HW  OW  HW  HW  OW  HW  HW  
OW  HW  HW  OW  HW  HW  OW  HW  HW  OW  HW  HW  OW  HW  HW  OW  HW  HW  OW  HW  
HW  OW  HW  HW  OW  HW  HW  OW  HW  HW  OW  HW  HW  OW  HW  HW  OW  HW  HW  OW  
HW  HW  OW  HW  HW  OW  HW  HW  OW  HW  HW  OW  HW  HW  OW  HW  HW  OW  HW  HW  
OW  HW  HW  OW  HW  HW  OW  HW  HW  OW  HW  HW  OW  HW  HW  OW  HW  HW  OW  HW  
HW  OW  HW  HW  OW  HW  HW  OW  HW  HW  OW  HW  HW  OW  HW  HW  OW  HW  HW  OW  
HW  HW  OW  HW  HW  OW  HW  HW  OW  HW  HW  OW  HW  HW  OW  HW  HW  OW  HW  HW  
OW  HW  HW  OW  HW  HW  OW  HW  HW  OW  HW  HW  OW  HW  HW  OW  HW  HW  OW  HW  
HW  OW  HW  HW  OW  HW  HW  OW  HW  HW  OW  HW  HW  OW  HW  HW  OW  HW  HW  OW  
HW  HW  OW  HW  HW  OW  HW  HW  OW  HW  HW  OW  HW  HW  OW  HW  HW  OW  HW  HW  
OW  HW  HW  OW  HW  HW  OW  HW  HW  OW  HW  HW  OW  HW  HW  OW  HW  HW  OW  HW  
HW  OW  HW  HW  OW  HW  HW  OW  HW  HW  OW  HW  HW  OW  HW  HW  OW  HW  HW  OW  
HW  HW  OW  HW  HW  OW  HW  HW  OW  HW  HW  OW  HW  HW  OW  HW  HW  OW  HW  HW  
OW  HW  HW  OW  HW  HW  OW  HW  HW  OW  HW  HW  OW  HW  HW  OW  HW  HW  OW  HW  
HW  OW  HW  HW  OW  HW  HW  OW  HW  HW  OW  HW  HW  OW  HW  HW  OW  HW  HW  OW  
HW  HW  OW  HW  HW  OW  HW  HW  OW  HW  HW  OW  HW  HW  OW  HW  HW  OW  HW  HW  
OW  HW  HW  OW  HW  HW  OW  HW  HW  OW  HW  HW  OW  HW  HW  OW  HW  HW  OW  HW  
HW  OW  HW  HW  OW  HW  HW  OW  HW  HW  OW  HW  HW  OW  HW  HW  OW  HW  HW  OW  
HW  HW  OW  HW  HW  OW  HW  HW  OW  HW  HW  OW  HW  HW  OW  HW  HW  OW  HW  HW  
OW  HW  HW  OW  HW  HW  OW  HW  HW  OW  HW  HW  OW  HW  HW  OW  HW  HW  OW  HW  
HW  OW  HW  HW  OW  HW  HW  OW  HW  HW  OW  HW  HW  OW  HW  HW  OW  HW  HW  OW  
HW  HW  OW  HW  HW  OW  HW  HW  OW  HW  HW  OW  HW  HW  OW  HW  HW  OW  HW  HW  
OW  HW  HW  OW  HW  HW  OW  HW  HW  OW  HW  HW  OW  HW  HW  OW  HW  HW  OW  HW  
HW  OW  HW  HW  OW  HW  HW  OW  HW  HW  OW  HW  HW  OW  HW  HW  OW  HW  HW  OW  
HW  HW  OW  HW  HW  OW  HW  HW  OW  HW  HW  OW  HW  HW  OW  HW  HW  OW  HW  HW  
OW  HW  HW  OW  HW  HW  OW  HW  HW  OW  HW  HW  OW  HW  HW  OW  HW  HW  OW  HW  
HW  OW  HW  HW  OW  HW  HW  OW  HW  HW  OW  HW  HW  OW  HW  HW  OW  HW  HW  OW  
HW  HW  OW  HW  HW  OW  HW  HW  OW  HW  HW  OW  HW  HW  OW  HW  HW  OW  HW  HW  
OW  HW  HW  OW  HW  HW  OW  HW  HW  OW  HW  HW  OW  HW  HW  OW  HW  HW  OW  HW  
HW  OW  HW  HW  OW  HW  HW  OW  HW  HW  OW  HW  HW  OW  HW  HW  OW  HW  HW  OW  
HW  HW  OW  HW  HW  OW  HW  HW  OW  HW  HW  OW  HW  HW  OW  HW  HW  OW  HW  HW  
OW  HW  HW  OW  HW  HW  OW  HW  HW  OW  HW  HW  OW  HW  HW  OW  HW  HW  OW  HW  
HW  OW  HW  HW  OW  HW  HW  OW  HW  HW  OW  HW  HW  OW  HW  HW  OW  HW  HW  OW  
HW  HW  OW  HW  HW  OW  HW  HW  OW  HW  HW  OW  HW  HW  OW  HW  HW  OW  HW  HW  
OW  HW  HW  OW  HW  HW  OW  HW  HW  OW  HW  HW  OW  HW  HW  OW  HW  HW  OW  HW  
HW  OW  HW  HW  OW  HW  HW  OW  HW  HW  OW  HW  HW  OW  HW  HW  OW  HW  HW  OW  
HW  HW  OW  HW  HW  OW  HW  HW  OW  HW  HW  OW  HW  HW  OW  HW  HW  OW  HW  HW  
OW  HW  HW  OW  HW  HW  OW  HW  HW  OW  HW  HW  OW  HW  HW  OW  HW  HW  OW  HW  
HW  OW  HW  HW  OW  HW  HW  OW  HW  HW  OW  HW  HW  OW  HW  HW  OW  HW  HW  OW  
HW  HW  OW  HW  HW  OW  HW  HW  OW  HW  HW  OW  HW  HW  OW  HW  HW  OW  HW  HW  
OW  HW  HW  OW  HW  HW  OW  HW  HW  OW  HW  HW  OW  HW  HW  OW  HW  HW  OW  HW  
HW  OW  HW  HW  OW  HW  HW  OW  HW  HW  OW  HW  HW  OW  HW  HW  OW  HW  HW  OW  
HW  HW  OW  HW  HW  OW  HW  HW  OW  HW  HW  OW  HW  HW  OW  HW  HW  OW  HW  HW  
OW  HW  HW  OW  HW  HW  OW  HW  HW  OW  HW  HW  OW  HW  HW  OW  HW  HW  OW  HW  
HW  OW  HW  HW  OW  HW  HW  OW  HW  HW  OW  HW  HW  OW  HW  HW  OW  HW  HW  OW  
HW  HW  OW  HW  HW  OW  HW  HW  OW  HW  HW  OW  HW  HW  OW  HW  HW  OW  HW  HW  
OW  HW  HW  OW  HW  HW  OW  HW  HW  OW  HW  HW  OW  HW  HW  OW  HW  HW  OW  HW  
HW  OW  HW  HW  OW  HW  HW  OW  HW  HW  OW  HW  HW  OW  HW  HW  OW  HW  HW  OW  
HW  HW  OW  HW  HW  OW  HW  HW  OW  HW  HW  OW  HW  HW  OW  HW  HW  OW  HW  HW  
OW  HW  HW  OW  HW  HW  OW  HW  HW  OW  HW  HW  OW  HW  HW  OW  HW  HW  OW  HW  
HW  OW  HW  HW  OW  HW  HW  OW  HW  HW  OW  HW  HW  OW  HW  HW  OW  HW  HW  OW  
HW  HW  OW  HW  HW  OW  HW  HW  OW  HW  HW  OW  HW  HW  OW  HW  HW  OW  HW  HW  
OW  HW  HW  OW  HW  HW  OW  HW  HW  OW  HW  HW  OW  HW  HW  OW  HW  HW  OW  HW  
HW  OW  HW  HW  OW  HW  HW  OW  HW  HW  OW  HW  HW  OW  HW  HW  OW  HW  HW  OW  
HW  HW  OW  HW  HW  OW  HW  HW  OW  HW  HW  OW  HW  HW  OW  HW  HW  OW  HW  HW  
OW  HW  HW  OW  HW  HW  OW  HW  HW  OW  HW  HW  OW  HW  HW  OW  HW  HW  OW  HW  
HW  OW  HW  HW  OW  HW  HW  OW  HW  HW  OW  HW  HW  OW  HW  HW  OW  HW  HW  OW  
HW  HW  OW  HW  HW  OW  HW  HW  OW  HW  HW  OW  HW  HW  OW  HW  HW  OW  HW  HW  
OW  HW  HW  OW  HW  HW  OW  HW  HW  OW  HW  HW  OW  HW  HW  OW  HW  HW  OW  HW  
HW  OW  HW  HW  OW  HW  HW  OW  HW  HW  OW  HW  HW  OW  HW  HW  OW  HW  HW  OW  
HW  HW  OW  HW  HW  OW  HW  HW  OW  HW  HW  OW  HW  HW  OW  HW  HW  OW  HW  HW  
OW  HW  HW  OW  HW  HW  OW  HW  HW  OW  HW  HW  OW  HW  HW  OW  HW  HW  OW  HW  
HW  OW  HW  HW  OW  HW  HW  OW  HW  HW  OW  HW  HW  OW  HW  HW  OW  HW  HW  OW  
HW  HW  OW  HW  HW  OW  HW  HW  OW  HW  HW  OW  HW  HW  OW  HW  HW  OW  HW  HW  
OW  HW  HW  OW  HW  HW  OW  HW  HW  OW  HW  HW  OW  HW  HW  OW  HW  HW  OW  HW  
HW  OW  HW  HW  OW  HW  HW  OW  HW  HW  OW  HW  HW  OW  HW  HW  OW  HW  HW  OW  
HW  HW  OW  HW  HW  OW  HW  HW  OW  HW  HW  OW  HW  HW  OW  HW  HW  OW  HW  HW  
OW  HW  HW  OW  HW  HW  OW  HW  HW  OW  HW  HW  OW  HW  HW  OW  HW  HW  OW  HW  
HW  OW  HW  HW  OW  HW  HW  OW  HW  HW  OW  HW  HW  OW  HW  HW  OW  HW  HW  OW  
HW  HW  OW  HW  HW  OW  HW  HW  OW  HW  HW  OW  HW  HW  OW  HW  HW  OW  HW  HW  
OW  HW  HW  OW  HW  HW  OW  HW  HW  OW  HW  HW  OW  HW  HW  OW  HW  HW  OW  HW  
HW  OW  HW  HW  OW  HW  HW  OW  HW  HW  OW  HW  HW  OW  HW  HW  OW  HW  HW  OW  
HW  HW  OW  HW  HW  OW  HW  HW  OW  HW  HW  OW  HW  HW  OW  HW  HW  OW  HW  HW  
OW  HW  HW  OW  HW  HW  OW  HW  HW  OW  HW  HW  OW  HW  HW  OW  HW  HW  OW  HW  
HW  OW  HW  HW  OW  HW  HW  OW  HW  HW  OW  HW  HW  OW  HW  HW  OW  HW  HW  OW  
HW  HW  OW  HW  HW  OW  HW  HW  OW  HW  HW  OW  HW  HW  OW  HW  HW  OW  HW  HW  
OW  HW  HW  OW  HW  HW  OW  HW  HW  OW  HW  HW  OW  HW  HW  OW  HW  HW  OW  HW  
HW  OW  HW  HW  OW  HW  HW  OW  HW  HW  OW  HW  HW  OW  HW  HW  OW  HW  HW  OW  
HW  HW  OW  HW  HW  OW  HW  HW  OW  HW  HW  OW  HW  HW  OW  HW  HW  OW  HW  HW  
OW  HW  HW  OW  HW  HW  OW  HW  HW  OW  HW  HW  OW  HW  HW  OW  HW  HW  OW  HW  
HW  OW  HW  HW  OW  HW  HW  OW  HW  HW  OW  HW  HW  OW  HW  HW  OW  HW  HW  OW  
HW  HW  OW  HW  HW  OW  HW  HW  OW  HW  HW  OW  HW  HW  OW  HW  HW  OW  HW  HW  
OW  HW  HW  OW  HW  HW  OW  HW  HW  OW  HW  HW  OW  HW  HW  OW  HW  HW  OW  HW  
HW  OW  HW  HW  OW  HW  HW  OW  HW  HW  OW  HW  HW  OW  HW  HW  OW  HW  HW  OW  
HW  HW  OW  HW  HW  OW  HW  HW  OW  HW  HW  OW  HW  HW  OW  HW  HW  OW  HW  HW  
OW  HW  HW  OW  HW  HW  OW  HW  HW  OW  HW  HW  OW  HW  HW  OW  HW  HW  OW  HW  
HW  OW  HW  HW  OW  HW  HW  OW  HW  HW  OW  HW  HW  OW  HW  HW  OW  HW  HW  OW  
HW  HW  OW  HW  HW  OW  HW  HW  OW  HW  HW  OW  HW  HW  OW  HW  HW  OW  HW  HW  
OW  HW  HW  OW  HW  HW  OW  HW  HW  OW  HW  HW  OW  HW  HW  OW  HW  HW  OW  HW  
HW  OW  HW  HW  OW  HW  HW  OW  HW  HW  OW  HW  HW  OW  HW  HW  OW  HW  HW  OW  
HW  HW  OW  HW  HW  OW  HW  HW  OW  HW  HW  OW  HW  HW  OW  HW  HW  OW  HW  HW  
OW  HW  HW  OW  HW  HW  OW  HW  HW  OW  HW  HW  OW  HW  HW  OW  HW  HW  OW  HW  
HW  OW  HW  HW  OW  HW  HW  OW  HW  HW  OW  HW  HW  OW  HW  HW  OW  HW  HW  OW  
HW  HW  OW  HW  HW  OW  HW  HW  OW  HW  HW  OW  HW  HW  OW  HW  HW  OW  HW  HW  
OW  HW  HW  OW  HW  HW  OW  HW  HW  OW  HW  HW  OW  HW  HW  OW  HW  HW  OW  HW  
HW  OW  HW  HW  OW  HW  HW  OW  HW  HW  OW  HW  HW  OW  HW  HW  OW  HW  HW  OW  
HW  HW  OW  HW  HW  OW  HW  HW  OW  HW  HW  OW  HW  HW  OW  HW  HW  OW  HW  HW  
OW  HW  HW  OW  HW  HW  OW  HW  HW  OW  HW  HW  OW  HW  HW  OW  HW  HW  OW  HW  
HW  OW  HW  HW  OW  HW  HW  OW  HW  HW  OW  HW  HW  OW  HW  HW  OW  HW  HW  OW  
HW  HW  OW  HW  HW  OW  HW  HW  OW  HW  HW  OW  HW  HW  OW  HW  HW  OW  HW  HW  
OW  HW  HW  OW  HW  HW  OW  HW  HW  OW  HW  HW  OW  HW  HW  OW  HW  HW  OW  HW  
HW  OW  HW  HW  OW  HW  HW  OW  HW  HW  OW  HW  HW  OW  HW  HW  OW  HW  HW  OW  
HW  HW  OW  HW  HW  OW  HW  HW  OW  HW  HW  OW  HW  HW  OW  HW  HW  OW  HW  HW  
OW  HW  HW  OW  HW  HW  OW  HW  HW  OW  HW  HW  OW  HW  HW  OW  HW  HW  OW  HW  
HW  OW  HW  HW  OW  HW  HW  OW  HW  HW  OW  HW  HW  OW  HW  HW  OW  HW  HW  OW  
HW  HW  OW  HW  HW  OW  HW  HW  OW  HW  HW  OW  HW  HW  OW  HW  HW  OW  HW  HW  
OW  HW  HW  OW  HW  HW  OW  HW  HW  OW  HW  HW  OW  HW  HW  OW  HW  HW  OW  HW  
HW  OW  HW  HW  OW  HW  HW  OW  HW  HW  OW  HW  HW  OW  HW  HW  OW  HW  HW  OW  
HW  HW  OW  HW  HW  OW  HW  HW  OW  HW  HW  OW  HW  HW  OW  HW  HW  OW  HW  HW  
OW  HW  HW  OW  HW  HW  OW  HW  HW  OW  HW  HW  OW  HW  HW  OW  HW  HW  OW  HW  
HW  OW  HW  HW  OW  HW  HW  OW  HW  HW  OW  HW  HW  OW  HW  HW  OW  HW  HW  OW  
HW  HW  OW  HW  HW  OW  HW  HW  OW  HW  HW  OW  HW  HW  OW  HW  HW  OW  HW  HW  
OW  HW  HW  OW  HW  HW  OW  HW  HW  OW  HW  HW  OW  HW  HW  OW  HW  HW  OW  HW  
HW  OW  HW  HW  OW  HW  HW  OW  HW  HW  OW  HW  HW  OW  HW  HW  OW  HW  HW  OW  
HW  HW  OW  HW  HW  OW  HW  HW  OW  HW  HW  OW  HW  HW  OW  HW  HW  OW  HW  HW  
OW  HW  HW  OW  HW  HW  OW  HW  HW  OW  HW  HW  OW  HW  HW  OW  HW  HW  OW  HW  
HW  OW  HW  HW  OW  HW  HW  OW  HW  HW  OW  HW  HW  OW  HW  HW  OW  HW  HW  OW  
HW  HW  OW  HW  HW  OW  HW  HW  OW  HW  HW  OW  HW  HW  OW  HW  HW  OW  HW  HW  
OW  HW  HW  OW  HW  HW  OW  HW  HW  OW  HW  HW  OW  HW  HW  OW  HW  HW  OW  HW  
HW  OW  HW  HW  OW  HW  HW  OW  HW  HW  OW  HW  HW  OW  HW  HW  OW  HW  HW  OW  
HW  HW  OW  HW  HW  OW  HW  HW  OW  HW  HW  OW  HW  HW  OW  HW  HW  OW  HW  HW  
OW  HW  HW  OW  HW  HW  OW  HW  HW  OW  HW  HW  OW  HW  HW  OW  HW  HW  OW  HW  
HW  OW  HW  HW  OW  HW  HW  OW  HW  HW  OW  HW  HW  OW  HW  HW  OW  HW  HW  OW  
HW  HW  OW  HW  HW  OW  HW  HW  OW  HW  HW  OW  HW  HW  OW  HW  HW  OW  HW  HW  
OW  HW  HW  OW  HW  HW  OW  HW  HW  OW  HW  HW  OW  HW  HW  OW  HW  HW  OW  HW  
HW  OW  HW  HW  OW  HW  HW  OW  HW  HW  OW  HW  HW  OW  HW  HW  OW  HW  HW  OW  
HW  HW  OW  HW  HW  OW  HW  HW  OW  HW  HW  OW  HW  HW  OW  HW  HW  OW  HW  HW  
OW  HW  HW  OW  HW  HW  OW  HW  HW  OW  HW  HW  OW  HW  HW  OW  HW  HW  OW  HW  
HW  OW  HW  HW  OW  HW  HW  OW  HW  HW  OW  HW  HW  OW  HW  HW  OW  HW  HW  OW  
HW  HW  OW  HW  HW  OW  HW  HW  OW  HW  HW  OW  HW  HW  OW  HW  HW  OW  HW  HW  
OW  HW  HW  OW  HW  HW  OW  HW  HW  OW  HW  HW  OW  HW  HW  OW  HW  HW  OW  HW  
HW  OW  HW  HW  OW  HW  HW  OW  HW  HW  OW  HW  HW  OW  HW  HW  OW  HW  HW  OW  
HW  HW  OW  HW  HW  OW  HW  HW  OW  HW  HW  OW  HW  HW  OW  HW  HW  OW  HW  HW  
OW  HW  HW  OW  HW  HW  OW  HW  HW  OW  HW  HW  OW  HW  HW  OW  HW  HW  OW  HW  
HW  OW  HW  HW  OW  HW  HW  OW  HW  HW  OW  HW  HW  OW  HW  HW  OW  HW  HW  OW  
HW  HW  OW  HW  HW  OW  HW  HW  OW  HW  HW  OW  HW  HW  OW  HW  HW  OW  HW  HW  
OW  HW  HW  OW  HW  HW  OW  HW  HW  OW  HW  HW  OW  HW  HW  OW  HW  HW  OW  HW  
HW  OW  HW  HW  OW  HW  HW  OW  HW  HW  OW  HW  HW  OW  HW  HW  OW  HW  HW  OW  
HW  HW  OW  HW  HW  OW  HW  HW  OW  HW  HW  OW  HW  HW  OW  HW  HW  OW  HW  HW  
OW  HW  HW  OW  HW  HW  OW  HW  HW  OW  HW  HW  OW  HW  HW  OW  HW  HW  OW  HW  
HW  OW  HW  HW  OW  HW  HW  OW  HW  HW  OW  HW  HW  OW  HW  HW  OW  HW  HW  OW  
HW  HW  OW  HW  HW  OW  HW  HW  OW  HW  HW  OW  HW  HW  OW  HW  HW  OW  HW  HW  
OW  HW  HW  OW  HW  HW  OW  HW  HW  OW  HW  HW  OW  HW  HW  OW  HW  HW  OW  HW  
HW  OW  HW  HW  OW  HW  HW  OW  HW  HW  OW  HW  HW  OW  HW  HW  OW  HW  HW  OW  
HW  HW  OW  HW  HW  OW  HW  HW  OW  HW  HW  OW  HW  HW  OW  HW  HW  OW  HW  HW  
OW  HW  HW  OW  HW  HW  OW  HW  HW  OW  HW  HW  OW  HW  HW  OW  HW  HW  OW  HW  
HW  OW  HW  HW  OW  HW  HW  OW  HW  HW  OW  HW  HW  OW  HW  HW  OW  HW  HW  OW  
HW  HW  OW  HW  HW  OW  HW  HW  OW  HW  HW  OW  HW  HW  OW  HW  HW  OW  HW  HW  
OW  HW  HW  OW  HW  HW  OW  HW  HW  OW  HW  HW  OW  HW  HW  OW  HW  HW  OW  HW  
HW  OW  HW  HW  OW  HW  HW  OW  HW  HW  OW  HW  HW  OW  HW  HW  OW  HW  HW  OW  
HW  HW  OW  HW  HW  OW  HW  HW  OW  HW  HW  OW  HW  HW  OW  HW  HW  OW  HW  HW  
OW  HW  HW  OW  HW  HW  OW  HW  HW  OW  HW  HW  OW  HW  HW  OW  HW  HW  OW  HW  
HW  OW  HW  HW  OW  HW  HW  OW  HW  HW  OW  HW  HW  OW  HW  HW  OW  HW  HW  OW  
HW  HW  OW  HW  HW  OW  HW  HW  OW  HW  HW  OW  HW  HW  OW  HW  HW  OW  HW  HW  
OW  HW  HW  OW  HW  HW  OW  HW  HW  OW  HW  HW  OW  HW  HW  OW  HW  HW  OW  HW  
HW  OW  HW  HW  OW  HW  HW  OW  HW  HW  OW  HW  HW  OW  HW  HW  OW  HW  HW  OW  
HW  HW  OW  HW  HW  OW  HW  HW  OW  HW  HW  OW  HW  HW  OW  HW  HW  OW  HW  HW  
OW  HW  HW  OW  HW  HW  OW  HW  HW  OW  HW  HW  OW  HW  HW  OW  HW  HW  OW  HW  
HW  OW  HW  HW  OW  HW  HW  OW  HW  HW  OW  HW  HW  OW  HW  HW  OW  HW  HW  OW  
HW  HW  OW  HW  HW  OW  HW  HW  OW  HW  HW  OW  HW  HW  OW  HW  HW  OW  HW  HW  
OW  HW  HW  OW  HW  HW  OW  HW  HW  OW  HW  HW  OW  HW  HW  OW  HW  HW  OW  HW  
HW  OW  HW  HW  OW  HW  HW  OW  HW  HW  OW  HW  HW  OW  HW  HW  OW  HW  HW  OW  
HW  HW  OW  HW  HW  OW  HW  HW  OW  HW  HW  OW  HW  HW  OW  HW  HW  OW  HW  HW  
OW  HW  HW  OW  HW  HW  OW  HW  HW  OW  HW  HW  OW  HW  HW  OW  HW  HW  OW  HW  
HW  OW  HW  HW  OW  HW  HW  OW  HW  HW  OW  HW  HW  OW  HW  HW  OW  HW  HW  OW  
HW  HW  OW  HW  HW  OW  HW  HW  OW  HW  HW  OW  HW  HW  OW  HW  HW  OW  HW  HW  
OW  HW  HW  OW  HW  HW  OW  HW  HW  OW  HW  HW  OW  HW  HW  OW  HW  HW  OW  HW  
HW  OW  HW  HW  OW  HW  HW  OW  HW  HW  OW  HW  HW  OW  HW  HW  OW  HW  HW  OW  
HW  HW  OW  HW  HW  OW  HW  HW  OW  HW  HW  OW  HW  HW  OW  HW  HW  OW  HW  HW  
OW  HW  HW  OW  HW  HW  OW  HW  HW  OW  HW  HW  OW  HW  HW  OW  HW  HW  OW  HW  
HW  OW  HW  HW  OW  HW  HW  OW  HW  HW  OW  HW  HW  OW  HW  HW  OW  HW  HW  OW  
HW  HW  OW  HW  HW  OW  HW  HW  OW  HW  HW  OW  HW  HW  OW  HW  HW  OW  HW  HW  
OW  HW  HW  OW  HW  HW  OW  HW  HW  OW  HW  HW  OW  HW  HW  OW  HW  HW  OW  HW  
HW  OW  HW  HW  OW  HW  HW  OW  HW  HW  OW  HW  HW  OW  HW  HW  OW  HW  HW  OW  
HW  HW  OW  HW  HW  OW  HW  HW  OW  HW  HW  OW  HW  HW  OW  HW  HW  OW  HW  HW  
OW  HW  HW  OW  HW  HW  OW  HW  HW  OW  HW  HW  OW  HW  HW  OW  HW  HW  OW  HW  
HW  OW  HW  HW  OW  HW  HW  OW  HW  HW  OW  HW  HW  OW  HW  HW  OW  HW  HW  OW  
HW  HW  OW  HW  HW  OW  HW  HW  OW  HW  HW  OW  HW  HW  OW  HW  HW  OW  HW  HW  
OW  HW  HW  OW  HW  HW  OW  HW  HW  OW  HW  HW  OW  HW  HW  OW  HW  HW  OW  HW  
HW  OW  HW  HW  OW  HW  HW  OW  HW  HW  OW  HW  HW  OW  HW  HW  OW  HW  HW  OW  
HW  HW  OW  HW  HW  OW  HW  HW  OW  HW  HW  OW  HW  HW  OW  HW  HW  OW  HW  HW  
OW  HW  HW  OW  HW  HW  OW  HW  HW  OW  HW  HW  OW  HW  HW  OW  HW  HW  OW  HW  
HW  OW  HW  HW  OW  HW  HW  OW  HW  HW  OW  HW  HW  OW  HW  HW  OW  HW  HW  OW  
HW  HW  OW  HW  HW  OW  HW  HW  OW  HW  HW  OW  HW  HW  OW  HW  HW  OW  HW  HW  
OW  HW  HW  OW  HW  HW  OW  HW  HW  OW  HW  HW  OW  HW  HW  OW  HW  HW  OW  HW  
HW  OW  HW  HW  OW  HW  HW  OW  HW  HW  OW  HW  HW  OW  HW  HW  OW  HW  HW  OW  
HW  HW  OW  HW  HW  OW  HW  HW  OW  HW  HW  OW  HW  HW  OW  HW  HW  OW  HW  HW  
OW  HW  HW  OW  HW  HW  OW  HW  HW  OW  HW  HW  OW  HW  HW  OW  HW  HW  OW  HW  
HW  OW  HW  HW  OW  HW  HW  OW  HW  HW  OW  HW  HW  OW  HW  HW  OW  HW  HW  OW  
HW  HW  OW  HW  HW  OW  HW  HW  OW  HW  HW  OW  HW  HW  OW  HW  HW  OW  HW  HW  
OW  HW  HW  OW  HW  HW  OW  HW  HW  OW  HW  HW  OW  HW  HW  OW  HW  HW  OW  HW  
HW  OW  HW  HW  OW  HW  HW  OW  HW  HW  OW  HW  HW  OW  HW  HW  OW  HW  HW  OW  
HW  HW  OW  HW  HW  OW  HW  HW  OW  HW  HW  OW  HW  HW  OW  HW  HW  OW  HW  HW  
OW  HW  HW  OW  HW  HW  OW  HW  HW  OW  HW  HW  OW  HW  HW  OW  HW  HW  OW  HW  
HW  OW  HW  HW  OW  HW  HW  OW  HW  HW  OW  HW  HW  OW  HW  HW  OW  HW  HW  OW  
HW  HW  OW  HW  HW  OW  HW  HW  OW  HW  HW  OW  HW  HW  OW  HW  HW  OW  HW  HW  
OW  HW  HW  OW  HW  HW  OW  HW  HW  OW  HW  HW  OW  HW  HW  OW  HW  HW  OW  HW  
HW  OW  HW  HW  OW  HW  HW  OW  HW  HW  OW  HW  HW  OW  HW  HW  OW  HW  HW  OW  
HW  HW  OW  HW  HW  OW  HW  HW  OW  HW  HW  OW  HW  HW  OW  HW  HW  OW  HW  HW  
OW  HW  HW  OW  HW  HW  OW  HW  HW  OW  HW  HW  OW  HW  HW  OW  HW  HW  OW  HW  
HW  OW  HW  HW  OW  HW  HW  OW  HW  HW  OW  HW  HW  OW  HW  HW  OW  HW  HW  OW  
HW  HW  OW  HW  HW  OW  HW  HW  OW  HW  HW  OW  HW  HW  OW  HW  HW  OW  HW  HW  
OW  HW  HW  OW  HW  HW  OW  HW  HW  OW  HW  HW  OW  HW  HW  OW  HW  HW  OW  HW  
HW  OW  HW  HW  OW  HW  HW  OW  HW  HW  OW  HW  HW  OW  HW  HW  OW  HW  HW  OW  
HW  HW  OW  HW  HW  OW  HW  HW  OW  HW  HW  OW  HW  HW  OW  HW  HW  OW  HW  HW  
OW  HW  HW  OW  HW  HW  OW  HW  HW  OW  HW  HW  OW  HW  HW  OW  HW  HW  OW  HW  
HW  OW  HW  HW  OW  HW  HW  OW  HW  HW  OW  HW  HW  OW  HW  HW  OW  HW  HW  OW  
HW  HW  OW  HW  HW  OW  HW  HW  OW  HW  HW  OW  HW  HW  OW  HW  HW  OW  HW  HW  
OW  HW  HW  OW  HW  HW  OW  HW  HW  OW  HW  HW  OW  HW  HW  OW  HW  HW  OW  HW  
HW  OW  HW  HW  OW  HW  HW  OW  HW  HW  OW  HW  HW  OW  HW  HW  OW  HW  HW  OW  
HW  HW  OW  HW  HW  OW  HW  HW  OW  HW  HW  OW  HW  HW  OW  HW  HW  OW  HW  HW  
OW  HW  HW  OW  HW  HW  OW  HW  HW  OW  HW  HW  OW  HW  HW  OW  HW  HW  OW  HW  
HW  OW  HW  HW  OW  HW  HW  OW  HW  HW  OW  HW  HW  OW  HW  HW  OW  HW  HW  OW  
HW  HW  OW  HW  HW  OW  HW  HW  OW  HW  HW  OW  HW  HW  OW  HW  HW  OW  HW  HW  
OW  HW  HW  OW  HW  HW  OW  HW  HW  OW  HW  HW  OW  HW  HW  OW  HW  HW  OW  HW  
HW  OW  HW  HW  OW  HW  HW  OW  HW  HW  OW  HW  HW  OW  HW  HW  OW  HW  HW  OW  
HW  HW  OW  HW  HW  OW  HW  HW  OW  HW  HW  OW  HW  HW  OW  HW  HW  OW  HW  HW  
OW  HW  HW  OW  HW  HW  OW  HW  HW  OW  HW  HW  OW  HW  HW  OW  HW  HW  OW  HW  
HW  OW  HW  HW  OW  HW  HW  OW  HW  HW  OW  HW  HW  OW  HW  HW  OW  HW  HW  OW  
HW  HW  OW  HW  HW  OW  HW  HW  OW  HW  HW  OW  HW  HW  OW  HW  HW  OW  HW  HW  
OW  HW  HW  OW  HW  HW  OW  HW  HW  OW  HW  HW  OW  HW  HW  OW  HW  HW  OW  HW  
HW  OW  HW  HW  OW  HW  HW  OW  HW  HW  OW  HW  HW  OW  HW  HW  OW  HW  HW  OW  
HW  HW  OW  HW  HW  OW  HW  HW  OW  HW  HW  OW  HW  HW  OW  HW  HW  OW  HW  HW  
OW  HW  HW  OW  HW  HW  OW  HW  HW  OW  HW  HW  OW  HW  HW  OW  HW  HW  OW  HW  
HW  OW  HW  HW  OW  HW  HW  OW  HW  HW  OW  HW  HW  OW  HW  HW  OW  HW  HW  OW  
HW  HW  OW  HW  HW  OW  HW  HW  OW  HW  HW  OW  HW  HW  OW  HW  HW  OW  HW  HW  
OW  HW  HW  OW  HW  HW  OW  HW  HW  OW  HW  HW  OW  HW  HW  OW  HW  HW  OW  HW  
HW  OW  HW  HW  OW  HW  HW  OW  HW  HW  OW  HW  HW  OW  HW  HW  OW  HW  HW  OW  
HW  HW  OW  HW  HW  OW  HW  HW  OW  HW  HW  OW  HW  HW  OW  HW  HW  OW  HW  HW  
OW  HW  HW  OW  HW  HW  OW  HW  HW  OW  HW  HW  OW  HW  HW  OW  HW  HW  OW  HW  
HW  OW  HW  HW  OW  HW  HW  OW  HW  HW  OW  HW  HW  OW  HW  HW  OW  HW  HW  OW  
HW  HW  OW  HW  HW  OW  HW  HW  OW  HW  HW  OW  HW  HW  OW  HW  HW  OW  HW  HW  
OW  HW  HW  OW  HW  HW  OW  HW  HW  OW  HW  HW  OW  HW  HW  OW  HW  HW  OW  HW  
HW  OW  HW  HW  OW  HW  HW  OW  HW  HW  OW  HW  HW  OW  HW  HW  OW  HW  HW  OW  
HW  HW  OW  HW  HW  OW  HW  HW  OW  HW  HW  OW  HW  HW  OW  HW  HW  OW  HW  HW  
OW  HW  HW  OW  HW  HW  OW  HW  HW  OW  HW  HW  OW  HW  HW  OW  HW  HW  OW  HW  
HW  OW  HW  HW  OW  HW  HW  OW  HW  HW  OW  HW  HW  OW  HW  HW  OW  HW  HW  OW  
HW  HW  OW  HW  HW  OW  HW  HW  OW  HW  HW  OW  HW  HW  OW  HW  HW  OW  HW  HW  
OW  HW  HW  OW  HW  HW  OW  HW  HW  OW  HW  HW  OW  HW  HW  OW  HW  HW  OW  HW  
HW  OW  HW  HW  OW  HW  HW  OW  HW  HW  OW  HW  HW  OW  HW  HW  OW  HW  HW  OW  
HW  HW  OW  HW  HW  OW  HW  HW  OW  HW  HW  OW  HW  HW  OW  HW  HW  OW  HW  HW  
OW  HW  HW  OW  HW  HW  OW  HW  HW  OW  HW  HW  OW  HW  HW  OW  HW  HW  OW  HW  
HW  OW  HW  HW  OW  HW  HW  OW  HW  HW  OW  HW  HW  OW  HW  HW  OW  HW  HW  OW  
HW  HW  OW  HW  HW  OW  HW  HW  OW  HW  HW  OW  HW  HW  OW  HW  HW  OW  HW  HW  
OW  HW  HW  OW  HW  HW  OW  HW  HW  OW  HW  HW  OW  HW  HW  OW  HW  HW  OW  HW  
HW  OW  HW  HW  OW  HW  HW  OW  HW  HW  OW  HW  HW  OW  HW  HW  OW  HW  HW  OW  
HW  HW  OW  HW  HW  OW  HW  HW  OW  HW  HW  OW  HW  HW  OW  HW  HW  OW  HW  HW  
OW  HW  HW  OW  HW  HW  OW  HW  HW  OW  HW  HW  OW  HW  HW  OW  HW  HW  OW  HW  
HW  OW  HW  HW  OW  HW  HW  OW  HW  HW  OW  HW  HW  OW  HW  HW  OW  HW  HW  OW  
HW  HW  OW  HW  HW  OW  HW  HW  OW  HW  HW  OW  HW  HW  OW  HW  HW  OW  HW  HW  
OW  HW  HW  OW  HW  HW  OW  HW  HW  OW  HW  HW  OW  HW  HW  OW  HW  HW  OW  HW  
HW  OW  HW  HW  OW  HW  HW  OW  HW  HW  OW  HW  HW  OW  HW  HW  OW  HW  HW  OW  
HW  HW  OW  HW  HW  OW  HW  HW  OW  HW  HW  OW  HW  HW  OW  HW  HW  OW  HW  HW  
OW  HW  HW  OW  HW  HW  OW  HW  HW  OW  HW  HW  OW  HW  HW  OW  HW  HW  OW  HW  
HW  OW  HW  HW  OW  HW  HW  OW  HW  HW  OW  HW  HW  OW  HW  HW  OW  HW  HW  OW  
HW  HW  OW  HW  HW  OW  HW  HW  OW  HW  HW  OW  HW  HW  OW  HW  HW  OW  HW  HW  
OW  HW  HW  OW  HW  HW  OW  HW  HW  OW  HW  HW  OW  HW  HW  OW  HW  HW  OW  HW  
HW  OW  HW  HW  OW  HW  HW  OW  HW  HW  OW  HW  HW  OW  HW  HW  OW  HW  HW  OW  
HW  HW  OW  HW  HW  OW  HW  HW  OW  HW  HW  OW  HW  HW  OW  HW  HW  OW  HW  HW  
OW  HW  HW  OW  HW  HW  OW  HW  HW  OW  HW  HW  OW  HW  HW  OW  HW  HW  OW  HW  
HW  OW  HW  HW  OW  HW  HW  OW  HW  HW  OW  HW  HW  OW  HW  HW  OW  HW  HW  OW  
HW  HW  OW  HW  HW  OW  HW  HW  OW  HW  HW  OW  HW  HW  OW  HW  HW  OW  HW  HW  
OW  HW  HW  OW  HW  HW  OW  HW  HW  OW  HW  HW  OW  HW  HW  OW  HW  HW  OW  HW  
HW  OW  HW  HW  OW  HW  HW  OW  HW  HW  OW  HW  HW  OW  HW  HW  OW  HW  HW  OW  
HW  HW  OW  HW  HW  OW  HW  HW  OW  HW  HW  OW  HW  HW  OW  HW  HW  OW  HW  HW  
OW  HW  HW  OW  HW  HW  OW  HW  HW  OW  HW  HW  OW  HW  HW  OW  HW  HW  OW  HW  
HW  OW  HW  HW  OW  HW  HW  OW  HW  HW  OW  HW  HW  OW  HW  HW  OW  HW  HW  OW  
HW  HW  OW  HW  HW  OW  HW  HW  OW  HW  HW  OW  HW  HW  OW  HW  HW  OW  HW  HW  
OW  HW  HW  OW  HW  HW  OW  HW  HW  OW  HW  HW  OW  HW  HW  OW  HW  HW  OW  HW  
HW  OW  HW  HW  OW  HW  HW  OW  HW  HW  OW  HW  HW  OW  HW  HW  OW  HW  HW  OW  
HW  HW  OW  HW  HW  OW  HW  HW  OW  HW  HW  OW  HW  HW  OW  HW  HW  OW  HW  HW  
OW  HW  HW  OW  HW  HW  OW  HW  HW  OW  HW  HW  OW  HW  HW  OW  HW  HW  OW  HW  
HW  OW  HW  HW  OW  HW  HW  OW  HW  HW  OW  HW  HW  OW  HW  HW  OW  HW  HW  OW  
HW  HW  OW  HW  HW  OW  HW  HW  OW  HW  HW  OW  HW  HW  OW  HW  HW  OW  HW  HW  
OW  HW  HW  OW  HW  HW  OW  HW  HW  OW  HW  HW  OW  HW  HW  OW  HW  HW  OW  HW  
HW  OW  HW  HW  OW  HW  HW  OW  HW  HW  OW  HW  HW  OW  HW  HW  OW  HW  HW  OW  
HW  HW  OW  HW  HW  OW  HW  HW  OW  HW  HW  OW  HW  HW  OW  HW  HW  OW  HW  HW  
OW  HW  HW  OW  HW  HW  OW  HW  HW  OW  HW  HW  OW  HW  HW  OW  HW  HW  OW  HW  
HW  OW  HW  HW  OW  HW  HW  OW  HW  HW  OW  HW  HW  OW  HW  HW  OW  HW  HW  OW  
HW  HW  OW  HW  HW  OW  HW  HW  OW  HW  HW  OW  HW  HW  OW  HW  HW  OW  HW  HW  
OW  HW  HW  OW  HW  HW  OW  HW  HW  OW  HW  HW  OW  HW  HW  OW  HW  HW  OW  HW  
HW  OW  HW  HW  OW  HW  HW  OW  HW  HW  OW  HW  HW  OW  HW  HW  OW  HW  HW  OW  
HW  HW  OW  HW  HW  OW  HW  HW  OW  HW  HW  OW  HW  HW  OW  HW  HW  OW  HW  HW  
OW  HW  HW  OW  HW  HW  OW  HW  HW  OW  HW  HW  OW  HW  HW  OW  HW  HW  OW  HW  
HW  OW  HW  HW  OW  HW  HW  OW  HW  HW  OW  HW  HW  OW  HW  HW  OW  HW  HW  OW  
HW  HW  OW  HW  HW  OW  HW  HW  OW  HW  HW  OW  HW  HW  OW  HW  HW  OW  HW  HW  
OW  HW  HW  OW  HW  HW  OW  HW  HW  OW  HW  HW  OW  HW  HW  OW  HW  HW  OW  HW  
HW  OW  HW  HW  OW  HW  HW  OW  HW  HW  OW  HW  HW  OW  HW  HW  OW  HW  HW  OW  
HW  HW  OW  HW  HW  OW  HW  HW  OW  HW  HW  OW  HW  HW  OW  HW  HW  OW  HW  HW  
OW  HW  HW  OW  HW  HW  OW  HW  HW  OW  HW  HW  OW  HW  HW  OW  HW  HW  OW  HW  
HW  OW  HW  HW  OW  HW  HW  OW  HW  HW  OW  HW  HW  OW  HW  HW  OW  HW  HW  OW  
HW  HW  OW  HW  HW  OW  HW  HW  OW  HW  HW  OW  HW  HW  OW  HW  HW  OW  HW  HW  
OW  HW  HW  OW  HW  HW  OW  HW  HW  OW  HW  HW  OW  HW  HW  OW  HW  HW  OW  HW  
HW  OW  HW  HW  OW  HW  HW  OW  HW  HW  OW  HW  HW  OW  HW  HW  OW  HW  HW  OW  
HW  HW  OW  HW  HW  OW  HW  HW  OW  HW  HW  OW  HW  HW  OW  HW  HW  OW  HW  HW  
OW  HW  HW  OW  HW  HW  OW  HW  HW  OW  HW  HW  OW  HW  HW  OW  HW  HW  OW  HW  
HW  OW  HW  HW  OW  HW  HW  OW  HW  HW  OW  HW  HW  OW  HW  HW  OW  HW  HW  OW  
HW  HW  OW  HW  HW  OW  HW  HW  OW  HW  HW  OW  HW  HW  OW  HW  HW  OW  HW  HW  
OW  HW  HW  OW  HW  HW  OW  HW  HW  OW  HW  HW  OW  HW  HW  OW  HW  HW  OW  HW  
HW  OW  HW  HW  OW  HW  HW  OW  HW  HW  OW  HW  HW  OW  HW  HW  OW  HW  HW  OW  
HW  HW  OW  HW  HW  OW  HW  HW  OW  HW  HW  OW  HW  HW  OW  HW  HW  OW  HW  HW  
OW  HW  HW  OW  HW  HW  OW  HW  HW  OW  HW  HW  OW  HW  HW  OW  HW  HW  OW  HW  
HW  OW  HW  HW  OW  HW  HW  OW  HW  HW  OW  HW  HW  OW  HW  HW  OW  HW  HW  OW  
HW  HW  OW  HW  HW  OW  HW  HW  OW  HW  HW  OW  HW  HW  OW  HW  HW  OW  HW  HW  
OW  HW  HW  OW  HW  HW  OW  HW  HW  OW  HW  HW  OW  HW  HW  OW  HW  HW  OW  HW  
HW  OW  HW  HW  OW  HW  HW  OW  HW  HW  OW  HW  HW  OW  HW  HW  OW  HW  HW  OW  
HW  HW  OW  HW  HW  OW  HW  HW  OW  HW  HW  OW  HW  HW  OW  HW  HW  OW  HW  HW  
OW  HW  HW  OW  HW  HW  OW  HW  HW  OW  HW  HW  OW  HW  HW  OW  HW  HW  OW  HW  
HW  OW  HW  HW  OW  HW  HW  OW  HW  HW  OW  HW  HW  OW  HW  HW  OW  HW  HW  OW  
HW  HW  OW  HW  HW  OW  HW  HW  OW  HW  HW  OW  HW  HW  OW  HW  HW  OW  HW  HW  
OW  HW  HW  OW  HW  HW  OW  HW  HW  OW  HW  HW  OW  HW  HW  OW  HW  HW  OW  HW  
HW  OW  HW  HW  OW  HW  HW  OW  HW  HW  OW  HW  HW  OW  HW  HW  OW  HW  HW  OW  
HW  HW  OW  HW  HW  OW  HW  HW  OW  HW  HW  OW  HW  HW  OW  HW  HW  OW  HW  HW  
OW  HW  HW  OW  HW  HW  OW  HW  HW  OW  HW  HW  OW  HW  HW  OW  HW  HW  OW  HW  
HW  OW  HW  HW  OW  HW  HW  OW  HW  HW  OW  HW  HW  OW  HW  HW  OW  HW  HW  OW  
HW  HW  OW  HW  HW  OW  HW  HW  OW  HW  HW  OW  HW  HW  OW  HW  HW  OW  HW  HW  
OW  HW  HW  OW  HW  HW  OW  HW  HW  OW  HW  HW  OW  HW  HW  OW  HW  HW  OW  HW  
HW  OW  HW  HW  OW  HW  HW  OW  HW  HW  OW  HW  HW  OW  HW  HW  OW  HW  HW  OW  
HW  HW  OW  HW  HW  OW  HW  HW  OW  HW  HW  OW  HW  HW  OW  HW  HW  OW  HW  HW  
OW  HW  HW  OW  HW  HW  OW  HW  HW  OW  HW  HW  OW  HW  HW  OW  HW  HW  OW  HW  
HW  OW  HW  HW  OW  HW  HW  OW  HW  HW  OW  HW  HW  OW  HW  HW  OW  HW  HW  OW  
HW  HW  OW  HW  HW  OW  HW  HW  OW  HW  HW  OW  HW  HW  OW  HW  HW  OW  HW  HW  
OW  HW  HW  OW  HW  HW  OW  HW  HW  OW  HW  HW  OW  HW  HW  OW  HW  HW  OW  HW  
HW  OW  HW  HW  OW  HW  HW  OW  HW  HW  OW  HW  HW  OW  HW  HW  OW  HW  HW  OW  
HW  HW  OW  HW  HW  OW  HW  HW  OW  HW  HW  OW  HW  HW  OW  HW  HW  OW  HW  HW  
OW  HW  HW  OW  HW  HW  OW  HW  HW  OW  HW  HW  OW  HW  HW  OW  HW  HW  OW  HW  
HW  OW  HW  HW  OW  HW  HW  OW  HW  HW  OW  HW  HW  OW  HW  HW  OW  HW  HW  OW  
HW  HW  OW  HW  HW  OW  HW  HW  OW  HW  HW  OW  HW  HW  OW  HW  HW  OW  HW  HW  
OW  HW  HW  OW  HW  HW  OW  HW  HW  OW  HW  HW  OW  HW  HW  OW  HW  HW  OW  HW  
HW  OW  HW  HW  OW  HW  HW  OW  HW  HW  OW  HW  HW  OW  HW  HW  OW  HW  HW  OW  
HW  HW  OW  HW  HW  OW  HW  HW  OW  HW  HW  OW  HW  HW  OW  HW  HW  OW  HW  HW  
OW  HW  HW  OW  HW  HW  OW  HW  HW  OW  HW  HW  OW  HW  HW  OW  HW  HW  OW  HW  
HW  OW  HW  HW  OW  HW  HW  OW  HW  HW  OW  HW  HW  OW  HW  HW  OW  HW  HW  OW  
HW  HW  OW  HW  HW  OW  HW  HW  OW  HW  HW  OW  HW  HW  OW  HW  HW  OW  HW  HW  
OW  HW  HW  OW  HW  HW  OW  HW  HW  OW  HW  HW  OW  HW  HW  OW  HW  HW  OW  HW  
HW  OW  HW  HW  OW  HW  HW  OW  HW  HW  OW  HW  HW  OW  HW  HW  OW  HW  HW  OW  
HW  HW  OW  HW  HW  OW  HW  HW  OW  HW  HW  OW  HW  HW  OW  HW  HW  OW  HW  HW  
OW  HW  HW  OW  HW  HW  OW  HW  HW  OW  HW  HW  OW  HW  HW  OW  HW  HW  OW  HW  
HW  OW  HW  HW  OW  HW  HW  OW  HW  HW  OW  HW  HW  OW  HW  HW  OW  HW  HW  OW  
HW  HW  OW  HW  HW  OW  HW  HW  OW  HW  HW  OW  HW  HW  OW  HW  HW  OW  HW  HW  
OW  HW  HW  OW  HW  HW  OW  HW  HW  OW  HW  HW  OW  HW  HW  OW  HW  HW  OW  HW  
HW  OW  HW  HW  OW  HW  HW  OW  HW  HW  OW  HW  HW  OW  HW  HW  OW  HW  HW  OW  
HW  HW  OW  HW  HW  OW  HW  HW  OW  HW  HW  OW  HW  HW  OW  HW  HW  OW  HW  HW  
OW  HW  HW  OW  HW  HW  OW  HW  HW  OW  HW  HW  OW  HW  HW  OW  HW  HW  OW  HW  
HW  OW  HW  HW  OW  HW  HW  OW  HW  HW  OW  HW  HW  OW  HW  HW  OW  HW  HW  OW  
HW  HW  OW  HW  HW  OW  HW  HW  OW  HW  HW  OW  HW  HW  OW  HW  HW  OW  HW  HW  
OW  HW  HW  OW  HW  HW  OW  HW  HW  OW  HW  HW  OW  HW  HW  OW  HW  HW  OW  HW  
HW  OW  HW  HW  OW  HW  HW  OW  HW  HW  OW  HW  HW  OW  HW  HW  OW  HW  HW  OW  
HW  HW  OW  HW  HW  OW  HW  HW  OW  HW  HW  OW  HW  HW  OW  HW  HW  OW  HW  HW  
OW  HW  HW  OW  HW  HW  OW  HW  HW  OW  HW  HW  OW  HW  HW  OW  HW  HW  OW  HW  
HW  OW  HW  HW  OW  HW  HW  OW  HW  HW  OW  HW  HW  OW  HW  HW  OW  HW  HW  OW  
HW  HW  OW  HW  HW  OW  HW  HW  OW  HW  HW  OW  HW  HW  OW  HW  HW  OW  HW  HW  
OW  HW  HW  OW  HW  HW  OW  HW  HW  OW  HW  HW  OW  HW  HW  OW  HW  HW  OW  HW  
HW  OW  HW  HW  OW  HW  HW  OW  HW  HW  OW  HW  HW  OW  HW  HW  OW  HW  HW  OW  
HW  HW  OW  HW  HW  OW  HW  HW  OW  HW  HW  OW  HW  HW  OW  HW  HW  OW  HW  HW  
OW  HW  HW  OW  HW  HW  OW  HW  HW  OW  HW  HW  OW  HW  HW  OW  HW  HW  OW  HW  
HW  OW  HW  HW  OW  HW  HW  OW  HW  HW  OW  HW  HW  OW  HW  HW  OW  HW  HW  OW  
HW  HW  OW  HW  HW  OW  HW  HW  OW  HW  HW  OW  HW  HW  OW  HW  HW  OW  HW  HW  
OW  HW  HW  OW  HW  HW  OW  HW  HW  OW  HW  HW  OW  HW  HW  OW  HW  HW  OW  HW  
HW  OW  HW  HW  OW  HW  HW  OW  HW  HW  OW  HW  HW  OW  HW  HW  OW  HW  HW  OW  
HW  HW  OW  HW  HW  OW  HW  HW  OW  HW  HW  OW  HW  HW  OW  HW  HW  OW  HW  HW  
OW  HW  HW  OW  HW  HW  OW  HW  HW  OW  HW  HW  OW  HW  HW  OW  HW  HW  OW  HW  
HW  OW  HW  HW  OW  HW  HW  OW  HW  HW  OW  HW  HW  OW  HW  HW  OW  HW  HW  OW  
HW  HW  OW  HW  HW  OW  HW  HW  OW  HW  HW  OW  HW  HW  OW  HW  HW  OW  HW  HW  
OW  HW  HW  OW  HW  HW  OW  HW  HW  OW  HW  HW  OW  HW  HW  OW  HW  HW  OW  HW  
HW  OW  HW  HW  OW  HW  HW  OW  HW  HW  OW  HW  HW  OW  HW  HW  OW  HW  HW  OW  
HW  HW  OW  HW  HW  OW  HW  HW  OW  HW  HW  OW  HW  HW  OW  HW  HW  OW  HW  HW  
OW  HW  HW  OW  HW  HW  OW  HW  HW  OW  HW  HW  OW  HW  HW  OW  HW  HW  OW  HW  
HW  OW  HW  HW  OW  HW  HW  OW  HW  HW  OW  HW  HW  OW  HW  HW  OW  HW  HW  OW  
HW  HW  OW  HW  HW  OW  HW  HW  OW  HW  HW  OW  HW  HW  OW  HW  HW  OW  HW  HW  
OW  HW  HW  OW  HW  HW  OW  HW  HW  OW  HW  HW  OW  HW  HW  OW  HW  HW  OW  HW  
HW  OW  HW  HW  OW  HW  HW  OW  HW  HW  OW  HW  HW  OW  HW  HW  OW  HW  HW  OW  
HW  HW  OW  HW  HW  OW  HW  HW  OW  HW  HW  OW  HW  HW  OW  HW  HW  OW  HW  HW  
OW  HW  HW  OW  HW  HW  OW  HW  HW  OW  HW  HW  OW  HW  HW  OW  HW  HW  OW  HW  
HW  OW  HW  HW  OW  HW  HW  OW  HW  HW  OW  HW  HW  OW  HW  HW  OW  HW  HW  OW  
HW  HW  OW  HW  HW  OW  HW  HW  OW  HW  HW  OW  HW  HW  OW  HW  HW  OW  HW  HW  
OW  HW  HW  OW  HW  HW  OW  HW  HW  OW  HW  HW  OW  HW  HW  OW  HW  HW  OW  HW  
HW  OW  HW  HW  OW  HW  HW  OW  HW  HW  OW  HW  HW  OW  HW  HW  OW  HW  HW  OW  
HW  HW  OW  HW  HW  OW  HW  HW  OW  HW  HW  OW  HW  HW  OW  HW  HW  OW  HW  HW  
OW  HW  HW  OW  HW  HW  OW  HW  HW  OW  HW  HW  OW  HW  HW  OW  HW  HW  OW  HW  
HW  OW  HW  HW  OW  HW  HW  OW  HW  HW  OW  HW  HW  OW  HW  HW  OW  HW  HW  OW  
HW  HW  OW  HW  HW  OW  HW  HW  OW  HW  HW  OW  HW  HW  OW  HW  HW  OW  HW  HW  
OW  HW  HW  OW  HW  HW  OW  HW  HW  OW  HW  HW  OW  HW  HW  OW  HW  HW  OW  HW  
HW  OW  HW  HW  OW  HW  HW  OW  HW  HW  OW  HW  HW  OW  HW  HW  OW  HW  HW  OW  
HW  HW  OW  HW  HW  OW  HW  HW  OW  HW  HW  OW  HW  HW  OW  HW  HW  OW  HW  HW  
OW  HW  HW  OW  HW  HW  OW  HW  HW  OW  HW  HW  OW  HW  HW  OW  HW  HW  OW  HW  
HW  OW  HW  HW  OW  HW  HW  OW  HW  HW  OW  HW  HW  OW  HW  HW  OW  HW  HW  OW  
HW  HW  OW  HW  HW  OW  HW  HW  OW  HW  HW  OW  HW  HW  OW  HW  HW  OW  HW  HW  
OW  HW  HW  OW  HW  HW  OW  HW  HW  OW  HW  HW  OW  HW  HW  OW  HW  HW  OW  HW  
HW  OW  HW  HW  OW  HW  HW  OW  HW  HW  OW  HW  HW  OW  HW  HW  OW  HW  HW  OW  
HW  HW  OW  HW  HW  OW  HW  HW  OW  HW  HW  OW  HW  HW  OW  HW  HW  OW  HW  HW  
OW  HW  HW  OW  HW  HW  OW  HW  HW  OW  HW  HW  OW  HW  HW  OW  HW  HW  OW  HW  
HW  OW  HW  HW  OW  HW  HW  OW  HW  HW  OW  HW  HW  OW  HW  HW  OW  HW  HW  OW  
HW  HW  OW  HW  HW  OW  HW  HW  OW  HW  HW  OW  HW  HW  OW  HW  HW  OW  HW  HW  
OW  HW  HW  OW  HW  HW  OW  HW  HW  OW  HW  HW  OW  HW  HW  OW  HW  HW  OW  HW  
HW  OW  HW  HW  OW  HW  HW  OW  HW  HW  OW  HW  HW  OW  HW  HW  OW  HW  HW  OW  
HW  HW  OW  HW  HW  OW  HW  HW  OW  HW  HW  OW  HW  HW  OW  HW  HW  OW  HW  HW  
OW  HW  HW  OW  HW  HW  OW  HW  HW  OW  HW  HW  OW  HW  HW  OW  HW  HW  OW  HW  
HW  OW  HW  HW  OW  HW  HW  OW  HW  HW  OW  HW  HW  OW  HW  HW  OW  HW  HW  OW  
HW  HW  OW  HW  HW  OW  HW  HW  OW  HW  HW  OW  HW  HW  OW  HW  HW  OW  HW  HW  
OW  HW  HW  OW  HW  HW  OW  HW  HW  OW  HW  HW  OW  HW  HW  OW  HW  HW  OW  HW  
HW  OW  HW  HW  OW  HW  HW  OW  HW  HW  OW  HW  HW  OW  HW  HW  OW  HW  HW  OW  
HW  HW  OW  HW  HW  OW  HW  HW  OW  HW  HW  OW  HW  HW  OW  HW  HW  OW  HW  HW  
OW  HW  HW  OW  HW  HW  OW  HW  HW  OW  HW  HW  OW  HW  HW  OW  HW  HW  OW  HW  
HW  OW  HW  HW  OW  HW  HW  OW  HW  HW  OW  HW  HW  OW  HW  HW  OW  HW  HW  OW  
HW  HW  OW  HW  HW  OW  HW  HW  OW  HW  HW  OW  HW  HW  OW  HW  HW  OW  HW  HW  
OW  HW  HW  OW  HW  HW  OW  HW  HW  OW  HW  HW  OW  HW  HW  OW  HW  HW  OW  HW  
HW  OW  HW  HW  OW  HW  HW  OW  HW  HW  OW  HW  HW  OW  HW  HW  OW  HW  HW  OW  
HW  HW  OW  HW  HW  OW  HW  HW  OW  HW  HW  OW  HW  HW  OW  HW  HW  OW  HW  HW  
OW  HW  HW  OW  HW  HW  OW  HW  HW  OW  HW  HW  OW  HW  HW  OW  HW  HW  OW  HW  
HW  OW  HW  HW  OW  HW  HW  OW  HW  HW  OW  HW  HW  OW  HW  HW  OW  HW  HW  OW  
HW  HW  OW  HW  HW  OW  HW  HW  OW  HW  HW  OW  HW  HW  OW  HW  HW  OW  HW  HW  
OW  HW  HW  OW  HW  HW  OW  HW  HW  OW  HW  HW  OW  HW  HW  OW  HW  HW  OW  HW  
HW  OW  HW  HW  OW  HW  HW  OW  HW  HW  OW  HW  HW  OW  HW  HW  OW  HW  HW  OW  
HW  HW  OW  HW  HW  OW  HW  HW  OW  HW  HW  OW  HW  HW  OW  HW  HW  OW  HW  HW  
OW  HW  HW  OW  HW  HW  OW  HW  HW  OW  HW  HW  OW  HW  HW  OW  HW  HW  OW  HW  
HW  OW  HW  HW  OW  HW  HW  OW  HW  HW  OW  HW  HW  OW  HW  HW  OW  HW  HW  OW  
HW  HW  OW  HW  HW  OW  HW  HW  OW  HW  HW  OW  HW  HW  OW  HW  HW  OW  HW  HW  
OW  HW  HW  OW  HW  HW  OW  HW  HW  OW  HW  HW  OW  HW  HW  OW  HW  HW  OW  HW  
HW  OW  HW  HW  OW  HW  HW  OW  HW  HW  OW  HW  HW  OW  HW  HW  OW  HW  HW  OW  
HW  HW  OW  HW  HW  OW  HW  HW  OW  HW  HW  OW  HW  HW  OW  HW  HW  OW  HW  HW  
OW  HW  HW  OW  HW  HW  OW  HW  HW  OW  HW  HW  OW  HW  HW  OW  HW  HW  OW  HW  
HW  OW  HW  HW  OW  HW  HW  OW  HW  HW  OW  HW  HW  OW  HW  HW  OW  HW  HW  OW  
HW  HW  OW  HW  HW  OW  HW  HW  OW  HW  HW  OW  HW  HW  OW  HW  HW  OW  HW  HW  
OW  HW  HW  OW  HW  HW  OW  HW  HW  OW  HW  HW  OW  HW  HW  OW  HW  HW  OW  HW  
HW  OW  HW  HW  OW  HW  HW  OW  HW  HW  OW  HW  HW  OW  HW  HW  OW  HW  HW  OW  
HW  HW  OW  HW  HW  OW  HW  HW  OW  HW  HW  OW  HW  HW  OW  HW  HW  OW  HW  HW  
OW  HW  HW  OW  HW  HW  OW  HW  HW  OW  HW  HW  OW  HW  HW  OW  HW  HW  OW  HW  
HW  OW  HW  HW  OW  HW  HW  OW  HW  HW  OW  HW  HW  OW  HW  HW  OW  HW  HW  OW  
HW  HW  OW  HW  HW  OW  HW  HW  OW  HW  HW  OW  HW  HW  OW  HW  HW  OW  HW  HW  
OW  HW  HW  OW  HW  HW  OW  HW  HW  OW  HW  HW  OW  HW  HW  OW  HW  HW  OW  HW  
HW  OW  HW  HW  OW  HW  HW  OW  HW  HW  OW  HW  HW  OW  HW  HW  OW  HW  HW  OW  
HW  HW  OW  HW  HW  OW  HW  HW  OW  HW  HW  OW  HW  HW  OW  HW  HW  OW  HW  HW  
OW  HW  HW  OW  HW  HW  OW  HW  HW  OW  HW  HW  OW  HW  HW  OW  HW  HW  OW  HW  
HW  OW  HW  HW  OW  HW  HW  OW  HW  HW  OW  HW  HW  OW  HW  HW  OW  HW  HW  OW  
HW  HW  OW  HW  HW  OW  HW  HW  OW  HW  HW  OW  HW  HW  OW  HW  HW  OW  HW  HW  
OW  HW  HW  OW  HW  HW  OW  HW  HW  OW  HW  HW  OW  HW  HW  OW  HW  HW  OW  HW  
HW  OW  HW  HW  OW  HW  HW  OW  HW  HW  OW  HW  HW  OW  HW  HW  OW  HW  HW  OW  
HW  HW  OW  HW  HW  OW  HW  HW  OW  HW  HW  OW  HW  HW  OW  HW  HW  OW  HW  HW  
OW  HW  HW  OW  HW  HW  OW  HW  HW  OW  HW  HW  OW  HW  HW  OW  HW  HW  OW  HW  
HW  OW  HW  HW  OW  HW  HW  OW  HW  HW  OW  HW  HW  OW  HW  HW  OW  HW  HW  OW  
HW  HW  OW  HW  HW  OW  HW  HW  OW  HW  HW  OW  HW  HW  OW  HW  HW  OW  HW  HW  
OW  HW  HW  OW  HW  HW  OW  HW  HW  OW  HW  HW  OW  HW  HW  OW  HW  HW  OW  HW  
HW  OW  HW  HW  OW  HW  HW  OW  HW  HW  OW  HW  HW  OW  HW  HW  OW  HW  HW  OW  
HW  HW  OW  HW  HW  OW  HW  HW  OW  HW  HW  OW  HW  HW  OW  HW  HW  OW  HW  HW  
OW  HW  HW  OW  HW  HW  OW  HW  HW  OW  HW  HW  OW  HW  HW  OW  HW  HW  OW  HW  
HW  OW  HW  HW  OW  HW  HW  OW  HW  HW  OW  HW  HW  OW  HW  HW  OW  HW  HW  OW  
HW  HW  OW  HW  HW  OW  HW  HW  OW  HW  HW  OW  HW  HW  OW  HW  HW  OW  HW  HW  
OW  HW  HW  OW  HW  HW  OW  HW  HW  OW  HW  HW  OW  HW  HW  OW  HW  HW  OW  HW  
HW  OW  HW  HW  OW  HW  HW  OW  HW  HW  OW  HW  HW  OW  HW  HW  OW  HW  HW  OW  
HW  HW  OW  HW  HW  OW  HW  HW  OW  HW  HW  OW  HW  HW  OW  HW  HW  OW  HW  HW  
OW  HW  HW  OW  HW  HW  OW  HW  HW  OW  HW  HW  OW  HW  HW  OW  HW  HW  OW  HW  
HW  OW  HW  HW  OW  HW  HW  OW  HW  HW  OW  HW  HW  OW  HW  HW  OW  HW  HW  OW  
HW  HW  OW  HW  HW  OW  HW  HW  OW  HW  HW  OW  HW  HW  OW  HW  HW  OW  HW  HW  
OW  HW  HW  OW  HW  HW  OW  HW  HW  OW  HW  HW  OW  HW  HW  OW  HW  HW  OW  HW  
HW  OW  HW  HW  OW  HW  HW  OW  HW  HW  OW  HW  HW  OW  HW  HW  OW  HW  HW  OW  
HW  HW  OW  HW  HW  OW  HW  HW  OW  HW  HW  OW  HW  HW  OW  HW  HW  OW  HW  HW  
OW  HW  HW  OW  HW  HW  OW  HW  HW  OW  HW  HW  OW  HW  HW  OW  HW  HW  OW  HW  
HW  OW  HW  HW  OW  HW  HW  OW  HW  HW  OW  HW  HW  OW  HW  HW  OW  HW  HW  OW  
HW  HW  OW  HW  HW  OW  HW  HW  OW  HW  HW  OW  HW  HW  OW  HW  HW  OW  HW  HW  
OW  HW  HW  OW  HW  HW  OW  HW  HW  OW  HW  HW  OW  HW  HW  OW  HW  HW  OW  HW  
HW  OW  HW  HW  OW  HW  HW  OW  HW  HW  OW  HW  HW  OW  HW  HW  OW  HW  HW  OW  
HW  HW  OW  HW  HW  OW  HW  HW  OW  HW  HW  OW  HW  HW  OW  HW  HW  OW  HW  HW  
OW  HW  HW  OW  HW  HW  OW  HW  HW  OW  HW  HW  OW  HW  HW  OW  HW  HW  OW  HW  
HW  OW  HW  HW  OW  HW  HW  OW  HW  HW  OW  HW  HW  OW  HW  HW  OW  HW  HW  OW  
HW  HW  OW  HW  HW  OW  HW  HW  OW  HW  HW  OW  HW  HW  OW  HW  HW  OW  HW  HW  
OW  HW  HW  OW  HW  HW  OW  HW  HW  OW  HW  HW  OW  HW  HW  OW  HW  HW  OW  HW  
HW  OW  HW  HW  OW  HW  HW  OW  HW  HW  OW  HW  HW  OW  HW  HW  OW  HW  HW  OW  
HW  HW  OW  HW  HW  OW  HW  HW  OW  HW  HW  OW  HW  HW  OW  HW  HW  OW  HW  HW  
OW  HW  HW  OW  HW  HW  OW  HW  HW  OW  HW  HW  OW  HW  HW  OW  HW  HW  OW  HW  
HW  OW  HW  HW  OW  HW  HW  OW  HW  HW  OW  HW  HW  OW  HW  HW  OW  HW  HW  OW  
HW  HW  OW  HW  HW  OW  HW  HW  OW  HW  HW  OW  HW  HW  OW  HW  HW  OW  HW  HW  
OW  HW  HW  OW  HW  HW  OW  HW  HW  OW  HW  HW  OW  HW  HW  OW  HW  HW  OW  HW  
HW  OW  HW  HW  OW  HW  HW  OW  HW  HW  OW  HW  HW  OW  HW  HW  OW  HW  HW  OW  
HW  HW  OW  HW  HW  OW  HW  HW  OW  HW  HW  OW  HW  HW  OW  HW  HW  OW  HW  HW  
OW  HW  HW  OW  HW  HW  OW  HW  HW  OW  HW  HW  OW  HW  HW  OW  HW  HW  OW  HW  
HW  OW  HW  HW  OW  HW  HW  OW  HW  HW  OW  HW  HW  OW  HW  HW  OW  HW  HW  OW  
HW  HW  OW  HW  HW  OW  HW  HW  OW  HW  HW  OW  HW  HW  OW  HW  HW  OW  HW  HW  
OW  HW  HW  OW  HW  HW  OW  HW  HW  OW  HW  HW  OW  HW  HW  OW  HW  HW  OW  HW  
HW  OW  HW  HW  OW  HW  HW  OW  HW  HW  OW  HW  HW  OW  HW  HW  OW  HW  HW  OW  
HW  HW  OW  HW  HW  OW  HW  HW  OW  HW  HW  OW  HW  HW  OW  HW  HW  OW  HW  HW  
OW  HW  HW  OW  HW  HW  OW  HW  HW  OW  HW  HW  OW  HW  HW  OW  HW  HW  OW  HW  
HW  OW  HW  HW  OW  HW  HW  OW  HW  HW  OW  HW  HW  OW  HW  HW  OW  HW  HW  OW  
HW  HW  OW  HW  HW  OW  HW  HW  OW  HW  HW  OW  HW  HW  OW  HW  HW  OW  HW  HW  
OW  HW  HW  OW  HW  HW  OW  HW  HW  OW  HW  HW  OW  HW  HW  OW  HW  HW  OW  HW  
HW  OW  HW  HW  OW  HW  HW  OW  HW  HW  OW  HW  HW  OW  HW  HW  OW  HW  HW  OW  
HW  HW  OW  HW  HW  OW  HW  HW  OW  HW  HW  OW  HW  HW  OW  HW  HW  OW  HW  HW  
OW  HW  HW  OW  HW  HW  OW  HW  HW  OW  HW  HW  OW  HW  HW  OW  HW  HW  OW  HW  
HW  OW  HW  HW  OW  HW  HW  OW  HW  HW  OW  HW  HW  OW  HW  HW  OW  HW  HW  OW  
HW  HW  OW  HW  HW  OW  HW  HW  OW  HW  HW  OW  HW  HW  OW  HW  HW  OW  HW  HW  
OW  HW  HW  OW  HW  HW  OW  HW  HW  OW  HW  HW  OW  HW  HW  OW  HW  HW  OW  HW  
HW  OW  HW  HW  OW  HW  HW  OW  HW  HW  OW  HW  HW  OW  HW  HW  OW  HW  HW  OW  
HW  HW  OW  HW  HW  OW  HW  HW  OW  HW  HW  OW  HW  HW  OW  HW  HW  OW  HW  HW  
OW  HW  HW  OW  HW  HW  OW  HW  HW  OW  HW  HW  OW  HW  HW  OW  HW  HW  OW  HW  
HW  OW  HW  HW  OW  HW  HW  OW  HW  HW  OW  HW  HW  OW  HW  HW  OW  HW  HW  OW  
HW  HW  OW  HW  HW  OW  HW  HW  OW  HW  HW  OW  HW  HW  OW  HW  HW  OW  HW  HW  
OW  HW  HW  OW  HW  HW  OW  HW  HW  OW  HW  HW  OW  HW  HW  OW  HW  HW  OW  HW  
HW  OW  HW  HW  OW  HW  HW  OW  HW  HW  OW  HW  HW  OW  HW  HW  OW  HW  HW  OW  
HW  HW  OW  HW  HW  OW  HW  HW  OW  HW  HW  OW  HW  HW  OW  HW  HW  OW  HW  HW  
OW  HW  HW  OW  HW  HW  OW  HW  HW  OW  HW  HW  OW  HW  HW  OW  HW  HW  OW  HW  
HW  OW  HW  HW  OW  HW  HW  OW  HW  HW  OW  HW  HW  OW  HW  HW  OW  HW  HW  OW  
HW  HW  OW  HW  HW  OW  HW  HW  OW  HW  HW  OW  HW  HW  OW  HW  HW  OW  HW  HW  
OW  HW  HW  OW  HW  HW  OW  HW  HW  OW  HW  HW  OW  HW  HW  OW  HW  HW  OW  HW  
HW  OW  HW  HW  OW  HW  HW  OW  HW  HW  OW  HW  HW  OW  HW  HW  OW  HW  HW  OW  
HW  HW  OW  HW  HW  OW  HW  HW  OW  HW  HW  OW  HW  HW  OW  HW  HW  OW  HW  HW  
OW  HW  HW  OW  HW  HW  OW  HW  HW  OW  HW  HW  OW  HW  HW  OW  HW  HW  OW  HW  
HW  OW  HW  HW  OW  HW  HW  OW  HW  HW  OW  HW  HW  OW  HW  HW  OW  HW  HW  OW  
HW  HW  OW  HW  HW  OW  HW  HW  OW  HW  HW  OW  HW  HW  OW  HW  HW  OW  HW  HW  
OW  HW  HW  OW  HW  HW  OW  HW  HW  OW  HW  HW  OW  HW  HW  OW  HW  HW  OW  HW  
HW  OW  HW  HW  OW  HW  HW  OW  HW  HW  OW  HW  HW  OW  HW  HW  OW  HW  HW  OW  
HW  HW  OW  HW  HW  OW  HW  HW  OW  HW  HW  OW  HW  HW  OW  HW  HW  OW  HW  HW  
OW  HW  HW  OW  HW  HW  OW  HW  HW  OW  HW  HW  OW  HW  HW  OW  HW  HW  OW  HW  
HW  OW  HW  HW  OW  HW  HW  OW  HW  HW  OW  HW  HW  OW  HW  HW  OW  HW  HW  OW  
HW  HW  OW  HW  HW  OW  HW  HW  OW  HW  HW  OW  HW  HW  OW  HW  HW  OW  HW  HW  
OW  HW  HW  OW  HW  HW  OW  HW  HW  OW  HW  HW  OW  HW  HW  OW  HW  HW  OW  HW  
HW  OW  HW  HW  OW  HW  HW  OW  HW  HW  OW  HW  HW  OW  HW  HW  OW  HW  HW  OW  
HW  HW  OW  HW  HW  OW  HW  HW  OW  HW  HW  OW  HW  HW  OW  HW  HW  OW  HW  HW  
OW  HW  HW  OW  HW  HW  OW  HW  HW  OW  HW  HW  OW  HW  HW  OW  HW  HW  OW  HW  
HW  OW  HW  HW  OW  HW  HW  OW  HW  HW  OW  HW  HW  OW  HW  HW  OW  HW  HW  OW  
HW  HW  OW  HW  HW  OW  HW  HW  OW  HW  HW  OW  HW  HW  OW  HW  HW  OW  HW  HW  
OW  HW  HW  OW  HW  HW  OW  HW  HW  OW  HW  HW  OW  HW  HW  OW  HW  HW  OW  HW  
HW  OW  HW  HW  OW  HW  HW  OW  HW  HW  OW  HW  HW  OW  HW  HW  OW  HW  HW  OW  
HW  HW  OW  HW  HW  OW  HW  HW  OW  HW  HW  OW  HW  HW  OW  HW  HW  OW  HW  HW  
OW  HW  HW  OW  HW  HW  OW  HW  HW  OW  HW  HW  OW  HW  HW  OW  HW  HW  OW  HW  
HW  OW  HW  HW  OW  HW  HW  OW  HW  HW  OW  HW  HW  OW  HW  HW  OW  HW  HW  OW  
HW  HW  OW  HW  HW  OW  HW  HW  OW  HW  HW  OW  HW  HW  OW  HW  HW  OW  HW  HW  
OW  HW  HW  OW  HW  HW  OW  HW  HW  OW  HW  HW  OW  HW  HW  OW  HW  HW  OW  HW  
HW  OW  HW  HW  OW  HW  HW  OW  HW  HW  OW  HW  HW  OW  HW  HW  OW  HW  HW  OW  
HW  HW  OW  HW  HW  OW  HW  HW  OW  HW  HW  OW  HW  HW  OW  HW  HW  OW  HW  HW  
OW  HW  HW  OW  HW  HW  OW  HW  HW  OW  HW  HW  OW  HW  HW  OW  HW  HW  OW  HW  
HW  OW  HW  HW  OW  HW  HW  OW  HW  HW  OW  HW  HW  OW  HW  HW  OW  HW  HW  OW  
HW  HW  OW  HW  HW  OW  HW  HW  OW  HW  HW  OW  HW  HW  OW  HW  HW  OW  HW  HW  
OW  HW  HW  OW  HW  HW  OW  HW  HW  OW  HW  HW  OW  HW  HW  OW  HW  HW  OW  HW  
HW  OW  HW  HW  OW  HW  HW  OW  HW  HW  OW  HW  HW  OW  HW  HW  OW  HW  HW  OW  
HW  HW  OW  HW  HW  OW  HW  HW  OW  HW  HW  OW  HW  HW  OW  HW  HW  OW  HW  HW  
OW  HW  HW  OW  HW  HW  OW  HW  HW  OW  HW  HW  OW  HW  HW  OW  HW  HW  OW  HW  
HW  OW  HW  HW  OW  HW  HW  OW  HW  HW  OW  HW  HW  OW  HW  HW  OW  HW  HW  OW  
HW  HW  OW  HW  HW  OW  HW  HW  OW  HW  HW  OW  HW  HW  OW  HW  HW  OW  HW  HW  
OW  HW  HW  OW  HW  HW  OW  HW  HW  OW  HW  HW  OW  HW  HW  OW  HW  HW  OW  HW  
HW  OW  HW  HW  OW  HW  HW  OW  HW  HW  OW  HW  HW  OW  HW  HW  OW  HW  HW  OW  
HW  HW  OW  HW  HW  OW  HW  HW  OW  HW  HW  OW  HW  HW  OW  HW  HW  OW  HW  HW  
OW  HW  HW  OW  HW  HW  OW  HW  HW  OW  HW  HW  OW  HW  HW  OW  HW  HW  OW  HW  
HW  OW  HW  HW  OW  HW  HW  OW  HW  HW  OW  HW  HW  OW  HW  HW  OW  HW  HW  OW  
HW  HW  OW  HW  HW  OW  HW  HW  OW  HW  HW  OW  HW  HW  OW  HW  HW  OW  HW  HW  
OW  HW  HW  OW  HW  HW  OW  HW  HW  OW  HW  HW  OW  HW  HW  OW  HW  HW  OW  HW  
HW  OW  HW  HW  OW  HW  HW  OW  HW  HW  OW  HW  HW  OW  HW  HW  OW  HW  HW  OW  
HW  HW  OW  HW  HW  OW  HW  HW  OW  HW  HW  OW  HW  HW  OW  HW  HW  OW  HW  HW  
OW  HW  HW  OW  HW  HW  OW  HW  HW  OW  HW  HW  OW  HW  HW  OW  HW  HW  OW  HW  
HW  OW  HW  HW  OW  HW  HW  OW  HW  HW  OW  HW  HW  OW  HW  HW  OW  HW  HW  OW  
HW  HW  OW  HW  HW  OW  HW  HW  OW  HW  HW  OW  HW  HW  OW  HW  HW  OW  HW  HW  
OW  HW  HW  OW  HW  HW  OW  HW  HW  OW  HW  HW  OW  HW  HW  OW  HW  HW  OW  HW  
HW  OW  HW  HW  OW  HW  HW  OW  HW  HW  OW  HW  HW  OW  HW  HW  OW  HW  HW  OW  
HW  HW  OW  HW  HW  OW  HW  HW  OW  HW  HW  OW  HW  HW  OW  HW  HW  OW  HW  HW  
OW  HW  HW  OW  HW  HW  OW  HW  HW  OW  HW  HW  OW  HW  HW  OW  HW  HW  OW  HW  
HW  OW  HW  HW  OW  HW  HW  OW  HW  HW  OW  HW  HW  OW  HW  HW  OW  HW  HW  OW  
HW  HW  OW  HW  HW  OW  HW  HW  OW  HW  HW  OW  HW  HW  OW  HW  HW  OW  HW  HW  
OW  HW  HW  OW  HW  HW  OW  HW  HW  OW  HW  HW  OW  HW  HW  OW  HW  HW  OW  HW  
HW  OW  HW  HW  OW  HW  HW  OW  HW  HW  OW  HW  HW  OW  HW  HW  OW  HW  HW  OW  
HW  HW  OW  HW  HW  OW  HW  HW  OW  HW  HW  OW  HW  HW  OW  HW  HW  OW  HW  HW  
OW  HW  HW  OW  HW  HW  OW  HW  HW  OW  HW  HW  OW  HW  HW  OW  HW  HW  OW  HW  
HW  OW  HW  HW  OW  HW  HW  OW  HW  HW  OW  HW  HW  OW  HW  HW  OW  HW  HW  OW  
HW  HW  OW  HW  HW  OW  HW  HW  OW  HW  HW  OW  HW  HW  OW  HW  HW  OW  HW  HW  
OW  HW  HW  OW  HW  HW  OW  HW  HW  OW  HW  HW  OW  HW  HW  OW  HW  HW  OW  HW  
HW  OW  HW  HW  OW  HW  HW  OW  HW  HW  OW  HW  HW  OW  HW  HW  OW  HW  HW  OW  
HW  HW  OW  HW  HW  OW  HW  HW  OW  HW  HW  OW  HW  HW  OW  HW  HW  OW  HW  HW  
OW  HW  HW  OW  HW  HW  OW  HW  HW  OW  HW  HW  OW  HW  HW  OW  HW  HW  OW  HW  
HW  OW  HW  HW  OW  HW  HW  OW  HW  HW  OW  HW  HW  OW  HW  HW  OW  HW  HW  OW  
HW  HW  OW  HW  HW  OW  HW  HW  OW  HW  HW  OW  HW  HW  OW  HW  HW  OW  HW  HW  
OW  HW  HW  OW  HW  HW  OW  HW  HW  OW  HW  HW  OW  HW  HW  OW  HW  HW  OW  HW  
HW  OW  HW  HW  OW  HW  HW  OW  HW  HW  OW  HW  HW  OW  HW  HW  OW  HW  HW  OW  
HW  HW  OW  HW  HW  OW  HW  HW  OW  HW  HW  OW  HW  HW  OW  HW  HW  OW  HW  HW  
OW  HW  HW  OW  HW  HW  OW  HW  HW  OW  HW  HW  OW  HW  HW  OW  HW  HW  OW  HW  
HW  OW  HW  HW  OW  HW  HW  OW  HW  HW  OW  HW  HW  OW  HW  HW  OW  HW  HW  OW  
HW  HW  OW  HW  HW  OW  HW  HW  OW  HW  HW  OW  HW  HW  OW  HW  HW  OW  HW  HW  
OW  HW  HW  OW  HW  HW  OW  HW  HW  OW  HW  HW  OW  HW  HW  OW  HW  HW  OW  HW  
HW  OW  HW  HW  OW  HW  HW  OW  HW  HW  OW  HW  HW  OW  HW  HW  OW  HW  HW  OW  
HW  HW  OW  HW  HW  OW  HW  HW  OW  HW  HW  OW  HW  HW  OW  HW  HW  OW  HW  HW  
OW  HW  HW  OW  HW  HW  OW  HW  HW  OW  HW  HW  OW  HW  HW  OW  HW  HW  OW  HW  
HW  OW  HW  HW  OW  HW  HW  OW  HW  HW  OW  HW  HW  OW  HW  HW  OW  HW  HW  OW  
HW  HW  OW  HW  HW  OW  HW  HW  OW  HW  HW  OW  HW  HW  OW  HW  HW  OW  HW  HW  
OW  HW  HW  OW  HW  HW  OW  HW  HW  OW  HW  HW  OW  HW  HW  OW  HW  HW  OW  HW  
HW  OW  HW  HW  OW  HW  HW  OW  HW  HW  OW  HW  HW  OW  HW  HW  OW  HW  HW  OW  
HW  HW  OW  HW  HW  OW  HW  HW  OW  HW  HW  OW  HW  HW  OW  HW  HW  OW  HW  HW  
OW  HW  HW  OW  HW  HW  OW  HW  HW  OW  HW  HW  OW  HW  HW  OW  HW  HW  OW  HW  
HW  OW  HW  HW  OW  HW  HW  OW  HW  HW  OW  HW  HW  OW  HW  HW  OW  HW  HW  OW  
HW  HW  OW  HW  HW  OW  HW  HW  OW  HW  HW  OW  HW  HW  OW  HW  HW  OW  HW  HW  
OW  HW  HW  OW  HW  HW  OW  HW  HW  OW  HW  HW  OW  HW  HW  OW  HW  HW  OW  HW  
HW  OW  HW  HW  OW  HW  HW  OW  HW  HW  OW  HW  HW  OW  HW  HW  OW  HW  HW  OW  
HW  HW  OW  HW  HW  OW  HW  HW  OW  HW  HW  OW  HW  HW  OW  HW  HW  OW  HW  HW  
OW  HW  HW  OW  HW  HW  OW  HW  HW  OW  HW  HW  OW  HW  HW  OW  HW  HW  OW  HW  
HW  OW  HW  HW  OW  HW  HW  OW  HW  HW  OW  HW  HW  OW  HW  HW  OW  HW  HW  OW  
HW  HW  OW  HW  HW  OW  HW  HW  OW  HW  HW  OW  HW  HW  OW  HW  HW  OW  HW  HW  
OW  HW  HW  OW  HW  HW  OW  HW  HW  OW  HW  HW  OW  HW  HW  OW  HW  HW  OW  HW  
HW  OW  HW  HW  OW  HW  HW  OW  HW  HW  OW  HW  HW  OW  HW  HW  OW  HW  HW  OW  
HW  HW  OW  HW  HW  OW  HW  HW  OW  HW  HW  OW  HW  HW  OW  HW  HW  OW  HW  HW  
OW  HW  HW  OW  HW  HW  OW  HW  HW  OW  HW  HW  OW  HW  HW  OW  HW  HW  OW  HW  
HW  OW  HW  HW  OW  HW  HW  OW  HW  HW  OW  HW  HW  OW  HW  HW  OW  HW  HW  OW  
HW  HW  OW  HW  HW  OW  HW  HW  OW  HW  HW  OW  HW  HW  OW  HW  HW  OW  HW  HW  
OW  HW  HW  OW  HW  HW  OW  HW  HW  OW  HW  HW  OW  HW  HW  OW  HW  HW  OW  HW  
HW  OW  HW  HW  OW  HW  HW  OW  HW  HW  OW  HW  HW  OW  HW  HW  OW  HW  HW  OW  
HW  HW  OW  HW  HW  OW  HW  HW  OW  HW  HW  OW  HW  HW  OW  HW  HW  OW  HW  HW  
OW  HW  HW  OW  HW  HW  OW  HW  HW  OW  HW  HW  OW  HW  HW  OW  HW  HW  OW  HW  
HW  OW  HW  HW  OW  HW  HW  OW  HW  HW  OW  HW  HW  OW  HW  HW  OW  HW  HW  OW  
HW  HW  OW  HW  HW  OW  HW  HW  OW  HW  HW  OW  HW  HW  OW  HW  HW  OW  HW  HW  
OW  HW  HW  OW  HW  HW  OW  HW  HW  OW  HW  HW  OW  HW  HW  OW  HW  HW  OW  HW  
HW  OW  HW  HW  OW  HW  HW  OW  HW  HW  OW  HW  HW  OW  HW  HW  OW  HW  HW  OW  
HW  HW  OW  HW  HW  OW  HW  HW  OW  HW  HW  OW  HW  HW  OW  HW  HW  OW  HW  HW  
OW  HW  HW  OW  HW  HW  OW  HW  HW  OW  HW  HW  OW  HW  HW  OW  HW  HW  OW  HW  
HW  OW  HW  HW  OW  HW  HW  OW  HW  HW  OW  HW  HW  OW  HW  HW  OW  HW  HW  OW  
HW  HW  OW  HW  HW  OW  HW  HW  OW  HW  HW  OW  HW  HW  OW  HW  HW  OW  HW  HW  
OW  HW  HW  OW  HW  HW  OW  HW  HW  OW  HW  HW  OW  HW  HW  OW  HW  HW  OW  HW  
HW  OW  HW  HW  OW  HW  HW  OW  HW  HW  OW  HW  HW  OW  HW  HW  OW  HW  HW  OW  
HW  HW  OW  HW  HW  OW  HW  HW  OW  HW  HW  OW  HW  HW  OW  HW  HW  OW  HW  HW  
OW  HW  HW  OW  HW  HW  OW  HW  HW  OW  HW  HW  OW  HW  HW  OW  HW  HW  OW  HW  
HW  OW  HW  HW  OW  HW  HW  OW  HW  HW  OW  HW  HW  OW  HW  HW  OW  HW  HW  OW  
HW  HW  OW  HW  HW  OW  HW  HW  OW  HW  HW  OW  HW  HW  OW  HW  HW  OW  HW  HW  
OW  HW  HW  OW  HW  HW  OW  HW  HW  OW  HW  HW  OW  HW  HW  OW  HW  HW  OW  HW  
HW  OW  HW  HW  OW  HW  HW  OW  HW  HW  OW  HW  HW  OW  HW  HW  OW  HW  HW  OW  
HW  HW  OW  HW  HW  OW  HW  HW  OW  HW  HW  OW  HW  HW  OW  HW  HW  OW  HW  HW  
OW  HW  HW  OW  HW  HW  OW  HW  HW  OW  HW  HW  OW  HW  HW  OW  HW  HW  OW  HW  
HW  OW  HW  HW  OW  HW  HW  OW  HW  HW  OW  HW  HW  OW  HW  HW  OW  HW  HW  OW  
HW  HW  OW  HW  HW  OW  HW  HW  OW  HW  HW  OW  HW  HW  OW  HW  HW  OW  HW  HW  
OW  HW  HW  OW  HW  HW  OW  HW  HW  OW  HW  HW  OW  HW  HW  OW  HW  HW  OW  HW  
HW  OW  HW  HW  OW  HW  HW  OW  HW  HW  OW  HW  HW  OW  HW  HW  OW  HW  HW  OW  
HW  HW  OW  HW  HW  OW  HW  HW  OW  HW  HW  OW  HW  HW  OW  HW  HW  OW  HW  HW  
OW  HW  HW  OW  HW  HW  OW  HW  HW  OW  HW  HW  OW  HW  HW  OW  HW  HW  OW  HW  
HW  OW  HW  HW  OW  HW  HW  OW  HW  HW  OW  HW  HW  OW  HW  HW  OW  HW  HW  OW  
HW  HW  OW  HW  HW  OW  HW  HW  OW  HW  HW  OW  HW  HW  OW  HW  HW  OW  HW  HW  
OW  HW  HW  OW  HW  HW  OW  HW  HW  OW  HW  HW  OW  HW  HW  OW  HW  HW  OW  HW  
HW  OW  HW  HW  OW  HW  HW  OW  HW  HW  OW  HW  HW  OW  HW  HW  OW  HW  HW  OW  
HW  HW  OW  HW  HW  OW  HW  HW  OW  HW  HW  OW  HW  HW  OW  HW  HW  OW  HW  HW  
OW  HW  HW  OW  HW  HW  OW  HW  HW  OW  HW  HW  OW  HW  HW  OW  HW  HW  OW  HW  
HW  OW  HW  HW  OW  HW  HW  OW  HW  HW  OW  HW  HW  OW  HW  HW  OW  HW  HW  OW  
HW  HW  OW  HW  HW  OW  HW  HW  OW  HW  HW  OW  HW  HW  OW  HW  HW  OW  HW  HW  
OW  HW  HW  OW  HW  HW  OW  HW  HW  OW  HW  HW  OW  HW  HW  OW  HW  HW  OW  HW  
HW  OW  HW  HW  OW  HW  HW  OW  HW  HW  OW  HW  HW  OW  HW  HW  OW  HW  HW  OW  
HW  HW  OW  HW  HW  OW  HW  HW  OW  HW  HW  OW  HW  HW  OW  HW  HW  OW  HW  HW  
OW  HW  HW  OW  HW  HW  OW  HW  HW  OW  HW  HW  OW  HW  HW  OW  HW  HW  OW  HW  
HW  OW  HW  HW  OW  HW  HW  OW  HW  HW  OW  HW  HW  OW  HW  HW  OW  HW  HW  OW  
HW  HW  OW  HW  HW  OW  HW  HW  OW  HW  HW  OW  HW  HW  OW  HW  HW  OW  HW  HW  
OW  HW  HW  OW  HW  HW  OW  HW  HW  OW  HW  HW  OW  HW  HW  OW  HW  HW  OW  HW  
HW  OW  HW  HW  OW  HW  HW  OW  HW  HW  OW  HW  HW  OW  HW  HW  OW  HW  HW  OW  
HW  HW  OW  HW  HW  OW  HW  HW  OW  HW  HW  OW  HW  HW  OW  HW  HW  OW  HW  HW  
OW  HW  HW  OW  HW  HW  OW  HW  HW  OW  HW  HW  OW  HW  HW  OW  HW  HW  OW  HW  
HW  OW  HW  HW  OW  HW  HW  OW  HW  HW  OW  HW  HW  OW  HW  HW  OW  HW  HW  OW  
HW  HW  OW  HW  HW  OW  HW  HW  OW  HW  HW  OW  HW  HW  OW  HW  HW  OW  HW  HW  
OW  HW  HW  OW  HW  HW  OW  HW  HW  OW  HW  HW  OW  HW  HW  OW  HW  HW  OW  HW  
HW  OW  HW  HW  OW  HW  HW  OW  HW  HW  OW  HW  HW  OW  HW  HW  OW  HW  HW  OW  
HW  HW  OW  HW  HW  OW  HW  HW  OW  HW  HW  OW  HW  HW  OW  HW  HW  OW  HW  HW  
OW  HW  HW  OW  HW  HW  OW  HW  HW  OW  HW  HW  OW  HW  HW  OW  HW  HW  OW  HW  
HW  OW  HW  HW  OW  HW  HW  OW  HW  HW  OW  HW  HW  OW  HW  HW  OW  HW  HW  OW  
HW  HW  OW  HW  HW  OW  HW  HW  OW  HW  HW  OW  HW  HW  OW  HW  HW  OW  HW  HW  
OW  HW  HW  OW  HW  HW  OW  HW  HW  OW  HW  HW  OW  HW  HW  OW  HW  HW  OW  HW  
HW  OW  HW  HW  OW  HW  HW  OW  HW  HW  OW  HW  HW  OW  HW  HW  OW  HW  HW  OW  
HW  HW  OW  HW  HW  OW  HW  HW  OW  HW  HW  OW  HW  HW  OW  HW  HW  OW  HW  HW  
OW  HW  HW  OW  HW  HW  OW  HW  HW  OW  HW  HW  OW  HW  HW  OW  HW  HW  OW  HW  
HW  OW  HW  HW  OW  HW  HW  OW  HW  HW  OW  HW  HW  OW  HW  HW  OW  HW  HW  OW  
HW  HW  OW  HW  HW  OW  HW  HW  OW  HW  HW  OW  HW  HW  OW  HW  HW  OW  HW  HW  
OW  HW  HW  OW  HW  HW  OW  HW  HW  OW  HW  HW  OW  HW  HW  OW  HW  HW  OW  HW  
HW  OW  HW  HW  OW  HW  HW  OW  HW  HW  OW  HW  HW  OW  HW  HW  OW  HW  HW  OW  
HW  HW  OW  HW  HW  OW  HW  HW  OW  HW  HW  OW  HW  HW  OW  HW  HW  OW  HW  HW  
OW  HW  HW  OW  HW  HW  OW  HW  HW  OW  HW  HW  OW  HW  HW  OW  HW  HW  OW  HW  
HW  OW  HW  HW  OW  HW  HW  OW  HW  HW  OW  HW  HW  OW  HW  HW  OW  HW  HW  OW  
HW  HW  OW  HW  HW  OW  HW  HW  OW  HW  HW  OW  HW  HW  OW  HW  HW  OW  HW  HW  
OW  HW  HW  OW  HW  HW  OW  HW  HW  OW  HW  HW  OW  HW  HW  OW  HW  HW  OW  HW  
HW  OW  HW  HW  OW  HW  HW  OW  HW  HW  OW  HW  HW  OW  HW  HW  OW  HW  HW  OW  
HW  HW  OW  HW  HW  OW  HW  HW  OW  HW  HW  OW  HW  HW  OW  HW  HW  OW  HW  HW  
OW  HW  HW  OW  HW  HW  OW  HW  HW  OW  HW  HW  OW  HW  HW  OW  HW  HW  OW  HW  
HW  OW  HW  HW  OW  HW  HW  OW  HW  HW  OW  HW  HW  OW  HW  HW  OW  HW  HW  OW  
HW  HW  OW  HW  HW  OW  HW  HW  OW  HW  HW  OW  HW  HW  OW  HW  HW  OW  HW  HW  
OW  HW  HW  OW  HW  HW  OW  HW  HW  OW  HW  HW  OW  HW  HW  OW  HW  HW  OW  HW  
HW  OW  HW  HW  OW  HW  HW  OW  HW  HW  OW  HW  HW  OW  HW  HW  OW  HW  HW  OW  
HW  HW  OW  HW  HW  OW  HW  HW  OW  HW  HW  OW  HW  HW  OW  HW  HW  OW  HW  HW  
OW  HW  HW  OW  HW  HW  OW  HW  HW  OW  HW  HW  OW  HW  HW  OW  HW  HW  OW  HW  
HW  OW  HW  HW  OW  HW  HW  OW  HW  HW  OW  HW  HW  OW  HW  HW  OW  HW  HW  OW  
HW  HW  OW  HW  HW  OW  HW  HW  OW  HW  HW  OW  HW  HW  OW  HW  HW  OW  HW  HW  
OW  HW  HW  OW  HW  HW  OW  HW  HW  OW  HW  HW  OW  HW  HW  OW  HW  HW  OW  HW  
HW  OW  HW  HW  OW  HW  HW  OW  HW  HW  OW  HW  HW  OW  HW  HW  OW  HW  HW  OW  
HW  HW  OW  HW  HW  OW  HW  HW  OW  HW  HW  OW  HW  HW  OW  HW  HW  OW  HW  HW  
OW  HW  HW  OW  HW  HW  OW  HW  HW  OW  HW  HW  OW  HW  HW  OW  HW  HW  OW  HW  
HW  OW  HW  HW  OW  HW  HW  OW  HW  HW  OW  HW  HW  OW  HW  HW  OW  HW  HW  OW  
HW  HW  OW  HW  HW  OW  HW  HW  OW  HW  HW  OW  HW  HW  OW  HW  HW  OW  HW  HW  
OW  HW  HW  OW  HW  HW  OW  HW  HW  OW  HW  HW  OW  HW  HW  OW  HW  HW  OW  HW  
HW  OW  HW  HW  OW  HW  HW  OW  HW  HW  OW  HW  HW  OW  HW  HW  OW  HW  HW  OW  
HW  HW  OW  HW  HW  OW  HW  HW  OW  HW  HW  OW  HW  HW  OW  HW  HW  OW  HW  HW  
OW  HW  HW  OW  HW  HW  OW  HW  HW  OW  HW  HW  OW  HW  HW  OW  HW  HW  OW  HW  
HW  OW  HW  HW  OW  HW  HW  OW  HW  HW  OW  HW  HW  OW  HW  HW  OW  HW  HW  OW  
HW  HW  OW  HW  HW  OW  HW  HW  OW  HW  HW  OW  HW  HW  OW  HW  HW  OW  HW  HW  
OW  HW  HW  OW  HW  HW  OW  HW  HW  OW  HW  HW  OW  HW  HW  OW  HW  HW  OW  HW  
HW  OW  HW  HW  OW  HW  HW  OW  HW  HW  OW  HW  HW  OW  HW  HW  OW  HW  HW  OW  
HW  HW  OW  HW  HW  OW  HW  HW  OW  HW  HW  OW  HW  HW  OW  HW  HW  OW  HW  HW  
OW  HW  HW  OW  HW  HW  OW  HW  HW  OW  HW  HW  OW  HW  HW  OW  HW  HW  OW  HW  
HW  OW  HW  HW  OW  HW  HW  OW  HW  HW  OW  HW  HW  OW  HW  HW  OW  HW  HW  OW  
HW  HW  OW  HW  HW  OW  HW  HW  OW  HW  HW  OW  HW  HW  OW  HW  HW  OW  HW  HW  
OW  HW  HW  OW  HW  HW  OW  HW  HW  OW  HW  HW  OW  HW  HW  OW  HW  HW  OW  HW  
HW  OW  HW  HW  OW  HW  HW  OW  HW  HW  OW  HW  HW  OW  HW  HW  OW  HW  HW  OW  
HW  HW  OW  HW  HW  OW  HW  HW  OW  HW  HW  OW  HW  HW  OW  HW  HW  OW  HW  HW  
OW  HW  HW  OW  HW  HW  OW  HW  HW  OW  HW  HW  OW  HW  HW  OW  HW  HW  OW  HW  
HW  OW  HW  HW  OW  HW  HW  OW  HW  HW  OW  HW  HW  OW  HW  HW  OW  HW  HW  OW  
HW  HW  OW  HW  HW  OW  HW  HW  OW  HW  HW  OW  HW  HW  OW  HW  HW  OW  HW  HW  
OW  HW  HW  OW  HW  HW  OW  HW  HW  OW  HW  HW  OW  HW  HW  OW  HW  HW  OW  HW  
HW  OW  HW  HW  OW  HW  HW  OW  HW  HW  OW  HW  HW  OW  HW  HW  OW  HW  HW  OW  
HW  HW  OW  HW  HW  OW  HW  HW  OW  HW  HW  OW  HW  HW  OW  HW  HW  OW  HW  HW  
OW  HW  HW  OW  HW  HW  OW  HW  HW  OW  HW  HW  OW  HW  HW  OW  HW  HW  OW  HW  
HW  OW  HW  HW  OW  HW  HW  OW  HW  HW  OW  HW  HW  OW  HW  HW  OW  HW  HW  OW  
HW  HW  OW  HW  HW  OW  HW  HW  OW  HW  HW  OW  HW  HW  OW  HW  HW  OW  HW  HW  
OW  HW  HW  OW  HW  HW  OW  HW  HW  OW  HW  HW  OW  HW  HW  OW  HW  HW  OW  HW  
HW  OW  HW  HW  OW  HW  HW  OW  HW  HW  OW  HW  HW  OW  HW  HW  OW  HW  HW  OW  
HW  HW  OW  HW  HW  OW  HW  HW  OW  HW  HW  OW  HW  HW  OW  HW  HW  OW  HW  HW  
OW  HW  HW  OW  HW  HW  OW  HW  HW  OW  HW  HW  OW  HW  HW  OW  HW  HW  OW  HW  
HW  OW  HW  HW  OW  HW  HW  OW  HW  HW  OW  HW  HW  OW  HW  HW  OW  HW  HW  OW  
HW  HW  OW  HW  HW  OW  HW  HW  OW  HW  HW  OW  HW  HW  OW  HW  HW  OW  HW  HW  
OW  HW  HW  OW  HW  HW  OW  HW  HW  OW  HW  HW  OW  HW  HW  OW  HW  HW  OW  HW  
HW  OW  HW  HW  OW  HW  HW  OW  HW  HW  OW  HW  HW  OW  HW  HW  OW  HW  HW  OW  
HW  HW  OW  HW  HW  OW  HW  HW  OW  HW  HW  OW  HW  HW  OW  HW  HW  OW  HW  HW  
OW  HW  HW  OW  HW  HW  OW  HW  HW  OW  HW  HW  OW  HW  HW  OW  HW  HW  OW  HW  
HW  OW  HW  HW  OW  HW  HW  OW  HW  HW  OW  HW  HW  OW  HW  HW  OW  HW  HW  OW  
HW  HW  OW  HW  HW  OW  HW  HW  OW  HW  HW  OW  HW  HW  OW  HW  HW  OW  HW  HW  
OW  HW  HW  OW  HW  HW  OW  HW  HW  OW  HW  HW  OW  HW  HW  OW  HW  HW  OW  HW  
HW  OW  HW  HW  OW  HW  HW  OW  HW  HW  OW  HW  HW  OW  HW  HW  OW  HW  HW  OW  
HW  HW  OW  HW  HW  OW  HW  HW  OW  HW  HW  OW  HW  HW  OW  HW  HW  OW  HW  HW  
OW  HW  HW  OW  HW  HW  OW  HW  HW  OW  HW  HW  OW  HW  HW  OW  HW  HW  OW  HW  
HW  OW  HW  HW  OW  HW  HW  OW  HW  HW  OW  HW  HW  OW  HW  HW  OW  HW  HW  OW  
HW  HW  OW  HW  HW  OW  HW  HW  OW  HW  HW  OW  HW  HW  OW  HW  HW  OW  HW  HW  
OW  HW  HW  OW  HW  HW  OW  HW  HW  OW  HW  HW  OW  HW  HW  OW  HW  HW  OW  HW  
HW  OW  HW  HW  OW  HW  HW  OW  HW  HW  OW  HW  HW  OW  HW  HW  OW  HW  HW  OW  
HW  HW  OW  HW  HW  OW  HW  HW  OW  HW  HW  OW  HW  HW  OW  HW  HW  OW  HW  HW  
OW  HW  HW  OW  HW  HW  OW  HW  HW  OW  HW  HW  OW  HW  HW  OW  HW  HW  OW  HW  
HW  OW  HW  HW  OW  HW  HW  OW  HW  HW  OW  HW  HW  OW  HW  HW  OW  HW  HW  OW  
HW  HW  OW  HW  HW  OW  HW  HW  OW  HW  HW  OW  HW  HW  OW  HW  HW  OW  HW  HW  
OW  HW  HW  OW  HW  HW  OW  HW  HW  OW  HW  HW  OW  HW  HW  OW  HW  HW  OW  HW  
HW  OW  HW  HW  OW  HW  HW  OW  HW  HW  OW  HW  HW  OW  HW  HW  OW  HW  HW  OW  
HW  HW  OW  HW  HW  OW  HW  HW  OW  HW  HW  OW  HW  HW  OW  HW  HW  OW  HW  HW  
OW  HW  HW  OW  HW  HW  OW  HW  HW  OW  HW  HW  OW  HW  HW  OW  HW  HW  OW  HW  
HW  OW  HW  HW  OW  HW  HW  OW  HW  HW  OW  HW  HW  OW  HW  HW  OW  HW  HW  OW  
HW  HW  OW  HW  HW  OW  HW  HW  OW  HW  HW  OW  HW  HW  OW  HW  HW  OW  HW  HW  
OW  HW  HW  OW  HW  HW  OW  HW  HW  OW  HW  HW  OW  HW  HW  OW  HW  HW  OW  HW  
HW  OW  HW  HW  OW  HW  HW  OW  HW  HW  OW  HW  HW  OW  HW  HW  OW  HW  HW  OW  
HW  HW  OW  HW  HW  OW  HW  HW  OW  HW  HW  OW  HW  HW  OW  HW  HW  OW  HW  HW  
OW  HW  HW  OW  HW  HW  OW  HW  HW  OW  HW  HW  OW  HW  HW  OW  HW  HW  OW  HW  
HW  OW  HW  HW  OW  HW  HW  OW  HW  HW  OW  HW  HW  OW  HW  HW  OW  HW  HW  OW  
HW  HW  OW  HW  HW  OW  HW  HW  OW  HW  HW  OW  HW  HW  OW  HW  HW  OW  HW  HW  
OW  HW  HW  OW  HW  HW  OW  HW  HW  OW  HW  HW  OW  HW  HW  OW  HW  HW  OW  HW  
HW  OW  HW  HW  OW  HW  HW  OW  HW  HW  OW  HW  HW  OW  HW  HW  OW  HW  HW  OW  
HW  HW  OW  HW  HW  OW  HW  HW  OW  HW  HW  OW  HW  HW  OW  HW  HW  OW  HW  HW  
OW  HW  HW  OW  HW  HW  OW  HW  HW  OW  HW  HW  OW  HW  HW  OW  HW  HW  OW  HW  
HW  OW  HW  HW  OW  HW  HW  OW  HW  HW  OW  HW  HW  OW  HW  HW  OW  HW  HW  OW  
HW  HW  OW  HW  HW  OW  HW  HW  OW  HW  HW  OW  HW  HW  OW  HW  HW  OW  HW  HW  
OW  HW  HW  OW  HW  HW  OW  HW  HW  OW  HW  HW  OW  HW  HW  OW  HW  HW  OW  HW  
HW  OW  HW  HW  OW  HW  HW  OW  HW  HW  OW  HW  HW  OW  HW  HW  OW  HW  HW  OW  
HW  HW  OW  HW  HW  OW  HW  HW  OW  HW  HW  OW  HW  HW  OW  HW  HW  OW  HW  HW  
OW  HW  HW  OW  HW  HW  OW  HW  HW  OW  HW  HW  OW  HW  HW  OW  HW  HW  OW  HW  
HW  OW  HW  HW  OW  HW  HW  OW  HW  HW  OW  HW  HW  OW  HW  HW  OW  HW  HW  OW  
HW  HW  OW  HW  HW  OW  HW  HW  OW  HW  HW  OW  HW  HW  OW  HW  HW  OW  HW  HW  
OW  HW  HW  OW  HW  HW  OW  HW  HW  OW  HW  HW  OW  HW  HW  OW  HW  HW  OW  HW  
HW  OW  HW  HW  OW  HW  HW  OW  HW  HW  OW  HW  HW  OW  HW  HW  OW  HW  HW  OW  
HW  HW  OW  HW  HW  OW  HW  HW  OW  HW  HW  OW  HW  HW  OW  HW  HW  OW  HW  HW  
OW  HW  HW  OW  HW  HW  OW  HW  HW  OW  HW  HW  OW  HW  HW  OW  HW  HW  OW  HW  
HW  OW  HW  HW  OW  HW  HW  OW  HW  HW  OW  HW  HW  OW  HW  HW  OW  HW  HW  OW  
HW  HW  OW  HW  HW  OW  HW  HW  OW  HW  HW  OW  HW  HW  OW  HW  HW  OW  HW  HW  
OW  HW  HW  OW  HW  HW  OW  HW  HW  OW  HW  HW  OW  HW  HW  OW  HW  HW  OW  HW  
HW  OW  HW  HW  OW  HW  HW  OW  HW  HW  OW  HW  HW  OW  HW  HW  OW  HW  HW  OW  
HW  HW  OW  HW  HW  OW  HW  HW  OW  HW  HW  OW  HW  HW  OW  HW  HW  OW  HW  HW  
OW  HW  HW  OW  HW  HW  OW  HW  HW  OW  HW  HW  OW  HW  HW  OW  HW  HW  OW  HW  
HW  OW  HW  HW  OW  HW  HW  OW  HW  HW  OW  HW  HW  OW  HW  HW  OW  HW  HW  OW  
HW  HW  OW  HW  HW  OW  HW  HW  OW  HW  HW  OW  HW  HW  OW  HW  HW  OW  HW  HW  
OW  HW  HW  OW  HW  HW  OW  HW  HW  OW  HW  HW  OW  HW  HW  OW  HW  HW  OW  HW  
HW  OW  HW  HW  OW  HW  HW  OW  HW  HW  OW  HW  HW  OW  HW  HW  OW  HW  HW  OW  
HW  HW  OW  HW  HW  OW  HW  HW  OW  HW  HW  OW  HW  HW  OW  HW  HW  OW  HW  HW  
OW  HW  HW  OW  HW  HW  OW  HW  HW  OW  HW  HW  OW  HW  HW  OW  HW  HW  OW  HW  
HW  OW  HW  HW  OW  HW  HW  OW  HW  HW  OW  HW  HW  OW  HW  HW  OW  HW  HW  OW  
HW  HW  OW  HW  HW  OW  HW  HW  OW  HW  HW  OW  HW  HW  OW  HW  HW  OW  HW  HW  
OW  HW  HW  OW  HW  HW  OW  HW  HW  OW  HW  HW  OW  HW  HW  OW  HW  HW  OW  HW  
HW  OW  HW  HW  OW  HW  HW  OW  HW  HW  OW  HW  HW  OW  HW  HW  OW  HW  HW  OW  
HW  HW  OW  HW  HW  OW  HW  HW  OW  HW  HW  OW  HW  HW  OW  HW  HW  OW  HW  HW  
OW  HW  HW  OW  HW  HW  OW  HW  HW  OW  HW  HW  OW  HW  HW  OW  HW  HW  OW  HW  
HW  OW  HW  HW  OW  HW  HW  OW  HW  HW  OW  HW  HW  OW  HW  HW  OW  HW  HW  OW  
HW  HW  OW  HW  HW  OW  HW  HW  OW  HW  HW  OW  HW  HW  OW  HW  HW  OW  HW  HW  
OW  HW  HW  OW  HW  HW  OW  HW  HW  OW  HW  HW  OW  HW  HW  OW  HW  HW  OW  HW  
HW  OW  HW  HW  OW  HW  HW  OW  HW  HW  OW  HW  HW  OW  HW  HW  OW  HW  HW  OW  
HW  HW  OW  HW  HW  OW  HW  HW  OW  HW  HW  OW  HW  HW  OW  HW  HW  OW  HW  HW  
OW  HW  HW  OW  HW  HW  OW  HW  HW  OW  HW  HW  OW  HW  HW  OW  HW  HW  OW  HW  
HW  OW  HW  HW  OW  HW  HW  OW  HW  HW  OW  HW  HW  OW  HW  HW  OW  HW  HW  OW  
HW  HW  OW  HW  HW  OW  HW  HW  OW  HW  HW  OW  HW  HW  OW  HW  HW  OW  HW  HW  
OW  HW  HW  OW  HW  HW  OW  HW  HW  OW  HW  HW  OW  HW  HW  OW  HW  HW  OW  HW  
HW  OW  HW  HW  OW  HW  HW  OW  HW  HW  OW  HW  HW  OW  HW  HW  OW  HW  HW  OW  
HW  HW  OW  HW  HW  OW  HW  HW  OW  HW  HW  OW  HW  HW  OW  HW  HW  OW  HW  HW  
OW  HW  HW  OW  HW  HW  OW  HW  HW  OW  HW  HW  OW  HW  HW  OW  HW  HW  OW  HW  
HW  OW  HW  HW  OW  HW  HW  OW  HW  HW  OW  HW  HW  OW  HW  HW  OW  HW  HW  OW  
HW  HW  OW  HW  HW  OW  HW  HW  OW  HW  HW  OW  HW  HW  OW  HW  HW  OW  HW  HW  
OW  HW  HW  OW  HW  HW  OW  HW  HW  OW  HW  HW  OW  HW  HW  OW  HW  HW  OW  HW  
HW  OW  HW  HW  OW  HW  HW  OW  HW  HW  OW  HW  HW  OW  HW  HW  OW  HW  HW  OW  
HW  HW  OW  HW  HW  OW  HW  HW  OW  HW  HW  OW  HW  HW  OW  HW  HW  OW  HW  HW  
OW  HW  HW  OW  HW  HW  OW  HW  HW  OW  HW  HW  OW  HW  HW  OW  HW  HW  OW  HW  
HW  OW  HW  HW  OW  HW  HW  OW  HW  HW  OW  HW  HW  OW  HW  HW  OW  HW  HW  OW  
HW  HW  OW  HW  HW  OW  HW  HW  OW  HW  HW  OW  HW  HW  OW  HW  HW  OW  HW  HW  
OW  HW  HW  OW  HW  HW  OW  HW  HW  OW  HW  HW  OW  HW  HW  OW  HW  HW  OW  HW  
HW  OW  HW  HW  OW  HW  HW  OW  HW  HW  OW  HW  HW  OW  HW  HW  OW  HW  HW  OW  
HW  HW  OW  HW  HW  OW  HW  HW  OW  HW  HW  OW  HW  HW  OW  HW  HW  OW  HW  HW  
OW  HW  HW  OW  HW  HW  OW  HW  HW  OW  HW  HW  OW  HW  HW  OW  HW  HW  OW  HW  
HW  OW  HW  HW  OW  HW  HW  OW  HW  HW  OW  HW  HW  OW  HW  HW  OW  HW  HW  OW  
HW  HW  OW  HW  HW  OW  HW  HW  OW  HW  HW  OW  HW  HW  OW  HW  HW  OW  HW  HW  
OW  HW  HW  OW  HW  HW  OW  HW  HW  OW  HW  HW  OW  HW  HW  OW  HW  HW  OW  HW  
HW  OW  HW  HW  OW  HW  HW  OW  HW  HW  OW  HW  HW  OW  HW  HW  OW  HW  HW  OW  
HW  HW  OW  HW  HW  OW  HW  HW  OW  HW  HW  OW  HW  HW  OW  HW  HW  OW  HW  HW  
OW  HW  HW  OW  HW  HW  OW  HW  HW  OW  HW  HW  OW  HW  HW  OW  HW  HW  OW  HW  
HW  OW  HW  HW  OW  HW  HW  OW  HW  HW  OW  HW  HW  OW  HW  HW  OW  HW  HW  OW  
HW  HW  OW  HW  HW  OW  HW  HW  OW  HW  HW  OW  HW  HW  OW  HW  HW  OW  HW  HW  
OW  HW  HW  OW  HW  HW  OW  HW  HW  OW  HW  HW  OW  HW  HW  OW  HW  HW  OW  HW  
HW  OW  HW  HW  OW  HW  HW  OW  HW  HW  OW  HW  HW  OW  HW  HW  OW  HW  HW  OW  
HW  HW  OW  HW  HW  OW  HW  HW  OW  HW  HW  OW  HW  HW  OW  HW  HW  OW  HW  HW  
OW  HW  HW  OW  HW  HW  OW  HW  HW  OW  HW  HW  OW  HW  HW  OW  HW  HW  OW  HW  
HW  OW  HW  HW  OW  HW  HW  OW  HW  HW  OW  HW  HW  OW  HW  HW  OW  HW  HW  OW  
HW  HW  OW  HW  HW  OW  HW  HW  OW  HW  HW  OW  HW  HW  OW  HW  HW  OW  HW  HW  
OW  HW  HW  OW  HW  HW  OW  HW  HW  OW  HW  HW  OW  HW  HW  OW  HW  HW  OW  HW  
HW  OW  HW  HW  OW  HW  HW  OW  HW  HW  OW  HW  HW  OW  HW  HW  OW  HW  HW  OW  
HW  HW  OW  HW  HW  OW  HW  HW  OW  HW  HW  OW  HW  HW  OW  HW  HW  OW  HW  HW  
OW  HW  HW  OW  HW  HW  OW  HW  HW  OW  HW  HW  OW  HW  HW  OW  HW  HW  OW  HW  
HW  OW  HW  HW  OW  HW  HW  OW  HW  HW  OW  HW  HW  OW  HW  HW  OW  HW  HW  OW  
HW  HW  OW  HW  HW  OW  HW  HW  OW  HW  HW  OW  HW  HW  OW  HW  HW  OW  HW  HW  
OW  HW  HW  OW  HW  HW  OW  HW  HW  OW  HW  HW  OW  HW  HW  OW  HW  HW  OW  HW  
HW  OW  HW  HW  OW  HW  HW  OW  HW  HW  OW  HW  HW  OW  HW  HW  OW  HW  HW  OW  
HW  HW  OW  HW  HW  OW  HW  HW  OW  HW  HW  OW  HW  HW  OW  HW  HW  OW  HW  HW  
OW  HW  HW  OW  HW  HW  OW  HW  HW  OW  HW  HW  OW  HW  HW  OW  HW  HW  OW  HW  
HW  OW  HW  HW  OW  HW  HW  OW  HW  HW  OW  HW  HW  OW  HW  HW  OW  HW  HW  OW  
HW  HW  OW  HW  HW  OW  HW  HW  OW  HW  HW  OW  HW  HW  OW  HW  HW  OW  HW  HW  
OW  HW  HW  OW  HW  HW  OW  HW  HW  OW  HW  HW  OW  HW  HW  OW  HW  HW  OW  HW  
HW  OW  HW  HW  OW  HW  HW  OW  HW  HW  OW  HW  HW  OW  HW  HW  OW  HW  HW  OW  
HW  HW  OW  HW  HW  OW  HW  HW  OW  HW  HW  OW  HW  HW  OW  HW  HW  OW  HW  HW  
OW  HW  HW  OW  HW  HW  OW  HW  HW  OW  HW  HW  OW  HW  HW  OW  HW  HW  OW  HW  
HW  OW  HW  HW  OW  HW  HW  OW  HW  HW  OW  HW  HW  OW  HW  HW  OW  HW  HW  OW  
HW  HW  OW  HW  HW  OW  HW  HW  OW  HW  HW  OW  HW  HW  OW  HW  HW  OW  HW  HW  
OW  HW  HW  OW  HW  HW  OW  HW  HW  OW  HW  HW  OW  HW  HW  OW  HW  HW  OW  HW  
HW  OW  HW  HW  OW  HW  HW  OW  HW  HW  OW  HW  HW  OW  HW  HW  OW  HW  HW  OW  
HW  HW  OW  HW  HW  OW  HW  HW  OW  HW  HW  OW  HW  HW  OW  HW  HW  OW  HW  HW  
OW  HW  HW  OW  HW  HW  OW  HW  HW  OW  HW  HW  OW  HW  HW  OW  HW  HW  OW  HW  
HW  OW  HW  HW  OW  HW  HW  OW  HW  HW  OW  HW  HW  OW  HW  HW  OW  HW  HW  OW  
HW  HW  OW  HW  HW  OW  HW  HW  OW  HW  HW  OW  HW  HW  OW  HW  HW  OW  HW  HW  
OW  HW  HW  OW  HW  HW  OW  HW  HW  OW  HW  HW  OW  HW  HW  OW  HW  HW  OW  HW  
HW  OW  HW  HW  OW  HW  HW  OW  HW  HW  OW  HW  HW  OW  HW  HW  OW  HW  HW  OW  
HW  HW  OW  HW  HW  OW  HW  HW  OW  HW  HW  OW  HW  HW  OW  HW  HW  OW  HW  HW  
OW  HW  HW  OW  HW  HW  OW  HW  HW  OW  HW  HW  OW  HW  HW  OW  HW  HW  OW  HW  
HW  OW  HW  HW  OW  HW  HW  OW  HW  HW  OW  HW  HW  OW  HW  HW  OW  HW  HW  OW  
HW  HW  OW  HW  HW  OW  HW  HW  OW  HW  HW  OW  HW  HW  OW  HW  HW  OW  HW  HW  
OW  HW  HW  OW  HW  HW  OW  HW  HW  OW  HW  HW  OW  HW  HW  OW  HW  HW  OW  HW  
HW  OW  HW  HW  OW  HW  HW  OW  HW  HW  OW  HW  HW  OW  HW  HW  OW  HW  HW  OW  
HW  HW  OW  HW  HW  OW  HW  HW  OW  HW  HW  OW  HW  HW  OW  HW  HW  OW  HW  HW  
OW  HW  HW  OW  HW  HW  OW  HW  HW  OW  HW  HW  OW  HW  HW  OW  HW  HW  OW  HW  
HW  OW  HW  HW  OW  HW  HW  OW  HW  HW  OW  HW  HW  OW  HW  HW  OW  HW  HW  OW  
HW  HW  OW  HW  HW  OW  HW  HW  OW  HW  HW  OW  HW  HW  OW  HW  HW  OW  HW  HW  
OW  HW  HW  OW  HW  HW  OW  HW  HW  OW  HW  HW  OW  HW  HW  OW  HW  HW  OW  HW  
HW  OW  HW  HW  OW  HW  HW  OW  HW  HW  OW  HW  HW  OW  HW  HW  OW  HW  HW  OW  
HW  HW  OW  HW  HW  OW  HW  HW  OW  HW  HW  OW  HW  HW  OW  HW  HW  OW  HW  HW  
OW  HW  HW  OW  HW  HW  OW  HW  HW  OW  HW  HW  OW  HW  HW  OW  HW  HW  OW  HW  
HW  OW  HW  HW  OW  HW  HW  OW  HW  HW  OW  HW  HW  OW  HW  HW  OW  HW  HW  OW  
HW  HW  OW  HW  HW  OW  HW  HW  OW  HW  HW  OW  HW  HW  OW  HW  HW  OW  HW  HW  
OW  HW  HW  OW  HW  HW  OW  HW  HW  OW  HW  HW  OW  HW  HW  OW  HW  HW  OW  HW  
HW  OW  HW  HW  OW  HW  HW  OW  HW  HW  OW  HW  HW  OW  HW  HW  OW  HW  HW  OW  
HW  HW  OW  HW  HW  OW  HW  HW  OW  HW  HW  OW  HW  HW  OW  HW  HW  OW  HW  HW  
OW  HW  HW  OW  HW  HW  OW  HW  HW  OW  HW  HW  OW  HW  HW  OW  HW  HW  OW  HW  
HW  OW  HW  HW  OW  HW  HW  OW  HW  HW  OW  HW  HW  OW  HW  HW  OW  HW  HW  OW  
HW  HW  OW  HW  HW  OW  HW  HW  OW  HW  HW  OW  HW  HW  OW  HW  HW  OW  HW  HW  
OW  HW  HW  OW  HW  HW  OW  HW  HW  OW  HW  HW  OW  HW  HW  OW  HW  HW  OW  HW  
HW  OW  HW  HW  OW  HW  HW  OW  HW  HW  OW  HW  HW  OW  HW  HW  OW  HW  HW  OW  
HW  HW  OW  HW  HW  OW  HW  HW  OW  HW  HW  OW  HW  HW  OW  HW  HW  OW  HW  HW  
OW  HW  HW  OW  HW  HW  OW  HW  HW  OW  HW  HW  OW  HW  HW  OW  HW  HW  OW  HW  
HW  OW  HW  HW  OW  HW  HW  OW  HW  HW  OW  HW  HW  OW  HW  HW  OW  HW  HW  OW  
HW  HW  OW  HW  HW  OW  HW  HW  OW  HW  HW  OW  HW  HW  OW  HW  HW  OW  HW  HW  
OW  HW  HW  OW  HW  HW  OW  HW  HW  OW  HW  HW  OW  HW  HW  OW  HW  HW  OW  HW  
HW  OW  HW  HW  OW  HW  HW  OW  HW  HW  OW  HW  HW  OW  HW  HW  OW  HW  HW  OW  
HW  HW  OW  HW  HW  OW  HW  HW  OW  HW  HW  OW  HW  HW  OW  HW  HW  OW  HW  HW  
OW  HW  HW  OW  HW  HW  OW  HW  HW  OW  HW  HW  OW  HW  HW  OW  HW  HW  OW  HW  
HW  OW  HW  HW  OW  HW  HW  OW  HW  HW  OW  HW  HW  OW  HW  HW  OW  HW  HW  OW  
HW  HW  OW  HW  HW  OW  HW  HW  OW  HW  HW  OW  HW  HW  OW  HW  HW  OW  HW  HW  
OW  HW  HW  OW  HW  HW  OW  HW  HW  OW  HW  HW  OW  HW  HW  OW  HW  HW  OW  HW  
HW  OW  HW  HW  OW  HW  HW  OW  HW  HW  OW  HW  HW  OW  HW  HW  OW  HW  HW  OW  
HW  HW  OW  HW  HW  OW  HW  HW  OW  HW  HW  OW  HW  HW  OW  HW  HW  OW  HW  HW  
OW  HW  HW  OW  HW  HW  OW  HW  HW  OW  HW  HW  OW  HW  HW  OW  HW  HW  OW  HW  
HW  OW  HW  HW  OW  HW  HW  OW  HW  HW  OW  HW  HW  OW  HW  HW  OW  HW  HW  OW  
HW  HW  OW  HW  HW  OW  HW  HW  OW  HW  HW  OW  HW  HW  OW  HW  HW  OW  HW  HW  
OW  HW  HW  OW  HW  HW  OW  HW  HW  OW  HW  HW  OW  HW  HW  OW  HW  HW  OW  HW  
HW  OW  HW  HW  OW  HW  HW  OW  HW  HW  OW  HW  HW  OW  HW  HW  OW  HW  HW  OW  
HW  HW  OW  HW  HW  OW  HW  HW  OW  HW  HW  OW  HW  HW  OW  HW  HW  OW  HW  HW  
OW  HW  HW  OW  HW  HW  OW  HW  HW  OW  HW  HW  OW  HW  HW  OW  HW  HW  OW  HW  
HW  OW  HW  HW  OW  HW  HW  OW  HW  HW  OW  HW  HW  OW  HW  HW  OW  HW  HW  OW  
HW  HW  OW  HW  HW  OW  HW  HW  OW  HW  HW  OW  HW  HW  OW  HW  HW  OW  HW  HW  
OW  HW  HW  OW  HW  HW  OW  HW  HW  OW  HW  HW  OW  HW  HW  OW  HW  HW  OW  HW  
HW  OW  HW  HW  OW  HW  HW  OW  HW  HW  OW  HW  HW  OW  HW  HW  OW  HW  HW  OW  
HW  HW  OW  HW  HW  OW  HW  HW  OW  HW  HW  OW  HW  HW  OW  HW  HW  OW  HW  HW  
OW  HW  HW  OW  HW  HW  OW  HW  HW  OW  HW  HW  OW  HW  HW  OW  HW  HW  OW  HW  
HW  OW  HW  HW  OW  HW  HW  OW  HW  HW  OW  HW  HW  OW  HW  HW  OW  HW  HW  OW  
HW  HW  OW  HW  HW  OW  HW  HW  OW  HW  HW  OW  HW  HW  OW  HW  HW  OW  HW  HW  
OW  HW  HW  OW  HW  HW  OW  HW  HW  OW  HW  HW  OW  HW  HW  OW  HW  HW  OW  HW  
HW  OW  HW  HW  OW  HW  HW  OW  HW  HW  OW  HW  HW  OW  HW  HW  OW  HW  HW  OW  
HW  HW  OW  HW  HW  OW  HW  HW  OW  HW  HW  OW  HW  HW  OW  HW  HW  OW  HW  HW  
OW  HW  HW  OW  HW  HW  OW  HW  HW  OW  HW  HW  OW  HW  HW  OW  HW  HW  OW  HW  
HW  OW  HW  HW  OW  HW  HW  OW  HW  HW  OW  HW  HW  OW  HW  HW  OW  HW  HW  OW  
HW  HW  OW  HW  HW  OW  HW  HW  OW  HW  HW  OW  HW  HW  OW  HW  HW  OW  HW  HW  
OW  HW  HW  OW  HW  HW  OW  HW  HW  OW  HW  HW  OW  HW  HW  OW  HW  HW  OW  HW  
HW  OW  HW  HW  OW  HW  HW  OW  HW  HW  OW  HW  HW  OW  HW  HW  OW  HW  HW  OW  
HW  HW  OW  HW  HW  OW  HW  HW  OW  HW  HW  OW  HW  HW  OW  HW  HW  OW  HW  HW  
OW  HW  HW  OW  HW  HW  OW  HW  HW  OW  HW  HW  OW  HW  HW  OW  HW  HW  OW  HW  
HW  OW  HW  HW  OW  HW  HW  OW  HW  HW  OW  HW  HW  OW  HW  HW  OW  HW  HW  OW  
HW  HW  OW  HW  HW  OW  HW  HW  OW  HW  HW  OW  HW  HW  OW  HW  HW  OW  HW  HW  
OW  HW  HW  OW  HW  HW  OW  HW  HW  OW  HW  HW  OW  HW  HW  OW  HW  HW  OW  HW  
HW  OW  HW  HW  OW  HW  HW  OW  HW  HW  OW  HW  HW  OW  HW  HW  OW  HW  HW  OW  
HW  HW  OW  HW  HW  OW  HW  HW  OW  HW  HW  OW  HW  HW  OW  HW  HW  OW  HW  HW  
OW  HW  HW  OW  HW  HW  OW  HW  HW  OW  HW  HW  OW  HW  HW  OW  HW  HW  OW  HW  
HW  OW  HW  HW  OW  HW  HW  OW  HW  HW  OW  HW  HW  OW  HW  HW  OW  HW  HW  OW  
HW  HW  OW  HW  HW  OW  HW  HW  OW  HW  HW  OW  HW  HW  OW  HW  HW  OW  HW  HW  
OW  HW  HW  OW  HW  HW  OW  HW  HW  OW  HW  HW  OW  HW  HW  OW  HW  HW  OW  HW  
HW  OW  HW  HW  OW  HW  HW  OW  HW  HW  OW  HW  HW  OW  HW  HW  OW  HW  HW  OW  
HW  HW  OW  HW  HW  OW  HW  HW  OW  HW  HW  OW  HW  HW  OW  HW  HW  OW  HW  HW  
OW  HW  HW  OW  HW  HW  OW  HW  HW  OW  HW  HW  OW  HW  HW  OW  HW  HW  OW  HW  
HW  OW  HW  HW  OW  HW  HW  OW  HW  HW  OW  HW  HW  OW  HW  HW  OW  HW  HW  OW  
HW  HW  OW  HW  HW  OW  HW  HW  OW  HW  HW  OW  HW  HW  OW  HW  HW  OW  HW  HW  
OW  HW  HW  OW  HW  HW  OW  HW  HW  OW  HW  HW  OW  HW  HW  OW  HW  HW  OW  HW  
HW  OW  HW  HW  OW  HW  HW  OW  HW  HW  OW  HW  HW  OW  HW  HW  OW  HW  HW  OW  
HW  HW  OW  HW  HW  OW  HW  HW  OW  HW  HW  OW  HW  HW  OW  HW  HW  OW  HW  HW  
OW  HW  HW  OW  HW  HW  OW  HW  HW  OW  HW  HW  OW  HW  HW  OW  HW  HW  OW  HW  
HW  OW  HW  HW  OW  HW  HW  OW  HW  HW  OW  HW  HW  OW  HW  HW  OW  HW  HW  OW  
HW  HW  OW  HW  HW  OW  HW  HW  OW  HW  HW  OW  HW  HW  OW  HW  HW  OW  HW  HW  
OW  HW  HW  OW  HW  HW  OW  HW  HW  OW  HW  HW  OW  HW  HW  OW  HW  HW  OW  HW  
HW  OW  HW  HW  OW  HW  HW  OW  HW  HW  OW  HW  HW  OW  HW  HW  OW  HW  HW  OW  
HW  HW  OW  HW  HW  OW  HW  HW  OW  HW  HW  OW  HW  HW  OW  HW  HW  OW  HW  HW  
OW  HW  HW  OW  HW  HW  OW  HW  HW  OW  HW  HW  OW  HW  HW  OW  HW  HW  OW  HW  
HW  OW  HW  HW  OW  HW  HW  OW  HW  HW  OW  HW  HW  OW  HW  HW  OW  HW  HW  OW  
HW  HW  OW  HW  HW  OW  HW  HW  OW  HW  HW  OW  HW  HW  OW  HW  HW  OW  HW  HW  
OW  HW  HW  OW  HW  HW  OW  HW  HW  OW  HW  HW  OW  HW  HW  OW  HW  HW  OW  HW  
HW  OW  HW  HW  OW  HW  HW  OW  HW  HW  OW  HW  HW  OW  HW  HW  OW  HW  HW  OW  
HW  HW  OW  HW  HW  OW  HW  HW  OW  HW  HW  OW  HW  HW  OW  HW  HW  OW  HW  HW  
OW  HW  HW  OW  HW  HW  OW  HW  HW  OW  HW  HW  OW  HW  HW  OW  HW  HW  OW  HW  
HW  OW  HW  HW  OW  HW  HW  OW  HW  HW  OW  HW  HW  OW  HW  HW  OW  HW  HW  OW  
HW  HW  OW  HW  HW  OW  HW  HW  OW  HW  HW  OW  HW  HW  OW  HW  HW  OW  HW  HW  
OW  HW  HW  OW  HW  HW  OW  HW  HW  OW  HW  HW  OW  HW  HW  OW  HW  HW  OW  HW  
HW  OW  HW  HW  OW  HW  HW  OW  HW  HW  OW  HW  HW  OW  HW  HW  OW  HW  HW  OW  
HW  HW  OW  HW  HW  OW  HW  HW  OW  HW  HW  OW  HW  HW  OW  HW  HW  OW  HW  HW  
OW  HW  HW  OW  HW  HW  OW  HW  HW  OW  HW  HW  OW  HW  HW  OW  HW  HW  OW  HW  
HW  OW  HW  HW  OW  HW  HW  OW  HW  HW  OW  HW  HW  OW  HW  HW  OW  HW  HW  OW  
HW  HW  OW  HW  HW  OW  HW  HW  OW  HW  HW  OW  HW  HW  OW  HW  HW  OW  HW  HW  
OW  HW  HW  OW  HW  HW  OW  HW  HW  OW  HW  HW  OW  HW  HW  OW  HW  HW  OW  HW  
HW  OW  HW  HW  OW  HW  HW  OW  HW  HW  OW  HW  HW  OW  HW  HW  OW  HW  HW  OW  
HW  HW  OW  HW  HW  OW  HW  HW  OW  HW  HW  OW  HW  HW  OW  HW  HW  OW  HW  HW  
OW  HW  HW  OW  HW  HW  OW  HW  HW  OW  HW  HW  OW  HW  HW  OW  HW  HW  OW  HW  
HW  OW  HW  HW  OW  HW  HW  OW  HW  HW  OW  HW  HW  OW  HW  HW  OW  HW  HW  OW  
HW  HW  OW  HW  HW  OW  HW  HW  OW  HW  HW  OW  HW  HW  OW  HW  HW  OW  HW  HW  
OW  HW  HW  OW  HW  HW  OW  HW  HW  OW  HW  HW  OW  HW  HW  OW  HW  HW  OW  HW  
HW  OW  HW  HW  OW  HW  HW  OW  HW  HW  OW  HW  HW  OW  HW  HW  OW  HW  HW  OW  
HW  HW  OW  HW  HW  OW  HW  HW  OW  HW  HW  OW  HW  HW  OW  HW  HW  OW  HW  HW  
OW  HW  HW  OW  HW  HW  OW  HW  HW  OW  HW  HW  OW  HW  HW  OW  HW  HW  OW  HW  
HW  OW  HW  HW  OW  HW  HW  OW  HW  HW  OW  HW  HW  OW  HW  HW  OW  HW  HW  OW  
HW  HW  OW  HW  HW  OW  HW  HW  OW  HW  HW  OW  HW  HW  OW  HW  HW  OW  HW  HW  
OW  HW  HW  OW  HW  HW  OW  HW  HW  OW  HW  HW  OW  HW  HW  OW  HW  HW  OW  HW  
HW  OW  HW  HW  OW  HW  HW  OW  HW  HW  OW  HW  HW  OW  HW  HW  OW  HW  HW  OW  
HW  HW  OW  HW  HW  OW  HW  HW  OW  HW  HW  OW  HW  HW  OW  HW  HW  OW  HW  HW  
OW  HW  HW  OW  HW  HW  OW  HW  HW  OW  HW  HW  OW  HW  HW  OW  HW  HW  OW  HW  
HW  OW  HW  HW  OW  HW  HW  OW  HW  HW  OW  HW  HW  OW  HW  HW  OW  HW  HW  OW  
HW  HW  OW  HW  HW  OW  HW  HW  OW  HW  HW  OW  HW  HW  OW  HW  HW  OW  HW  HW  
OW  HW  HW  OW  HW  HW  OW  HW  HW  OW  HW  HW  OW  HW  HW  OW  HW  HW  OW  HW  
HW  OW  HW  HW  OW  HW  HW  OW  HW  HW  OW  HW  HW  OW  HW  HW  OW  HW  HW  OW  
HW  HW  OW  HW  HW  OW  HW  HW  OW  HW  HW  OW  HW  HW  OW  HW  HW  OW  HW  HW  
OW  HW  HW  OW  HW  HW  OW  HW  HW  OW  HW  HW  OW  HW  HW  OW  HW  HW  OW  HW  
HW  OW  HW  HW  OW  HW  HW  OW  HW  HW  OW  HW  HW  OW  HW  HW  OW  HW  HW  OW  
HW  HW  OW  HW  HW  OW  HW  HW  OW  HW  HW  OW  HW  HW  OW  HW  HW  OW  HW  HW  
OW  HW  HW  OW  HW  HW  OW  HW  HW  OW  HW  HW  OW  HW  HW  OW  HW  HW  OW  HW  
HW  OW  HW  HW  OW  HW  HW  OW  HW  HW  OW  HW  HW  OW  HW  HW  OW  HW  HW  OW  
HW  HW  OW  HW  HW  OW  HW  HW  OW  HW  HW  OW  HW  HW  OW  HW  HW  OW  HW  HW  
OW  HW  HW  OW  HW  HW  OW  HW  HW  OW  HW  HW  OW  HW  HW  OW  HW  HW  OW  HW  
HW  OW  HW  HW  OW  HW  HW  OW  HW  HW  OW  HW  HW  OW  HW  HW  OW  HW  HW  OW  
HW  HW  OW  HW  HW  OW  HW  HW  OW  HW  HW  OW  HW  HW  OW  HW  HW  OW  HW  HW  
OW  HW  HW  OW  HW  HW  OW  HW  HW  OW  HW  HW  OW  HW  HW  OW  HW  HW  OW  HW  
HW  OW  HW  HW  OW  HW  HW  OW  HW  HW  OW  HW  HW  OW  HW  HW  OW  HW  HW  OW  
HW  HW  OW  HW  HW  OW  HW  HW  OW  HW  HW  OW  HW  HW  OW  HW  HW  OW  HW  HW  
OW  HW  HW  OW  HW  HW  OW  HW  HW  OW  HW  HW  OW  HW  HW  OW  HW  HW  OW  HW  
HW  OW  HW  HW  OW  HW  HW  OW  HW  HW  OW  HW  HW  OW  HW  HW  OW  HW  HW  OW  
HW  HW  OW  HW  HW  OW  HW  HW  OW  HW  HW  OW  HW  HW  OW  HW  HW  OW  HW  HW  
OW  HW  HW  OW  HW  HW  OW  HW  HW  OW  HW  HW  OW  HW  HW  OW  HW  HW  OW  HW  
HW  OW  HW  HW  OW  HW  HW  OW  HW  HW  OW  HW  HW  OW  HW  HW  OW  HW  HW  OW  
HW  HW  OW  HW  HW  OW  HW  HW  OW  HW  HW  OW  HW  HW  OW  HW  HW  OW  HW  HW  
OW  HW  HW  OW  HW  HW  OW  HW  HW  OW  HW  HW  OW  HW  HW  OW  HW  HW  OW  HW  
HW  OW  HW  HW  OW  HW  HW  OW  HW  HW  OW  HW  HW  OW  HW  HW  OW  HW  HW  OW  
HW  HW  OW  HW  HW  OW  HW  HW  OW  HW  HW  OW  HW  HW  OW  HW  HW  OW  HW  HW  
OW  HW  HW  OW  HW  HW  OW  HW  HW  OW  HW  HW  OW  HW  HW  OW  HW  HW  OW  HW  
HW  OW  HW  HW  OW  HW  HW  OW  HW  HW  OW  HW  HW  OW  HW  HW  OW  HW  HW  OW  
HW  HW  OW  HW  HW  OW  HW  HW  OW  HW  HW  OW  HW  HW  OW  HW  HW  OW  HW  HW  
OW  HW  HW  OW  HW  HW  OW  HW  HW  OW  HW  HW  OW  HW  HW  OW  HW  HW  OW  HW  
HW  OW  HW  HW  OW  HW  HW  OW  HW  HW  OW  HW  HW  OW  HW  HW  OW  HW  HW  OW  
HW  HW  OW  HW  HW  OW  HW  HW  OW  HW  HW  OW  HW  HW  OW  HW  HW  OW  HW  HW  
OW  HW  HW  OW  HW  HW  OW  HW  HW  OW  HW  HW  OW  HW  HW  OW  HW  HW  OW  HW  
HW  OW  HW  HW  OW  HW  HW  OW  HW  HW  OW  HW  HW  OW  HW  HW  OW  HW  HW  OW  
HW  HW  OW  HW  HW  OW  HW  HW  OW  HW  HW  OW  HW  HW  OW  HW  HW  OW  HW  HW  
OW  HW  HW  OW  HW  HW  OW  HW  HW  OW  HW  HW  OW  HW  HW  OW  HW  HW  OW  HW  
HW  OW  HW  HW  OW  HW  HW  OW  HW  HW  OW  HW  HW  OW  HW  HW  OW  HW  HW  OW  
HW  HW  OW  HW  HW  OW  HW  HW  OW  HW  HW  OW  HW  HW  OW  HW  HW  OW  HW  HW  
OW  HW  HW  OW  HW  HW  OW  HW  HW  OW  HW  HW  OW  HW  HW  OW  HW  HW  OW  HW  
HW  OW  HW  HW  OW  HW  HW  OW  HW  HW  OW  HW  HW  OW  HW  HW  OW  HW  HW  OW  
HW  HW  OW  HW  HW  OW  HW  HW  OW  HW  HW  OW  HW  HW  OW  HW  HW  OW  HW  HW  
OW  HW  HW  OW  HW  HW  OW  HW  HW  OW  HW  HW  OW  HW  HW  OW  HW  HW  OW  HW  
HW  OW  HW  HW  OW  HW  HW  OW  HW  HW  OW  HW  HW  OW  HW  HW  OW  HW  HW  OW  
HW  HW  OW  HW  HW  OW  HW  HW  OW  HW  HW  OW  HW  HW  OW  HW  HW  OW  HW  HW  
OW  HW  HW  OW  HW  HW  OW  HW  HW  OW  HW  HW  OW  HW  HW  OW  HW  HW  OW  HW  
HW  OW  HW  HW  OW  HW  HW  OW  HW  HW  OW  HW  HW  OW  HW  HW  OW  HW  HW  OW  
HW  HW  OW  HW  HW  OW  HW  HW  OW  HW  HW  OW  HW  HW  OW  HW  HW  OW  HW  HW  
OW  HW  HW  OW  HW  HW  OW  HW  HW  OW  HW  HW  OW  HW  HW  OW  HW  HW  OW  HW  
HW  OW  HW  HW  OW  HW  HW  OW  HW  HW  OW  HW  HW  OW  HW  HW  OW  HW  HW  OW  
HW  HW  OW  HW  HW  OW  HW  HW  OW  HW  HW  OW  HW  HW  OW  HW  HW  OW  HW  HW  
OW  HW  HW  OW  HW  HW  OW  HW  HW  OW  HW  HW  OW  HW  HW  OW  HW  HW  OW  HW  
HW  OW  HW  HW  OW  HW  HW  OW  HW  HW  OW  HW  HW  OW  HW  HW  OW  HW  HW  OW  
HW  HW  OW  HW  HW  OW  HW  HW  OW  HW  HW  OW  HW  HW  OW  HW  HW  OW  HW  HW  
OW  HW  HW  OW  HW  HW  OW  HW  HW  OW  HW  HW  OW  HW  HW  OW  HW  HW  OW  HW  
HW  OW  HW  HW  OW  HW  HW  OW  HW  HW  OW  HW  HW  OW  HW  HW  OW  HW  HW  OW  
HW  HW  OW  HW  HW  OW  HW  HW  OW  HW  HW  OW  HW  HW  OW  HW  HW  OW  HW  HW  
OW  HW  HW  OW  HW  HW  OW  HW  HW  OW  HW  HW  OW  HW  HW  OW  HW  HW  OW  HW  
HW  OW  HW  HW  OW  HW  HW  OW  HW  HW  OW  HW  HW  OW  HW  HW  OW  HW  HW  OW  
HW  HW  OW  HW  HW  OW  HW  HW  OW  HW  HW  OW  HW  HW  OW  HW  HW  OW  HW  HW  
OW  HW  HW  OW  HW  HW  OW  HW  HW  OW  HW  HW  OW  HW  HW  OW  HW  HW  OW  HW  
HW  OW  HW  HW  OW  HW  HW  OW  HW  HW  OW  HW  HW  OW  HW  HW  OW  HW  HW  OW  
HW  HW  OW  HW  HW  OW  HW  HW  OW  HW  HW  OW  HW  HW  OW  HW  HW  OW  HW  HW  
OW  HW  HW  OW  HW  HW  OW  HW  HW  OW  HW  HW  OW  HW  HW  OW  HW  HW  OW  HW  
HW  OW  HW  HW  OW  HW  HW  OW  HW  HW  OW  HW  HW  OW  HW  HW  OW  HW  HW  OW  
HW  HW  OW  HW  HW  OW  HW  HW  OW  HW  HW  OW  HW  HW  OW  HW  HW  OW  HW  HW  
OW  HW  HW  OW  HW  HW  OW  HW  HW  OW  HW  HW  OW  HW  HW  OW  HW  HW  OW  HW  
HW  OW  HW  HW  OW  HW  HW  OW  HW  HW  OW  HW  HW  OW  HW  HW  OW  HW  HW  OW  
HW  HW  OW  HW  HW  OW  HW  HW  OW  HW  HW  OW  HW  HW  OW  HW  HW  OW  HW  HW  
OW  HW  HW  OW  HW  HW  OW  HW  HW  OW  HW  HW  OW  HW  HW  OW  HW  HW  OW  HW  
HW  OW  HW  HW  OW  HW  HW  OW  HW  HW  OW  HW  HW  OW  HW  HW  OW  HW  HW  OW  
HW  HW  OW  HW  HW  OW  HW  HW  OW  HW  HW  OW  HW  HW  OW  HW  HW  OW  HW  HW  
OW  HW  HW  OW  HW  HW  OW  HW  HW  OW  HW  HW  OW  HW  HW  OW  HW  HW  OW  HW  
HW  OW  HW  HW  OW  HW  HW  OW  HW  HW  OW  HW  HW  OW  HW  HW  OW  HW  HW  OW  
HW  HW  OW  HW  HW  OW  HW  HW  OW  HW  HW  OW  HW  HW  OW  HW  HW  OW  HW  HW  
OW  HW  HW  OW  HW  HW  OW  HW  HW  OW  HW  HW  OW  HW  HW  OW  HW  HW  OW  HW  
HW  OW  HW  HW  OW  HW  HW  OW  HW  HW  OW  HW  HW  OW  HW  HW  OW  HW  HW  OW  
HW  HW  OW  HW  HW  OW  HW  HW  OW  HW  HW  OW  HW  HW  OW  HW  HW  OW  HW  HW  
OW  HW  HW  OW  HW  HW  OW  HW  HW  OW  HW  HW  OW  HW  HW  OW  HW  HW  OW  HW  
HW  OW  HW  HW  OW  HW  HW  OW  HW  HW  OW  HW  HW  OW  HW  HW  OW  HW  HW  OW  
HW  HW  OW  HW  HW  OW  HW  HW  OW  HW  HW  OW  HW  HW  OW  HW  HW  OW  HW  HW  
OW  HW  HW  OW  HW  HW  OW  HW  HW  OW  HW  HW  OW  HW  HW  OW  HW  HW  OW  HW  
HW  OW  HW  HW  OW  HW  HW  OW  HW  HW  OW  HW  HW  OW  HW  HW  OW  HW  HW  OW  
HW  HW  OW  HW  HW  OW  HW  HW  OW  HW  HW  OW  HW  HW  OW  HW  HW  OW  HW  HW  
OW  HW  HW  OW  HW  HW  OW  HW  HW  OW  HW  HW  OW  HW  HW  OW  HW  HW  OW  HW  
HW  OW  HW  HW  OW  HW  HW  OW  HW  HW  OW  HW  HW  OW  HW  HW  OW  HW  HW  OW  
HW  HW  OW  HW  HW  OW  HW  HW  OW  HW  HW  OW  HW  HW  OW  HW  HW  OW  HW  HW  
OW  HW  HW  OW  HW  HW  OW  HW  HW  OW  HW  HW  OW  HW  HW  OW  HW  HW  OW  HW  
HW  OW  HW  HW  OW  HW  HW  OW  HW  HW  OW  HW  HW  OW  HW  HW  OW  HW  HW  OW  
HW  HW  OW  HW  HW  OW  HW  HW  OW  HW  HW  OW  HW  HW  OW  HW  HW  OW  HW  HW  
OW  HW  HW  OW  HW  HW  OW  HW  HW  OW  HW  HW  OW  HW  HW  OW  HW  HW  OW  HW  
HW  OW  HW  HW  OW  HW  HW  OW  HW  HW  OW  HW  HW  OW  HW  HW  OW  HW  HW  OW  
HW  HW  OW  HW  HW  OW  HW  HW  OW  HW  HW  OW  HW  HW  OW  HW  HW  OW  HW  HW  
OW  HW  HW  OW  HW  HW  OW  HW  HW  OW  HW  HW  OW  HW  HW  OW  HW  HW  OW  HW  
HW  OW  HW  HW  OW  HW  HW  OW  HW  HW  OW  HW  HW  OW  HW  HW  OW  HW  HW  OW  
HW  HW  OW  HW  HW  OW  HW  HW  OW  HW  HW  OW  HW  HW  OW  HW  HW  OW  HW  HW  
OW  HW  HW  OW  HW  HW  OW  HW  HW  OW  HW  HW  OW  HW  HW  OW  HW  HW  OW  HW  
HW  OW  HW  HW  OW  HW  HW  OW  HW  HW  OW  HW  HW  OW  HW  HW  OW  HW  HW  OW  
HW  HW  OW  HW  HW  OW  HW  HW  OW  HW  HW  OW  HW  HW  OW  HW  HW  OW  HW  HW  
OW  HW  HW  OW  HW  HW  OW  HW  HW  OW  HW  HW  OW  HW  HW  OW  HW  HW  OW  HW  
HW  OW  HW  HW  OW  HW  HW  OW  HW  HW  OW  HW  HW  OW  HW  HW  OW  HW  HW  OW  
HW  HW  OW  HW  HW  OW  HW  HW  OW  HW  HW  OW  HW  HW  OW  HW  HW  OW  HW  HW  
OW  HW  HW  OW  HW  HW  OW  HW  HW  OW  HW  HW  OW  HW  HW  OW  HW  HW  OW  HW  
HW  OW  HW  HW  OW  HW  HW  OW  HW  HW  OW  HW  HW  OW  HW  HW  OW  HW  HW  OW  
HW  HW  OW  HW  HW  OW  HW  HW  OW  HW  HW  OW  HW  HW  OW  HW  HW  OW  HW  HW  
OW  HW  HW  OW  HW  HW  OW  HW  HW  OW  HW  HW  OW  HW  HW  OW  HW  HW  OW  HW  
HW  OW  HW  HW  OW  HW  HW  OW  HW  HW  OW  HW  HW  OW  HW  HW  OW  HW  HW  OW  
HW  HW  OW  HW  HW  OW  HW  HW  OW  HW  HW  OW  HW  HW  OW  HW  HW  OW  HW  HW  
OW  HW  HW  OW  HW  HW  OW  HW  HW  OW  HW  HW  OW  HW  HW  OW  HW  HW  OW  HW  
HW  OW  HW  HW  OW  HW  HW  OW  HW  HW  OW  HW  HW  OW  HW  HW  OW  HW  HW  OW  
HW  HW  OW  HW  HW  OW  HW  HW  OW  HW  HW  OW  HW  HW  OW  HW  HW  OW  HW  HW  
OW  HW  HW  OW  HW  HW  OW  HW  HW  OW  HW  HW  OW  HW  HW  OW  HW  HW  OW  HW  
HW  OW  HW  HW  OW  HW  HW  OW  HW  HW  OW  HW  HW  OW  HW  HW  OW  HW  HW  OW  
HW  HW  OW  HW  HW  OW  HW  HW  OW  HW  HW  OW  HW  HW  OW  HW  HW  OW  HW  HW  
OW  HW  HW  OW  HW  HW  OW  HW  HW  OW  HW  HW  OW  HW  HW  OW  HW  HW  OW  HW  
HW  OW  HW  HW  OW  HW  HW  OW  HW  HW  OW  HW  HW  OW  HW  HW  OW  HW  HW  OW  
HW  HW  OW  HW  HW  OW  HW  HW  OW  HW  HW  OW  HW  HW  OW  HW  HW  OW  HW  HW  
OW  HW  HW  OW  HW  HW  OW  HW  HW  OW  HW  HW  OW  HW  HW  OW  HW  HW  OW  HW  
HW  OW  HW  HW  OW  HW  HW  OW  HW  HW  OW  HW  HW  OW  HW  HW  OW  HW  HW  OW  
HW  HW  OW  HW  HW  OW  HW  HW  OW  HW  HW  OW  HW  HW  OW  HW  HW  OW  HW  HW  
OW  HW  HW  OW  HW  HW  OW  HW  HW  OW  HW  HW  OW  HW  HW  OW  HW  HW  OW  HW  
HW  OW  HW  HW  OW  HW  HW  OW  HW  HW  OW  HW  HW  OW  HW  HW  OW  HW  HW  OW  
HW  HW  OW  HW  HW  OW  HW  HW  OW  HW  HW  OW  HW  HW  OW  HW  HW  OW  HW  HW  
OW  HW  HW  OW  HW  HW  OW  HW  HW  OW  HW  HW  OW  HW  HW  OW  HW  HW  OW  HW  
HW  OW  HW  HW  OW  HW  HW  OW  HW  HW  OW  HW  HW  OW  HW  HW  OW  HW  HW  OW  
HW  HW  OW  HW  HW  OW  HW  HW  OW  HW  HW  OW  HW  HW  OW  HW  HW  OW  HW  HW  
OW  HW  HW  OW  HW  HW  OW  HW  HW  OW  HW  HW  OW  HW  HW  OW  HW  HW  OW  HW  
HW  OW  HW  HW  OW  HW  HW  OW  HW  HW  OW  HW  HW  OW  HW  HW  OW  HW  HW  OW  
HW  HW  OW  HW  HW  OW  HW  HW  OW  HW  HW  OW  HW  HW  OW  HW  HW  OW  HW  HW  
OW  HW  HW  OW  HW  HW  OW  HW  HW  OW  HW  HW  OW  HW  HW  OW  HW  HW  OW  HW  
HW  OW  HW  HW  OW  HW  HW  OW  HW  HW  OW  HW  HW  OW  HW  HW  OW  HW  HW  OW  
HW  HW  OW  HW  HW  OW  HW  HW  OW  HW  HW  OW  HW  HW  OW  HW  HW  OW  HW  HW  
OW  HW  HW  OW  HW  HW  OW  HW  HW  OW  HW  HW  OW  HW  HW  OW  HW  HW  OW  HW  
HW  OW  HW  HW  OW  HW  HW  OW  HW  HW  OW  HW  HW  OW  HW  HW  OW  HW  HW  OW  
HW  HW  OW  HW  HW  OW  HW  HW  OW  HW  HW  OW  HW  HW  OW  HW  HW  OW  HW  HW  
OW  HW  HW  OW  HW  HW  OW  HW  HW  OW  HW  HW  OW  HW  HW  OW  HW  HW  OW  HW  
HW  OW  HW  HW  OW  HW  HW  OW  HW  HW  OW  HW  HW  OW  HW  HW  OW  HW  HW  OW  
HW  HW  OW  HW  HW  OW  HW  HW  OW  HW  HW  OW  HW  HW  OW  HW  HW  OW  HW  HW  
OW  HW  HW  OW  HW  HW  OW  HW  HW  OW  HW  HW  OW  HW  HW  OW  HW  HW  OW  HW  
HW  OW  HW  HW  OW  HW  HW  OW  HW  HW  OW  HW  HW  OW  HW  HW  OW  HW  HW  OW  
HW  HW  OW  HW  HW  OW  HW  HW  OW  HW  HW  OW  HW  HW  OW  HW  HW  OW  HW  HW  
OW  HW  HW  OW  HW  HW  OW  HW  HW  OW  HW  HW  OW  HW  HW  OW  HW  HW  OW  HW  
HW  OW  HW  HW  OW  HW  HW  OW  HW  HW  OW  HW  HW  OW  HW  HW  OW  HW  HW  OW  
HW  HW  OW  HW  HW  OW  HW  HW  OW  HW  HW  OW  HW  HW  OW  HW  HW  OW  HW  HW  
OW  HW  HW  OW  HW  HW  OW  HW  HW  OW  HW  HW  OW  HW  HW  OW  HW  HW  OW  HW  
HW  OW  HW  HW  OW  HW  HW  OW  HW  HW  OW  HW  HW  OW  HW  HW  OW  HW  HW  OW  
HW  HW  OW  HW  HW  OW  HW  HW  OW  HW  HW  OW  HW  HW  OW  HW  HW  OW  HW  HW  
OW  HW  HW  OW  HW  HW  OW  HW  HW  OW  HW  HW  OW  HW  HW  OW  HW  HW  OW  HW  
HW  OW  HW  HW  OW  HW  HW  OW  HW  HW  OW  HW  HW  OW  HW  HW  OW  HW  HW  OW  
HW  HW  OW  HW  HW  OW  HW  HW  OW  HW  HW  OW  HW  HW  OW  HW  HW  OW  HW  HW  
OW  HW  HW  OW  HW  HW  OW  HW  HW  OW  HW  HW  OW  HW  HW  OW  HW  HW  OW  HW  
HW  OW  HW  HW  OW  HW  HW  OW  HW  HW  OW  HW  HW  OW  HW  HW  OW  HW  HW  OW  
HW  HW  OW  HW  HW  OW  HW  HW  OW  HW  HW  OW  HW  HW  OW  HW  HW  OW  HW  HW  
OW  HW  HW  OW  HW  HW  OW  HW  HW  OW  HW  HW  OW  HW  HW  OW  HW  HW  OW  HW  
HW  OW  HW  HW  OW  HW  HW  OW  HW  HW  OW  HW  HW  OW  HW  HW  OW  HW  HW  OW  
HW  HW  OW  HW  HW  OW  HW  HW  OW  HW  HW  OW  HW  HW  OW  HW  HW  OW  HW  HW  
OW  HW  HW  OW  HW  HW  OW  HW  HW  OW  HW  HW  OW  HW  HW  OW  HW  HW  OW  HW  
HW  OW  HW  HW  OW  HW  HW  OW  HW  HW  OW  HW  HW  OW  HW  HW  OW  HW  HW  OW  
HW  HW  OW  HW  HW  OW  HW  HW  OW  HW  HW  OW  HW  HW  OW  HW  HW  OW  HW  HW  
OW  HW  HW  OW  HW  HW  OW  HW  HW  OW  HW  HW  OW  HW  HW  OW  HW  HW  OW  HW  
HW  OW  HW  HW  OW  HW  HW  OW  HW  HW  OW  HW  HW  OW  HW  HW  OW  HW  HW  OW  
HW  HW  OW  HW  HW  OW  HW  HW  OW  HW  HW  OW  HW  HW  OW  HW  HW  OW  HW  HW  
OW  HW  HW  OW  HW  HW  OW  HW  HW  OW  HW  HW  OW  HW  HW  OW  HW  HW  OW  HW  
HW  OW  HW  HW  OW  HW  HW  OW  HW  HW  OW  HW  HW  OW  HW  HW  OW  HW  HW  OW  
HW  HW  OW  HW  HW  OW  HW  HW  OW  HW  HW  OW  HW  HW  OW  HW  HW  OW  HW  HW  
OW  HW  HW  OW  HW  HW  OW  HW  HW  OW  HW  HW  OW  HW  HW  OW  HW  HW  OW  HW  
HW  OW  HW  HW  OW  HW  HW  OW  HW  HW  OW  HW  HW  OW  HW  HW  OW  HW  HW  OW  
HW  HW  OW  HW  HW  OW  HW  HW  OW  HW  HW  OW  HW  HW  OW  HW  HW  OW  HW  HW  
OW  HW  HW  OW  HW  HW  OW  HW  HW  OW  HW  HW  OW  HW  HW  OW  HW  HW  OW  HW  
HW  OW  HW  HW  OW  HW  HW  OW  HW  HW  OW  HW  HW  OW  HW  HW  OW  HW  HW  OW  
HW  HW  OW  HW  HW  OW  HW  HW  OW  HW  HW  OW  HW  HW  OW  HW  HW  OW  HW  HW  
OW  HW  HW  OW  HW  HW  OW  HW  HW  OW  HW  HW  OW  HW  HW  OW  HW  HW  OW  HW  
HW  OW  HW  HW  OW  HW  HW  OW  HW  HW  OW  HW  HW  OW  HW  HW  OW  HW  HW  OW  
HW  HW  OW  HW  HW  OW  HW  HW  OW  HW  HW  OW  HW  HW  OW  HW  HW  OW  HW  HW  
OW  HW  HW  OW  HW  HW  OW  HW  HW  OW  HW  HW  OW  HW  HW  OW  HW  HW  OW  HW  
HW  OW  HW  HW  OW  HW  HW  OW  HW  HW  OW  HW  HW  OW  HW  HW  OW  HW  HW  OW  
HW  HW  OW  HW  HW  OW  HW  HW  OW  HW  HW  OW  HW  HW  OW  HW  HW  OW  HW  HW  
OW  HW  HW  OW  HW  HW  OW  HW  HW  OW  HW  HW  OW  HW  HW  OW  HW  HW  OW  HW  
HW  OW  HW  HW  OW  HW  HW  OW  HW  HW  OW  HW  HW  OW  HW  HW  OW  HW  HW  OW  
HW  HW  OW  HW  HW  OW  HW  HW  OW  HW  HW  OW  HW  HW  OW  HW  HW  OW  HW  HW  
OW  HW  HW  OW  HW  HW  OW  HW  HW  OW  HW  HW  OW  HW  HW  OW  HW  HW  OW  HW  
HW  OW  HW  HW  OW  HW  HW  OW  HW  HW  OW  HW  HW  OW  HW  HW  OW  HW  HW  OW  
HW  HW  OW  HW  HW  OW  HW  HW  OW  HW  HW  OW  HW  HW  OW  HW  HW  OW  HW  HW  
OW  HW  HW  OW  HW  HW  OW  HW  HW  OW  HW  HW  OW  HW  HW  OW  HW  HW  OW  HW  
HW  OW  HW  HW  OW  HW  HW  OW  HW  HW  OW  HW  HW  OW  HW  HW  OW  HW  HW  OW  
HW  HW  OW  HW  HW  OW  HW  HW  OW  HW  HW  OW  HW  HW  OW  HW  HW  OW  HW  HW  
OW  HW  HW  OW  HW  HW  OW  HW  HW  OW  HW  HW  OW  HW  HW  OW  HW  HW  OW  HW  
HW  OW  HW  HW  OW  HW  HW  OW  HW  HW  OW  HW  HW  OW  HW  HW  OW  HW  HW  OW  
HW  HW  OW  HW  HW  OW  HW  HW  OW  HW  HW  OW  HW  HW  OW  HW  HW  OW  HW  HW  
OW  HW  HW  OW  HW  HW  OW  HW  HW  OW  HW  HW  OW  HW  HW  OW  HW  HW  OW  HW  
HW  OW  HW  HW  OW  HW  HW  OW  HW  HW  OW  HW  HW  OW  HW  HW  OW  HW  HW  OW  
HW  HW  OW  HW  HW  OW  HW  HW  OW  HW  HW  OW  HW  HW  OW  HW  HW  OW  HW  HW  
OW  HW  HW  OW  HW  HW  OW  HW  HW  OW  HW  HW  OW  HW  HW  OW  HW  HW  OW  HW  
HW  OW  HW  HW  OW  HW  HW  OW  HW  HW  OW  HW  HW  OW  HW  HW  OW  HW  HW  OW  
HW  HW  OW  HW  HW  OW  HW  HW  OW  HW  HW  OW  HW  HW  OW  HW  HW  OW  HW  HW  
OW  HW  HW  OW  HW  HW  OW  HW  HW  OW  HW  HW  OW  HW  HW  OW  HW  HW  OW  HW  
HW  OW  HW  HW  OW  HW  HW  OW  HW  HW  OW  HW  HW  OW  HW  HW  OW  HW  HW  OW  
HW  HW  OW  HW  HW  OW  HW  HW  OW  HW  HW  OW  HW  HW  OW  HW  HW  OW  HW  HW  
OW  HW  HW  OW  HW  HW  OW  HW  HW  OW  HW  HW  OW  HW  HW  OW  HW  HW  OW  HW  
HW  OW  HW  HW  OW  HW  HW  OW  HW  HW  OW  HW  HW  OW  HW  HW  OW  HW  HW  OW  
HW  HW  OW  HW  HW  OW  HW  HW  OW  HW  HW  OW  HW  HW  OW  HW  HW  OW  HW  HW  
OW  HW  HW  OW  HW  HW  OW  HW  HW  OW  HW  HW  OW  HW  HW  OW  HW  HW  OW  HW  
HW  OW  HW  HW  OW  HW  HW  OW  HW  HW  OW  HW  HW  OW  HW  HW  OW  HW  HW  OW  
HW  HW  OW  HW  HW  OW  HW  HW  OW  HW  HW  OW  HW  HW  OW  HW  HW  OW  HW  HW  
OW  HW  HW  OW  HW  HW  OW  HW  HW  OW  HW  HW  OW  HW  HW  OW  HW  HW  OW  HW  
HW  OW  HW  HW  OW  HW  HW  OW  HW  HW  OW  HW  HW  OW  HW  HW  OW  HW  HW  OW  
HW  HW  OW  HW  HW  OW  HW  HW  OW  HW  HW  OW  HW  HW  OW  HW  HW  OW  HW  HW  
OW  HW  HW  OW  HW  HW  OW  HW  HW  OW  HW  HW  OW  HW  HW  OW  HW  HW  OW  HW  
HW  OW  HW  HW  OW  HW  HW  OW  HW  HW  OW  HW  HW  OW  HW  HW  OW  HW  HW  OW  
HW  HW  OW  HW  HW  OW  HW  HW  OW  HW  HW  OW  HW  HW  OW  HW  HW  OW  HW  HW  
OW  HW  HW  OW  HW  HW  OW  HW  HW  OW  HW  HW  OW  HW  HW  OW  HW  HW  OW  HW  
HW  OW  HW  HW  OW  HW  HW  OW  HW  HW  OW  HW  HW  OW  HW  HW  OW  HW  HW  OW  
HW  HW  OW  HW  HW  OW  HW  HW  OW  HW  HW  OW  HW  HW  OW  HW  HW  OW  HW  HW  
OW  HW  HW  OW  HW  HW  OW  HW  HW  OW  HW  HW  OW  HW  HW  OW  HW  HW  OW  HW  
HW  OW  HW  HW  OW  HW  HW  OW  HW  HW  OW  HW  HW  OW  HW  HW  OW  HW  HW  OW  
HW  HW  OW  HW  HW  OW  HW  HW  OW  HW  HW  OW  HW  HW  OW  HW  HW  OW  HW  HW  
OW  HW  HW  OW  HW  HW  OW  HW  HW  OW  HW  HW  OW  HW  HW  OW  HW  HW  OW  HW  
HW  OW  HW  HW  OW  HW  HW  OW  HW  HW  OW  HW  HW  OW  HW  HW  OW  HW  HW  OW  
HW  HW  OW  HW  HW  OW  HW  HW  OW  HW  HW  OW  HW  HW  OW  HW  HW  OW  HW  HW  
OW  HW  HW  OW  HW  HW  OW  HW  HW  OW  HW  HW  OW  HW  HW  OW  HW  HW  OW  HW  
HW  OW  HW  HW  OW  HW  HW  OW  HW  HW  OW  HW  HW  OW  HW  HW  OW  HW  HW  OW  
HW  HW  OW  HW  HW  OW  HW  HW  OW  HW  HW  OW  HW  HW  OW  HW  HW  OW  HW  HW  
OW  HW  HW  OW  HW  HW  OW  HW  HW  OW  HW  HW  OW  HW  HW  OW  HW  HW  OW  HW  
HW  OW  HW  HW  OW  HW  HW  OW  HW  HW  OW  HW  HW  OW  HW  HW  OW  HW  HW  OW  
HW  HW  OW  HW  HW  OW  HW  HW  OW  HW  HW  OW  HW  HW  OW  HW  HW  OW  HW  HW  
OW  HW  HW  OW  HW  HW  OW  HW  HW  OW  HW  HW  OW  HW  HW  OW  HW  HW  OW  HW  
HW  OW  HW  HW  OW  HW  HW  OW  HW  HW  OW  HW  HW  OW  HW  HW  OW  HW  HW  OW  
HW  HW  OW  HW  HW  OW  HW  HW  OW  HW  HW  OW  HW  HW  OW  HW  HW  OW  HW  HW  
OW  HW  HW  OW  HW  HW  OW  HW  HW  OW  HW  HW  OW  HW  HW  OW  HW  HW  OW  HW  
HW  OW  HW  HW  OW  HW  HW  OW  HW  HW  OW  HW  HW  OW  HW  HW  OW  HW  HW  OW  
HW  HW  OW  HW  HW  OW  HW  HW  OW  HW  HW  OW  HW  HW  OW  HW  HW  OW  HW  HW  
OW  HW  HW  OW  HW  HW  OW  HW  HW  OW  HW  HW  OW  HW  HW  OW  HW  HW  OW  HW  
HW  OW  HW  HW  OW  HW  HW  OW  HW  HW  OW  HW  HW  OW  HW  HW  OW  HW  HW  OW  
HW  HW  OW  HW  HW  OW  HW  HW  OW  HW  HW  OW  HW  HW  OW  HW  HW  OW  HW  HW  
OW  HW  HW  OW  HW  HW  OW  HW  HW  OW  HW  HW  OW  HW  HW  OW  HW  HW  OW  HW  
HW  OW  HW  HW  OW  HW  HW  OW  HW  HW  OW  HW  HW  OW  HW  HW  OW  HW  HW  OW  
HW  HW  OW  HW  HW  OW  HW  HW  OW  HW  HW  OW  HW  HW  OW  HW  HW  OW  HW  HW  
OW  HW  HW  OW  HW  HW  OW  HW  HW  OW  HW  HW  OW  HW  HW  OW  HW  HW  OW  HW  
HW  OW  HW  HW  OW  HW  HW  OW  HW  HW  OW  HW  HW  OW  HW  HW  OW  HW  HW  OW  
HW  HW  OW  HW  HW  OW  HW  HW  OW  HW  HW  OW  HW  HW  OW  HW  HW  OW  HW  HW  
OW  HW  HW  OW  HW  HW  OW  HW  HW  OW  HW  HW  OW  HW  HW  OW  HW  HW  OW  HW  
HW  OW  HW  HW  OW  HW  HW  OW  HW  HW  OW  HW  HW  OW  HW  HW  OW  HW  HW  OW  
HW  HW  OW  HW  HW  OW  HW  HW  OW  HW  HW  OW  HW  HW  OW  HW  HW  OW  HW  HW  
OW  HW  HW  OW  HW  HW  OW  HW  HW  OW  HW  HW  OW  HW  HW  OW  HW  HW  OW  HW  
HW  OW  HW  HW  OW  HW  HW  OW  HW  HW  OW  HW  HW  OW  HW  HW  OW  HW  HW  OW  
HW  HW  OW  HW  HW  OW  HW  HW  OW  HW  HW  OW  HW  HW  OW  HW  HW  OW  HW  HW  
OW  HW  HW  OW  HW  HW  OW  HW  HW  OW  HW  HW  OW  HW  HW  OW  HW  HW  OW  HW  
HW  OW  HW  HW  OW  HW  HW  OW  HW  HW  OW  HW  HW  OW  HW  HW  OW  HW  HW  OW  
HW  HW  OW  HW  HW  OW  HW  HW  OW  HW  HW  OW  HW  HW  OW  HW  HW  OW  HW  HW  
OW  HW  HW  OW  HW  HW  OW  HW  HW  OW  HW  HW  OW  HW  HW  OW  HW  HW  OW  HW  
HW  OW  HW  HW  OW  HW  HW  OW  HW  HW  OW  HW  HW  OW  HW  HW  OW  HW  HW  OW  
HW  HW  OW  HW  HW  OW  HW  HW  OW  HW  HW  OW  HW  HW  OW  HW  HW  OW  HW  HW  
OW  HW  HW  OW  HW  HW  OW  HW  HW  OW  HW  HW  OW  HW  HW  OW  HW  HW  OW  HW  
HW  OW  HW  HW  OW  HW  HW  OW  HW  HW  OW  HW  HW  OW  HW  HW  OW  HW  HW  OW  
HW  HW  OW  HW  HW  OW  HW  HW  OW  HW  HW  OW  HW  HW  OW  HW  HW  OW  HW  HW  
OW  HW  HW  OW  HW  HW  OW  HW  HW  OW  HW  HW  OW  HW  HW  OW  HW  HW  OW  HW  
HW  OW  HW  HW  OW  HW  HW  OW  HW  HW  OW  HW  HW  OW  HW  HW  OW  HW  HW  OW  
HW  HW  OW  HW  HW  OW  HW  HW  OW  HW  HW  OW  HW  HW  OW  HW  HW  OW  HW  HW  
OW  HW  HW  OW  HW  HW  OW  HW  HW  OW  HW  HW  OW  HW  HW  OW  HW  HW  OW  HW  
HW  OW  HW  HW  OW  HW  HW  OW  HW  HW  OW  HW  HW  OW  HW  HW  OW  HW  HW  OW  
HW  HW  OW  HW  HW  OW  HW  HW  OW  HW  HW  OW  HW  HW  OW  HW  HW  OW  HW  HW  
OW  HW  HW  OW  HW  HW  OW  HW  HW  OW  HW  HW  OW  HW  HW  OW  HW  HW  OW  HW  
HW  OW  HW  HW  OW  HW  HW  OW  HW  HW  OW  HW  HW  OW  HW  HW  OW  HW  HW  OW  
HW  HW  OW  HW  HW  OW  HW  HW  OW  HW  HW  OW  HW  HW  OW  HW  HW  OW  HW  HW  
OW  HW  HW  OW  HW  HW  OW  HW  HW  OW  HW  HW  OW  HW  HW  OW  HW  HW  OW  HW  
HW  OW  HW  HW  OW  HW  HW  OW  HW  HW  OW  HW  HW  OW  HW  HW  OW  HW  HW  OW  
HW  HW  OW  HW  HW  OW  HW  HW  OW  HW  HW  OW  HW  HW  OW  HW  HW  OW  HW  HW  
OW  HW  HW  OW  HW  HW  OW  HW  HW  OW  HW  HW  OW  HW  HW  OW  HW  HW  OW  HW  
HW  OW  HW  HW  OW  HW  HW  OW  HW  HW  OW  HW  HW  OW  HW  HW  OW  HW  HW  OW  
HW  HW  OW  HW  HW  OW  HW  HW  OW  HW  HW  OW  HW  HW  OW  HW  HW  OW  HW  HW  
OW  HW  HW  OW  HW  HW  OW  HW  HW  OW  HW  HW  OW  HW  HW  OW  HW  HW  OW  HW  
HW  OW  HW  HW  OW  HW  HW  OW  HW  HW  OW  HW  HW  OW  HW  HW  OW  HW  HW  OW  
HW  HW  OW  HW  HW  OW  HW  HW  OW  HW  HW  OW  HW  HW  OW  HW  HW  OW  HW  HW  
OW  HW  HW  OW  HW  HW  OW  HW  HW  OW  HW  HW  OW  HW  HW  OW  HW  HW  OW  HW  
HW  OW  HW  HW  OW  HW  HW  OW  HW  HW  OW  HW  HW  OW  HW  HW  OW  HW  HW  OW  
HW  HW  OW  HW  HW  OW  HW  HW  OW  HW  HW  OW  HW  HW  OW  HW  HW  OW  HW  HW  
OW  HW  HW  OW  HW  HW  OW  HW  HW  OW  HW  HW  OW  HW  HW  OW  HW  HW  OW  HW  
HW  OW  HW  HW  OW  HW  HW  OW  HW  HW  OW  HW  HW  OW  HW  HW  OW  HW  HW  OW  
HW  HW  OW  HW  HW  OW  HW  HW  OW  HW  HW  OW  HW  HW  OW  HW  HW  OW  HW  HW  
OW  HW  HW  OW  HW  HW  OW  HW  HW  OW  HW  HW  OW  HW  HW  OW  HW  HW  OW  HW  
HW  OW  HW  HW  OW  HW  HW  OW  HW  HW  OW  HW  HW  OW  HW  HW  OW  HW  HW  OW  
HW  HW  OW  HW  HW  OW  HW  HW  OW  HW  HW  OW  HW  HW  OW  HW  HW  OW  HW  HW  
OW  HW  HW  OW  HW  HW  OW  HW  HW  OW  HW  HW  OW  HW  HW  OW  HW  HW  OW  HW  
HW  OW  HW  HW  OW  HW  HW  OW  HW  HW  OW  HW  HW  OW  HW  HW  OW  HW  HW  OW  
HW  HW  OW  HW  HW  OW  HW  HW  OW  HW  HW  OW  HW  HW  OW  HW  HW  OW  HW  HW  
OW  HW  HW  OW  HW  HW  OW  HW  HW  OW  HW  HW  OW  HW  HW  OW  HW  HW  OW  HW  
HW  OW  HW  HW  OW  HW  HW  OW  HW  HW  OW  HW  HW  OW  HW  HW  OW  HW  HW  OW  
HW  HW  OW  HW  HW  OW  HW  HW  OW  HW  HW  OW  HW  HW  OW  HW  HW  OW  HW  HW  
OW  HW  HW  OW  HW  HW  OW  HW  HW  OW  HW  HW  OW  HW  HW  OW  HW  HW  OW  HW  
HW  OW  HW  HW  OW  HW  HW  OW  HW  HW  OW  HW  HW  OW  HW  HW  OW  HW  HW  OW  
HW  HW  OW  HW  HW  OW  HW  HW  OW  HW  HW  OW  HW  HW  OW  HW  HW  OW  HW  HW  
OW  HW  HW  OW  HW  HW  OW  HW  HW  OW  HW  HW  OW  HW  HW  OW  HW  HW  OW  HW  
HW  OW  HW  HW  OW  HW  HW  OW  HW  HW  OW  HW  HW  OW  HW  HW  OW  HW  HW  OW  
HW  HW  OW  HW  HW  OW  HW  HW  OW  HW  HW  OW  HW  HW  OW  HW  HW  OW  HW  HW  
OW  HW  HW  OW  HW  HW  OW  HW  HW  OW  HW  HW  OW  HW  HW  OW  HW  HW  OW  HW  
HW  OW  HW  HW  OW  HW  HW  OW  HW  HW  OW  HW  HW  OW  HW  HW  OW  HW  HW  OW  
HW  HW  OW  HW  HW  OW  HW  HW  OW  HW  HW  OW  HW  HW  OW  HW  HW  OW  HW  HW  
OW  HW  HW  OW  HW  HW  OW  HW  HW  OW  HW  HW  OW  HW  HW  OW  HW  HW  OW  HW  
HW  OW  HW  HW  OW  HW  HW  OW  HW  HW  OW  HW  HW  OW  HW  HW  OW  HW  HW  OW  
HW  HW  OW  HW  HW  OW  HW  HW  OW  HW  HW  OW  HW  HW  OW  HW  HW  OW  HW  HW  
OW  HW  HW  OW  HW  HW  OW  HW  HW  OW  HW  HW  OW  HW  HW  OW  HW  HW  OW  HW  
HW  OW  HW  HW  OW  HW  HW  OW  HW  HW  OW  HW  HW  OW  HW  HW  OW  HW  HW  OW  
HW  HW  OW  HW  HW  OW  HW  HW  OW  HW  HW  OW  HW  HW  OW  HW  HW  OW  HW  HW  
OW  HW  HW  OW  HW  HW  OW  HW  HW  OW  HW  HW  OW  HW  HW  OW  HW  HW  OW  HW  
HW  OW  HW  HW  OW  HW  HW  OW  HW  HW  OW  HW  HW  OW  HW  HW  OW  HW  HW  OW  
HW  HW  OW  HW  HW  OW  HW  HW  OW  HW  HW  OW  HW  HW  OW  HW  HW  OW  HW  HW  
OW  HW  HW  OW  HW  HW  OW  HW  HW  OW  HW  HW  OW  HW  HW  OW  HW  HW  OW  HW  
HW  OW  HW  HW  OW  HW  HW  OW  HW  HW  OW  HW  HW  OW  HW  HW  OW  HW  HW  OW  
HW  HW  OW  HW  HW  OW  HW  HW  OW  HW  HW  OW  HW  HW  OW  HW  HW  OW  HW  HW  
OW  HW  HW  OW  HW  HW  OW  HW  HW  OW  HW  HW  OW  HW  HW  OW  HW  HW  OW  HW  
HW  OW  HW  HW  OW  HW  HW  OW  HW  HW  OW  HW  HW  OW  HW  HW  OW  HW  HW  OW  
HW  HW  OW  HW  HW  OW  HW  HW  OW  HW  HW  OW  HW  HW  OW  HW  HW  OW  HW  HW  
OW  HW  HW  OW  HW  HW  OW  HW  HW  OW  HW  HW  OW  HW  HW  OW  HW  HW  OW  HW  
HW  OW  HW  HW  OW  HW  HW  OW  HW  HW  OW  HW  HW  OW  HW  HW  OW  HW  HW  OW  
HW  HW  OW  HW  HW  OW  HW  HW  OW  HW  HW  OW  HW  HW  OW  HW  HW  OW  HW  HW  
OW  HW  HW  OW  HW  HW  OW  HW  HW  OW  HW  HW  OW  HW  HW  OW  HW  HW  OW  HW  
HW  OW  HW  HW  OW  HW  HW  OW  HW  HW  OW  HW  HW  OW  HW  HW  OW  HW  HW  OW  
HW  HW  OW  HW  HW  OW  HW  HW  OW  HW  HW  OW  HW  HW  OW  HW  HW  OW  HW  HW  
OW  HW  HW  OW  HW  HW  OW  HW  HW  OW  HW  HW  OW  HW  HW  OW  HW  HW  OW  HW  
HW  OW  HW  HW  OW  HW  HW  OW  HW  HW  OW  HW  HW  OW  HW  HW  OW  HW  HW  OW  
HW  HW  OW  HW  HW  OW  HW  HW  OW  HW  HW  OW  HW  HW  OW  HW  HW  OW  HW  HW  
OW  HW  HW  OW  HW  HW  OW  HW  HW  OW  HW  HW  OW  HW  HW  OW  HW  HW  OW  HW  
HW  OW  HW  HW  OW  HW  HW  OW  HW  HW  OW  HW  HW  OW  HW  HW  OW  HW  HW  OW  
HW  HW  OW  HW  HW  OW  HW  HW  OW  HW  HW  OW  HW  HW  OW  HW  HW  OW  HW  HW  
OW  HW  HW  OW  HW  HW  OW  HW  HW  OW  HW  HW  OW  HW  HW  OW  HW  HW  OW  HW  
HW  OW  HW  HW  OW  HW  HW  OW  HW  HW  OW  HW  HW  OW  HW  HW  OW  HW  HW  OW  
HW  HW  OW  HW  HW  OW  HW  HW  OW  HW  HW  OW  HW  HW  OW  HW  HW  OW  HW  HW  
OW  HW  HW  OW  HW  HW  OW  HW  HW  OW  HW  HW  OW  HW  HW  OW  HW  HW  OW  HW  
HW  OW  HW  HW  OW  HW  HW  OW  HW  HW  OW  HW  HW  OW  HW  HW  OW  HW  HW  OW  
HW  HW  OW  HW  HW  OW  HW  HW  OW  HW  HW  OW  HW  HW  OW  HW  HW  OW  HW  HW  
OW  HW  HW  OW  HW  HW  OW  HW  HW  OW  HW  HW  OW  HW  HW  OW  HW  HW  OW  HW  
HW  OW  HW  HW  OW  HW  HW  OW  HW  HW  OW  HW  HW  OW  HW  HW  OW  HW  HW  OW  
HW  HW  OW  HW  HW  OW  HW  HW  OW  HW  HW  OW  HW  HW  OW  HW  HW  OW  HW  HW  
OW  HW  HW  OW  HW  HW  OW  HW  HW  OW  HW  HW  OW  HW  HW  OW  HW  HW  OW  HW  
HW  OW  HW  HW  OW  HW  HW  OW  HW  HW  OW  HW  HW  OW  HW  HW  OW  HW  HW  OW  
HW  HW  OW  HW  HW  OW  HW  HW  OW  HW  HW  OW  HW  HW  OW  HW  HW  OW  HW  HW  
OW  HW  HW  OW  HW  HW  OW  HW  HW  OW  HW  HW  OW  HW  HW  OW  HW  HW  OW  HW  
HW  OW  HW  HW  OW  HW  HW  OW  HW  HW  OW  HW  HW  OW  HW  HW  OW  HW  HW  OW  
HW  HW  OW  HW  HW  OW  HW  HW  OW  HW  HW  OW  HW  HW  OW  HW  HW  OW  HW  HW  
OW  HW  HW  OW  HW  HW  OW  HW  HW  OW  HW  HW  OW  HW  HW  OW  HW  HW  OW  HW  
HW  OW  HW  HW  OW  HW  HW  OW  HW  HW  OW  HW  HW  OW  HW  HW  OW  HW  HW  OW  
HW  HW  OW  HW  HW  OW  HW  HW  OW  HW  HW  OW  HW  HW  OW  HW  HW  OW  HW  HW  
OW  HW  HW  OW  HW  HW  OW  HW  HW  OW  HW  HW  OW  HW  HW  OW  HW  HW  OW  HW  
HW  OW  HW  HW  OW  HW  HW  OW  HW  HW  OW  HW  HW  OW  HW  HW  OW  HW  HW  OW  
HW  HW  OW  HW  HW  OW  HW  HW  OW  HW  HW  OW  HW  HW  OW  HW  HW  OW  HW  HW  
OW  HW  HW  OW  HW  HW  OW  HW  HW  OW  HW  HW  OW  HW  HW  OW  HW  HW  OW  HW  
HW  OW  HW  HW  OW  HW  HW  OW  HW  HW  OW  HW  HW  OW  HW  HW  OW  HW  HW  OW  
HW  HW  OW  HW  HW  OW  HW  HW  OW  HW  HW  OW  HW  HW  OW  HW  HW  OW  HW  HW  
OW  HW  HW  OW  HW  HW  OW  HW  HW  OW  HW  HW  OW  HW  HW  OW  HW  HW  OW  HW  
HW  OW  HW  HW  OW  HW  HW  OW  HW  HW  OW  HW  HW  OW  HW  HW  OW  HW  HW  OW  
HW  HW  OW  HW  HW  OW  HW  HW  OW  HW  HW  OW  HW  HW  OW  HW  HW  OW  HW  HW  
OW  HW  HW  OW  HW  HW  OW  HW  HW  OW  HW  HW  OW  HW  HW  OW  HW  HW  OW  HW  
HW  OW  HW  HW  OW  HW  HW  OW  HW  HW  OW  HW  HW  OW  HW  HW  OW  HW  HW  OW  
HW  HW  OW  HW  HW  OW  HW  HW  OW  HW  HW  OW  HW  HW  OW  HW  HW  OW  HW  HW  
OW  HW  HW  OW  HW  HW  OW  HW  HW  OW  HW  HW  OW  HW  HW  OW  HW  HW  OW  HW  
HW  OW  HW  HW  OW  HW  HW  OW  HW  HW  OW  HW  HW  OW  HW  HW  OW  HW  HW  OW  
HW  HW  OW  HW  HW  OW  HW  HW  OW  HW  HW  OW  HW  HW  OW  HW  HW  OW  HW  HW  
OW  HW  HW  OW  HW  HW  OW  HW  HW  OW  HW  HW  OW  HW  HW  OW  HW  HW  OW  HW  
HW  OW  HW  HW  OW  HW  HW  OW  HW  HW  OW  HW  HW  OW  HW  HW  OW  HW  HW  OW  
HW  HW  OW  HW  HW  OW  HW  HW  OW  HW  HW  OW  HW  HW  OW  HW  HW  OW  HW  HW  
OW  HW  HW  OW  HW  HW  OW  HW  HW  OW  HW  HW  OW  HW  HW  OW  HW  HW  OW  HW  
HW  OW  HW  HW  OW  HW  HW  OW  HW  HW  OW  HW  HW  OW  HW  HW  OW  HW  HW  OW  
HW  HW  OW  HW  HW  OW  HW  HW  OW  HW  HW  OW  HW  HW  OW  HW  HW  OW  HW  HW  
OW  HW  HW  OW  HW  HW  OW  HW  HW  OW  HW  HW  OW  HW  HW  OW  HW  HW  OW  HW  
HW  OW  HW  HW  OW  HW  HW  OW  HW  HW  OW  HW  HW  OW  HW  HW  OW  HW  HW  OW  
HW  HW  OW  HW  HW  OW  HW  HW  OW  HW  HW  OW  HW  HW  OW  HW  HW  OW  HW  HW  
OW  HW  HW  OW  HW  HW  OW  HW  HW  OW  HW  HW  OW  HW  HW  OW  HW  HW  OW  HW  
HW  OW  HW  HW  OW  HW  HW  OW  HW  HW  OW  HW  HW  OW  HW  HW  OW  HW  HW  OW  
HW  HW  OW  HW  HW  OW  HW  HW  OW  HW  HW  OW  HW  HW  OW  HW  HW  OW  HW  HW  
OW  HW  HW  OW  HW  HW  OW  HW  HW  OW  HW  HW  OW  HW  HW  OW  HW  HW  OW  HW  
HW  OW  HW  HW  OW  HW  HW  OW  HW  HW  OW  HW  HW  OW  HW  HW  OW  HW  HW  OW  
HW  HW  OW  HW  HW  OW  HW  HW  OW  HW  HW  OW  HW  HW  OW  HW  HW  OW  HW  HW  
OW  HW  HW  OW  HW  HW  OW  HW  HW  OW  HW  HW  OW  HW  HW  OW  HW  HW  OW  HW  
HW  OW  HW  HW  OW  HW  HW  OW  HW  HW  OW  HW  HW  OW  HW  HW  OW  HW  HW  OW  
HW  HW  OW  HW  HW  OW  HW  HW  OW  HW  HW  OW  HW  HW  OW  HW  HW  OW  HW  HW  
OW  HW  HW  OW  HW  HW  OW  HW  HW  OW  HW  HW  OW  HW  HW  OW  HW  HW  OW  HW  
HW  OW  HW  HW  OW  HW  HW  OW  HW  HW  OW  HW  HW  OW  HW  HW  OW  HW  HW  OW  
HW  HW  OW  HW  HW  OW  HW  HW  OW  HW  HW  OW  HW  HW  OW  HW  HW  OW  HW  HW  
OW  HW  HW  OW  HW  HW  OW  HW  HW  OW  HW  HW  OW  HW  HW  OW  HW  HW  OW  HW  
HW  OW  HW  HW  OW  HW  HW  OW  HW  HW  OW  HW  HW  OW  HW  HW  OW  HW  HW  OW  
HW  HW  OW  HW  HW  OW  HW  HW  OW  HW  HW  OW  HW  HW  OW  HW  HW  OW  HW  HW  
OW  HW  HW  OW  HW  HW  OW  HW  HW  OW  HW  HW  OW  HW  HW  OW  HW  HW  OW  HW  
HW  OW  HW  HW  OW  HW  HW  OW  HW  HW  OW  HW  HW  OW  HW  HW  OW  HW  HW  OW  
HW  HW  OW  HW  HW  OW  HW  HW  OW  HW  HW  OW  HW  HW  OW  HW  HW  OW  HW  HW  
OW  HW  HW  OW  HW  HW  OW  HW  HW  OW  HW  HW  OW  HW  HW  OW  HW  HW  OW  HW  
HW  OW  HW  HW  OW  HW  HW  OW  HW  HW  OW  HW  HW  OW  HW  HW  OW  HW  HW  OW  
HW  HW  OW  HW  HW  OW  HW  HW  OW  HW  HW  OW  HW  HW  OW  HW  HW  OW  HW  HW  
OW  HW  HW  OW  HW  HW  OW  HW  HW  OW  HW  HW  OW  HW  HW  OW  HW  HW  OW  HW  
HW  OW  HW  HW  OW  HW  HW  OW  HW  HW  OW  HW  HW  OW  HW  HW  OW  HW  HW  OW  
HW  HW  OW  HW  HW  OW  HW  HW  OW  HW  HW  OW  HW  HW  OW  HW  HW  OW  HW  HW  
OW  HW  HW  OW  HW  HW  OW  HW  HW  OW  HW  HW  OW  HW  HW  OW  HW  HW  OW  HW  
HW  OW  HW  HW  OW  HW  HW  OW  HW  HW  OW  HW  HW  OW  HW  HW  OW  HW  HW  OW  
HW  HW  OW  HW  HW  OW  HW  HW  OW  HW  HW  OW  HW  HW  OW  HW  HW  OW  HW  HW  
OW  HW  HW  OW  HW  HW  OW  HW  HW  OW  HW  HW  OW  HW  HW  OW  HW  HW  OW  HW  
HW  OW  HW  HW  OW  HW  HW  OW  HW  HW  OW  HW  HW  OW  HW  HW  OW  HW  HW  OW  
HW  HW  OW  HW  HW  OW  HW  HW  OW  HW  HW  OW  HW  HW  OW  HW  HW  OW  HW  HW  
OW  HW  HW  OW  HW  HW  OW  HW  HW  OW  HW  HW  OW  HW  HW  OW  HW  HW  OW  HW  
HW  OW  HW  HW  OW  HW  HW  OW  HW  HW  OW  HW  HW  OW  HW  HW  OW  HW  HW  OW  
HW  HW  OW  HW  HW  OW  HW  HW  OW  HW  HW  OW  HW  HW  OW  HW  HW  OW  HW  HW  
OW  HW  HW  OW  HW  HW  OW  HW  HW  OW  HW  HW  OW  HW  HW  OW  HW  HW  OW  HW  
HW  OW  HW  HW  OW  HW  HW  OW  HW  HW  OW  HW  HW  OW  HW  HW  OW  HW  HW  OW  
HW  HW  OW  HW  HW  OW  HW  HW  OW  HW  HW  OW  HW  HW  OW  HW  HW  OW  HW  HW  
OW  HW  HW  OW  HW  HW  OW  HW  HW  OW  HW  HW  OW  HW  HW  OW  HW  HW  OW  HW  
HW  OW  HW  HW  OW  HW  HW  OW  HW  HW  OW  HW  HW  OW  HW  HW  OW  HW  HW  OW  
HW  HW  OW  HW  HW  OW  HW  HW  OW  HW  HW  OW  HW  HW  OW  HW  HW  OW  HW  HW  
OW  HW  HW  OW  HW  HW  OW  HW  HW  OW  HW  HW  OW  HW  HW  OW  HW  HW  OW  HW  
HW  OW  HW  HW  OW  HW  HW  OW  HW  HW  OW  HW  HW  OW  HW  HW  OW  HW  HW  OW  
HW  HW  OW  HW  HW  OW  HW  HW  OW  HW  HW  OW  HW  HW  OW  HW  HW  OW  HW  HW  
OW  HW  HW  OW  HW  HW  OW  HW  HW  OW  HW  HW  OW  HW  HW  OW  HW  HW  OW  HW  
HW  OW  HW  HW  OW  HW  HW  OW  HW  HW  OW  HW  HW  OW  HW  HW  OW  HW  HW  OW  
HW  HW  OW  HW  HW  OW  HW  HW  OW  HW  HW  OW  HW  HW  OW  HW  HW  OW  HW  HW  
OW  HW  HW  OW  HW  HW  OW  HW  HW  OW  HW  HW  OW  HW  HW  OW  HW  HW  OW  HW  
HW  OW  HW  HW  OW  HW  HW  OW  HW  HW  OW  HW  HW  OW  HW  HW  OW  HW  HW  OW  
HW  HW  OW  HW  HW  OW  HW  HW  OW  HW  HW  OW  HW  HW  OW  HW  HW  OW  HW  HW  
OW  HW  HW  OW  HW  HW  OW  HW  HW  OW  HW  HW  OW  HW  HW  OW  HW  HW  OW  HW  
HW  OW  HW  HW  OW  HW  HW  OW  HW  HW  OW  HW  HW  OW  HW  HW  OW  HW  HW  OW  
HW  HW  OW  HW  HW  OW  HW  HW  OW  HW  HW  OW  HW  HW  OW  HW  HW  OW  HW  HW  
OW  HW  HW  OW  HW  HW  OW  HW  HW  OW  HW  HW  OW  HW  HW  OW  HW  HW  OW  HW  
HW  OW  HW  HW  OW  HW  HW  OW  HW  HW  OW  HW  HW  OW  HW  HW  OW  HW  HW  OW  
HW  HW  OW  HW  HW  OW  HW  HW  OW  HW  HW  OW  HW  HW  OW  HW  HW  OW  HW  HW  
OW  HW  HW  OW  HW  HW  OW  HW  HW  OW  HW  HW  OW  HW  HW  OW  HW  HW  OW  HW  
HW  OW  HW  HW  OW  HW  HW  OW  HW  HW  OW  HW  HW  OW  HW  HW  OW  HW  HW  OW  
HW  HW  OW  HW  HW  OW  HW  HW  OW  HW  HW  OW  HW  HW  OW  HW  HW  OW  HW  HW  
%FLAG TREE_CHAIN_CLASSIFICATION
%FORMAT(20a4)
BLA BLA BLA BLA BLA BLA BLA BLA BLA M   E   M   E   3   E   3   E   E   E   3   
E   E   3   E   E   E   M   E   M   E   M   E   3   E   3   E   E   E   3   E   
E   E   M   E   M   E   M   E   3   E   E   3   E   E   B   B   B   E   M   E   
E   E   E   M   E   M   E   3   E   E   3   E   E   B   E   B   E   E   M   E   
M   E   M   E   3   E   E   E   M   E   M   E   M   E   3   E   E   E   M   E   
M   E   M   E   3   E   3   E   E   E   S   E   M   E   M   E   M   E   3   E   
E   S   E   M   E   M   E   M   E   3   E   3   E   E   E   3   E   E   3   E   
E   E   M   E   M   E   M   E   3   E   E   E   M   E   M   E   M   E   3   E   
E   S   E   M   E   M   E   M   E   3   E   E   3   E   3   E   E   E   3   E   
E   E   M   E   M   E   M   E   3   E   E   B   B   E   B   E   B   S   E   S   
E   S   E   M   E   M   E   M   E   3   E   E   3   E   E   B   E   B   E   E   
M   E   M   E   M   E   3   E   E   3   E   3   E   E   E   3   E   E   E   M   
E   M   E   M   E   3   E   E   3   E   E   B   B   B   E   M   E   E   E   E   
M   E   M   E   3   E   E   B   E   B   E   E   M   E   M   E   M   E   3   E   
E   B   B   E   B   E   B   S   E   S   E   S   E   M   E   M   E   M   E   3   
E   E   E   M   E   BLA BLA BLA BLA BLA BLA BLA BLA BLA BLA BLA BLA BLA BLA BLA 
BLA BLA BLA BLA BLA BLA BLA BLA BLA BLA BLA BLA BLA BLA BLA BLA BLA BLA BLA BLA 
BLA BLA M   E   M   E   3   E   3   E   E   E   3   E   E   E   M   E   M   E   
M   E   3   E   E   B   E   B   E   E   M   E   M   E   M   E   3   E   E   3   
E   E   B   E   B   E   E   M   E   M   E   M   E   3   E   E   B   S   E   S   
E   B   E   B   E   M   E   M   E   M   E   3   E   E   3   E   3   E   E   E   
3   E   E   E   M   E   M   E   M   E   3   E   E   E   M   E   M   E   M   E   
E   M   E   M   E   M   E   3   E   E   S   E   M   E   M   E   M   E   3   E   
E   B   S   E   S   E   B   E   B   E   M   E   M   E   M   E   3   E   E   3   
E   3   E   E   E   3   E   E   E   M   E   M   E   M   E   3   E   3   E   E   
E   3   E   E   E   M   E   M   E   M   E   3   E   E   3   E   E   B   B   B   
E   M   E   E   E   E   M   E   M   E   3   E   E   E   M   E   M   E   M   E   
3   E   E   3   E   3   E   E   E   3   E   E   E   M   E   M   E   M   E   3   
E   E   B   B   E   B   E   B   S   E   S   E   S   E   M   E   M   E   M   E   
3   E   E   3   E   3   E   E   E   3   E   E   E   M   E   M   E   M   E   3   
E   3   E   E   E   3   E   E   E   M   E   M   E   M   E   3   E   E   E   M   
E   M   E   M   E   E   M   E   M   E   M   E   3   E   E   3   E   E   B   B   
B   E   M   E   E   E   E   M   E   M   E   3   E   E   3   E   E   3   E   E   
B   E   B   B   E   E   B   E   E   M   E   M   E   M   E   E   M   E   M   E   
M   E   3   E   E   B   B   E   B   E   B   E   S   E   S   E   M   E   M   E   
M   E   3   E   E   B   B   E   B   E   B   E   S   E   S   E   M   E   M   E   
M   E   3   E   E   B   B   E   B   E   B   S   E   S   E   S   E   M   E   M   
E   M   E   3   E   3   E   E   E   S   E   M   E   M   3   E   E   3   E   E   
B   E   E   M   E   M   E   M   E   M   E   3   E   E   3   E   E   3   E   E   
3   E   E   3   E   E   E   M   E   BLA BLA BLA BLA BLA BLA BLA BLA BLA BLA BLA 
BLA BLA BLA BLA BLA BLA BLA BLA BLA BLA BLA BLA BLA BLA BLA BLA BLA BLA BLA BLA 
BLA BLA BLA BLA BLA BLA BLA BLA BLA BLA BLA BLA BLA BLA BLA BLA BLA BLA BLA BLA 
BLA BLA BLA BLA BLA BLA BLA BLA BLA BLA BLA BLA BLA BLA BLA BLA BLA BLA BLA BLA 
BLA BLA BLA BLA BLA BLA BLA BLA BLA BLA BLA BLA BLA BLA BLA BLA BLA BLA BLA BLA 
BLA BLA BLA BLA BLA BLA BLA BLA BLA BLA BLA BLA BLA BLA BLA BLA BLA BLA BLA BLA 
BLA BLA BLA BLA BLA BLA BLA BLA BLA BLA BLA BLA BLA BLA BLA BLA BLA BLA BLA BLA 
BLA BLA BLA BLA BLA BLA BLA BLA BLA BLA BLA BLA BLA BLA BLA BLA BLA BLA BLA BLA 
BLA BLA BLA BLA BLA BLA BLA BLA BLA BLA BLA BLA BLA BLA BLA BLA BLA BLA BLA BLA 
BLA BLA BLA BLA BLA BLA BLA BLA BLA BLA BLA BLA BLA BLA BLA BLA BLA BLA BLA BLA 
BLA BLA BLA BLA BLA BLA BLA BLA BLA BLA BLA BLA BLA BLA BLA BLA BLA BLA BLA BLA 
BLA BLA BLA BLA BLA BLA BLA BLA BLA BLA BLA BLA BLA BLA BLA BLA BLA BLA BLA BLA 
BLA BLA BLA BLA BLA BLA BLA BLA BLA BLA BLA BLA BLA BLA BLA BLA BLA BLA BLA BLA 
BLA BLA BLA BLA BLA BLA BLA BLA BLA BLA BLA BLA BLA BLA BLA BLA BLA BLA BLA BLA 
BLA BLA BLA BLA BLA BLA BLA BLA BLA BLA BLA BLA BLA BLA BLA BLA BLA BLA BLA BLA 
BLA BLA BLA BLA BLA BLA BLA BLA BLA BLA BLA BLA BLA BLA BLA BLA BLA BLA BLA BLA 
BLA BLA BLA BLA BLA BLA BLA BLA BLA BLA BLA BLA BLA BLA BLA BLA BLA BLA BLA BLA 
BLA BLA BLA BLA BLA BLA BLA BLA BLA BLA BLA BLA BLA BLA BLA BLA BLA BLA BLA BLA 
BLA BLA BLA BLA BLA BLA BLA BLA BLA BLA BLA BLA BLA BLA BLA BLA BLA BLA BLA BLA 
BLA BLA BLA BLA BLA BLA BLA BLA BLA BLA BLA BLA BLA BLA BLA BLA BLA BLA BLA BLA 
BLA BLA BLA BLA BLA BLA BLA BLA BLA BLA BLA BLA BLA BLA BLA BLA BLA BLA BLA BLA 
BLA BLA BLA BLA BLA BLA BLA BLA BLA BLA BLA BLA BLA BLA BLA BLA BLA BLA BLA BLA 
BLA BLA BLA BLA BLA BLA BLA BLA BLA BLA BLA BLA BLA BLA BLA BLA BLA BLA BLA BLA 
BLA BLA BLA BLA BLA BLA BLA BLA BLA BLA BLA BLA BLA BLA BLA BLA BLA BLA BLA BLA 
BLA BLA BLA BLA BLA BLA BLA BLA BLA BLA BLA BLA BLA BLA BLA BLA BLA BLA BLA BLA 
BLA BLA BLA BLA BLA BLA BLA BLA BLA BLA BLA BLA BLA BLA BLA BLA BLA BLA BLA BLA 
BLA BLA BLA BLA BLA BLA BLA BLA BLA BLA BLA BLA BLA BLA BLA BLA BLA BLA BLA BLA 
BLA BLA BLA BLA BLA BLA BLA BLA BLA BLA BLA BLA BLA BLA BLA BLA BLA BLA BLA BLA 
BLA BLA BLA BLA BLA BLA BLA BLA BLA BLA BLA BLA BLA BLA BLA BLA BLA BLA BLA BLA 
BLA BLA BLA BLA BLA BLA BLA BLA BLA BLA BLA BLA BLA BLA BLA BLA BLA BLA BLA BLA 
BLA BLA BLA BLA BLA BLA BLA BLA BLA BLA BLA BLA BLA BLA BLA BLA BLA BLA BLA BLA 
BLA BLA BLA BLA BLA BLA BLA BLA BLA BLA BLA BLA BLA BLA BLA BLA BLA BLA BLA BLA 
BLA BLA BLA BLA BLA BLA BLA BLA BLA BLA BLA BLA BLA BLA BLA BLA BLA BLA BLA BLA 
BLA BLA BLA BLA BLA BLA BLA BLA BLA BLA BLA BLA BLA BLA BLA BLA BLA BLA BLA BLA 
BLA BLA BLA BLA BLA BLA BLA BLA BLA BLA BLA BLA BLA BLA BLA BLA BLA BLA BLA BLA 
BLA BLA BLA BLA BLA BLA BLA BLA BLA BLA BLA BLA BLA BLA BLA BLA BLA BLA BLA BLA 
BLA BLA BLA BLA BLA BLA BLA BLA BLA BLA BLA BLA BLA BLA BLA BLA BLA BLA BLA BLA 
BLA BLA BLA BLA BLA BLA BLA BLA BLA BLA BLA BLA BLA BLA BLA BLA BLA BLA BLA BLA 
BLA BLA BLA BLA BLA BLA BLA BLA BLA BLA BLA BLA BLA BLA BLA BLA BLA BLA BLA BLA 
BLA BLA BLA BLA BLA BLA BLA BLA BLA BLA BLA BLA BLA BLA BLA BLA BLA BLA BLA BLA 
BLA BLA BLA BLA BLA BLA BLA BLA BLA BLA BLA BLA BLA BLA BLA BLA BLA BLA BLA BLA 
BLA BLA BLA BLA BLA BLA BLA BLA BLA BLA BLA BLA BLA BLA BLA BLA BLA BLA BLA BLA 
BLA BLA BLA BLA BLA BLA BLA BLA BLA BLA BLA BLA BLA BLA BLA BLA BLA BLA BLA BLA 
BLA BLA BLA BLA BLA BLA BLA BLA BLA BLA BLA BLA BLA BLA BLA BLA BLA BLA BLA BLA 
BLA BLA BLA BLA BLA BLA BLA BLA BLA BLA BLA BLA BLA BLA BLA BLA BLA BLA BLA BLA 
BLA BLA BLA BLA BLA BLA BLA BLA BLA BLA BLA BLA BLA BLA BLA BLA BLA BLA BLA BLA 
BLA BLA BLA BLA BLA BLA BLA BLA BLA BLA BLA BLA BLA BLA BLA BLA BLA BLA BLA BLA 
BLA BLA BLA BLA BLA BLA BLA BLA BLA BLA BLA BLA BLA BLA BLA BLA BLA BLA BLA BLA 
BLA BLA BLA BLA BLA BLA BLA BLA BLA BLA BLA BLA BLA BLA BLA BLA BLA BLA BLA BLA 
BLA BLA BLA BLA BLA BLA BLA BLA BLA BLA BLA BLA BLA BLA BLA BLA BLA BLA BLA BLA 
BLA BLA BLA BLA BLA BLA BLA BLA BLA BLA BLA BLA BLA BLA BLA BLA BLA BLA BLA BLA 
BLA BLA BLA BLA BLA BLA BLA BLA BLA BLA BLA BLA BLA BLA BLA BLA BLA BLA BLA BLA 
BLA BLA BLA BLA BLA BLA BLA BLA BLA BLA BLA BLA BLA BLA BLA BLA BLA BLA BLA BLA 
BLA BLA BLA BLA BLA BLA BLA BLA BLA BLA BLA BLA BLA BLA BLA BLA BLA BLA BLA BLA 
BLA BLA BLA BLA BLA BLA BLA BLA BLA BLA BLA BLA BLA BLA BLA BLA BLA BLA BLA BLA 
BLA BLA BLA BLA BLA BLA BLA BLA BLA BLA BLA BLA BLA BLA BLA BLA BLA BLA BLA BLA 
BLA BLA BLA BLA BLA BLA BLA BLA BLA BLA BLA BLA BLA BLA BLA BLA BLA BLA BLA BLA 
BLA BLA BLA BLA BLA BLA BLA BLA BLA BLA BLA BLA BLA BLA BLA BLA BLA BLA BLA BLA 
BLA BLA BLA BLA BLA BLA BLA BLA BLA BLA BLA BLA BLA BLA BLA BLA BLA BLA BLA BLA 
BLA BLA BLA BLA BLA BLA BLA BLA BLA BLA BLA BLA BLA BLA BLA BLA BLA BLA BLA BLA 
BLA BLA BLA BLA BLA BLA BLA BLA BLA BLA BLA BLA BLA BLA BLA BLA BLA BLA BLA BLA 
BLA BLA BLA BLA BLA BLA BLA BLA BLA BLA BLA BLA BLA BLA BLA BLA BLA BLA BLA BLA 
BLA BLA BLA BLA BLA BLA BLA BLA BLA BLA BLA BLA BLA BLA BLA BLA BLA BLA BLA BLA 
BLA BLA BLA BLA BLA BLA BLA BLA BLA BLA BLA BLA BLA BLA BLA BLA BLA BLA BLA BLA 
BLA BLA BLA BLA BLA BLA BLA BLA BLA BLA BLA BLA BLA BLA BLA BLA BLA BLA BLA BLA 
BLA BLA BLA BLA BLA BLA BLA BLA BLA BLA BLA BLA BLA BLA BLA BLA BLA BLA BLA BLA 
BLA BLA BLA BLA BLA BLA BLA BLA BLA BLA BLA BLA BLA BLA BLA BLA BLA BLA BLA BLA 
BLA BLA BLA BLA BLA BLA BLA BLA BLA BLA BLA BLA BLA BLA BLA BLA BLA BLA BLA BLA 
BLA BLA BLA BLA BLA BLA BLA BLA BLA BLA BLA BLA BLA BLA BLA BLA BLA BLA BLA BLA 
BLA BLA BLA BLA BLA BLA BLA BLA BLA BLA BLA BLA BLA BLA BLA BLA BLA BLA BLA BLA 
BLA BLA BLA BLA BLA BLA BLA BLA BLA BLA BLA BLA BLA BLA BLA BLA BLA BLA BLA BLA 
BLA BLA BLA BLA BLA BLA BLA BLA BLA BLA BLA BLA BLA BLA BLA BLA BLA BLA BLA BLA 
BLA BLA BLA BLA BLA BLA BLA BLA BLA BLA BLA BLA BLA BLA BLA BLA BLA BLA BLA BLA 
BLA BLA BLA BLA BLA BLA BLA BLA BLA BLA BLA BLA BLA BLA BLA BLA BLA BLA BLA BLA 
BLA BLA BLA BLA BLA BLA BLA BLA BLA BLA BLA BLA BLA BLA BLA BLA BLA BLA BLA BLA 
BLA BLA BLA BLA BLA BLA BLA BLA BLA BLA BLA BLA BLA BLA BLA BLA BLA BLA BLA BLA 
BLA BLA BLA BLA BLA BLA BLA BLA BLA BLA BLA BLA BLA BLA BLA BLA BLA BLA BLA BLA 
BLA BLA BLA BLA BLA BLA BLA BLA BLA BLA BLA BLA BLA BLA BLA BLA BLA BLA BLA BLA 
BLA BLA BLA BLA BLA BLA BLA BLA BLA BLA BLA BLA BLA BLA BLA BLA BLA BLA BLA BLA 
BLA BLA BLA BLA BLA BLA BLA BLA BLA BLA BLA BLA BLA BLA BLA BLA BLA BLA BLA BLA 
BLA BLA BLA BLA BLA BLA BLA BLA BLA BLA BLA BLA BLA BLA BLA BLA BLA BLA BLA BLA 
BLA BLA BLA BLA BLA BLA BLA BLA BLA BLA BLA BLA BLA BLA BLA BLA BLA BLA BLA BLA 
BLA BLA BLA BLA BLA BLA BLA BLA BLA BLA BLA BLA BLA BLA BLA BLA BLA BLA BLA BLA 
BLA BLA BLA BLA BLA BLA BLA BLA BLA BLA BLA BLA BLA BLA BLA BLA BLA BLA BLA BLA 
BLA BLA BLA BLA BLA BLA BLA BLA BLA BLA BLA BLA BLA BLA BLA BLA BLA BLA BLA BLA 
BLA BLA BLA BLA BLA BLA BLA BLA BLA BLA BLA BLA BLA BLA BLA BLA BLA BLA BLA BLA 
BLA BLA BLA BLA BLA BLA BLA BLA BLA BLA BLA BLA BLA BLA BLA BLA BLA BLA BLA BLA 
BLA BLA BLA BLA BLA BLA BLA BLA BLA BLA BLA BLA BLA BLA BLA BLA BLA BLA BLA BLA 
BLA BLA BLA BLA BLA BLA BLA BLA BLA BLA BLA BLA BLA BLA BLA BLA BLA BLA BLA BLA 
BLA BLA BLA BLA BLA BLA BLA BLA BLA BLA BLA BLA BLA BLA BLA BLA BLA BLA BLA BLA 
BLA BLA BLA BLA BLA BLA BLA BLA BLA BLA BLA BLA BLA BLA BLA BLA BLA BLA BLA BLA 
BLA BLA BLA BLA BLA BLA BLA BLA BLA BLA BLA BLA BLA BLA BLA BLA BLA BLA BLA BLA 
BLA BLA BLA BLA BLA BLA BLA BLA BLA BLA BLA BLA BLA BLA BLA BLA BLA BLA BLA BLA 
BLA BLA BLA BLA BLA BLA BLA BLA BLA BLA BLA BLA BLA BLA BLA BLA BLA BLA BLA BLA 
BLA BLA BLA BLA BLA BLA BLA BLA BLA BLA BLA BLA BLA BLA BLA BLA BLA BLA BLA BLA 
BLA BLA BLA BLA BLA BLA BLA BLA BLA BLA BLA BLA BLA BLA BLA BLA BLA BLA BLA BLA 
BLA BLA BLA BLA BLA BLA BLA BLA BLA BLA BLA BLA BLA BLA BLA BLA BLA BLA BLA BLA 
BLA BLA BLA BLA BLA BLA BLA BLA BLA BLA BLA BLA BLA BLA BLA BLA BLA BLA BLA BLA 
BLA BLA BLA BLA BLA BLA BLA BLA BLA BLA BLA BLA BLA BLA BLA BLA BLA BLA BLA BLA 
BLA BLA BLA BLA BLA BLA BLA BLA BLA BLA BLA BLA BLA BLA BLA BLA BLA BLA BLA BLA 
BLA BLA BLA BLA BLA BLA BLA BLA BLA BLA BLA BLA BLA BLA BLA BLA BLA BLA BLA BLA 
BLA BLA BLA BLA BLA BLA BLA BLA BLA BLA BLA BLA BLA BLA BLA BLA BLA BLA BLA BLA 
BLA BLA BLA BLA BLA BLA BLA BLA BLA BLA BLA BLA BLA BLA BLA BLA BLA BLA BLA BLA 
BLA BLA BLA BLA BLA BLA BLA BLA BLA BLA BLA BLA BLA BLA BLA BLA BLA BLA BLA BLA 
BLA BLA BLA BLA BLA BLA BLA BLA BLA BLA BLA BLA BLA BLA BLA BLA BLA BLA BLA BLA 
BLA BLA BLA BLA BLA BLA BLA BLA BLA BLA BLA BLA BLA BLA BLA BLA BLA BLA BLA BLA 
BLA BLA BLA BLA BLA BLA BLA BLA BLA BLA BLA BLA BLA BLA BLA BLA BLA BLA BLA BLA 
BLA BLA BLA BLA BLA BLA BLA BLA BLA BLA BLA BLA BLA BLA BLA BLA BLA BLA BLA BLA 
BLA BLA BLA BLA BLA BLA BLA BLA BLA BLA BLA BLA BLA BLA BLA BLA BLA BLA BLA BLA 
BLA BLA BLA BLA BLA BLA BLA BLA BLA BLA BLA BLA BLA BLA BLA BLA BLA BLA BLA BLA 
BLA BLA BLA BLA BLA BLA BLA BLA BLA BLA BLA BLA BLA BLA BLA BLA BLA BLA BLA BLA 
BLA BLA BLA BLA BLA BLA BLA BLA BLA BLA BLA BLA BLA BLA BLA BLA BLA BLA BLA BLA 
BLA BLA BLA BLA BLA BLA BLA BLA BLA BLA BLA BLA BLA BLA BLA BLA BLA BLA BLA BLA 
BLA BLA BLA BLA BLA BLA BLA BLA BLA BLA BLA BLA BLA BLA BLA BLA BLA BLA BLA BLA 
BLA BLA BLA BLA BLA BLA BLA BLA BLA BLA BLA BLA BLA BLA BLA BLA BLA BLA BLA BLA 
BLA BLA BLA BLA BLA BLA BLA BLA BLA BLA BLA BLA BLA BLA BLA BLA BLA BLA BLA BLA 
BLA BLA BLA BLA BLA BLA BLA BLA BLA BLA BLA BLA BLA BLA BLA BLA BLA BLA BLA BLA 
BLA BLA BLA BLA BLA BLA BLA BLA BLA BLA BLA BLA BLA BLA BLA BLA BLA BLA BLA BLA 
BLA BLA BLA BLA BLA BLA BLA BLA BLA BLA BLA BLA BLA BLA BLA BLA BLA BLA BLA BLA 
BLA BLA BLA BLA BLA BLA BLA BLA BLA BLA BLA BLA BLA BLA BLA BLA BLA BLA BLA BLA 
BLA BLA BLA BLA BLA BLA BLA BLA BLA BLA BLA BLA BLA BLA BLA BLA BLA BLA BLA BLA 
BLA BLA BLA BLA BLA BLA BLA BLA BLA BLA BLA BLA BLA BLA BLA BLA BLA BLA BLA BLA 
BLA BLA BLA BLA BLA BLA BLA BLA BLA BLA BLA BLA BLA BLA BLA BLA BLA BLA BLA BLA 
BLA BLA BLA BLA BLA BLA BLA BLA BLA BLA BLA BLA BLA BLA BLA BLA BLA BLA BLA BLA 
BLA BLA BLA BLA BLA BLA BLA BLA BLA BLA BLA BLA BLA BLA BLA BLA BLA BLA BLA BLA 
BLA BLA BLA BLA BLA BLA BLA BLA BLA BLA BLA BLA BLA BLA BLA BLA BLA BLA BLA BLA 
BLA BLA BLA BLA BLA BLA BLA BLA BLA BLA BLA BLA BLA BLA BLA BLA BLA BLA BLA BLA 
BLA BLA BLA BLA BLA BLA BLA BLA BLA BLA BLA BLA BLA BLA BLA BLA BLA BLA BLA BLA 
BLA BLA BLA BLA BLA BLA BLA BLA BLA BLA BLA BLA BLA BLA BLA BLA BLA BLA BLA BLA 
BLA BLA BLA BLA BLA BLA BLA BLA BLA BLA BLA BLA BLA BLA BLA BLA BLA BLA BLA BLA 
BLA BLA BLA BLA BLA BLA BLA BLA BLA BLA BLA BLA BLA BLA BLA BLA BLA BLA BLA BLA 
BLA BLA BLA BLA BLA BLA BLA BLA BLA BLA BLA BLA BLA BLA BLA BLA BLA BLA BLA BLA 
BLA BLA BLA BLA BLA BLA BLA BLA BLA BLA BLA BLA BLA BLA BLA BLA BLA BLA BLA BLA 
BLA BLA BLA BLA BLA BLA BLA BLA BLA BLA BLA BLA BLA BLA BLA BLA BLA BLA BLA BLA 
BLA BLA BLA BLA BLA BLA BLA BLA BLA BLA BLA BLA BLA BLA BLA BLA BLA BLA BLA BLA 
BLA BLA BLA BLA BLA BLA BLA BLA BLA BLA BLA BLA BLA BLA BLA BLA BLA BLA BLA BLA 
BLA BLA BLA BLA BLA BLA BLA BLA BLA BLA BLA BLA BLA BLA BLA BLA BLA BLA BLA BLA 
BLA BLA BLA BLA BLA BLA BLA BLA BLA BLA BLA BLA BLA BLA BLA BLA BLA BLA BLA BLA 
BLA BLA BLA BLA BLA BLA BLA BLA BLA BLA BLA BLA BLA BLA BLA BLA BLA BLA BLA BLA 
BLA BLA BLA BLA BLA BLA BLA BLA BLA BLA BLA BLA BLA BLA BLA BLA BLA BLA BLA BLA 
BLA BLA BLA BLA BLA BLA BLA BLA BLA BLA BLA BLA BLA BLA BLA BLA BLA BLA BLA BLA 
BLA BLA BLA BLA BLA BLA BLA BLA BLA BLA BLA BLA BLA BLA BLA BLA BLA BLA BLA BLA 
BLA BLA BLA BLA BLA BLA BLA BLA BLA BLA BLA BLA BLA BLA BLA BLA BLA BLA BLA BLA 
BLA BLA BLA BLA BLA BLA BLA BLA BLA BLA BLA BLA BLA BLA BLA BLA BLA BLA BLA BLA 
BLA BLA BLA BLA BLA BLA BLA BLA BLA BLA BLA BLA BLA BLA BLA BLA BLA BLA BLA BLA 
BLA BLA BLA BLA BLA BLA BLA BLA BLA BLA BLA BLA BLA BLA BLA BLA BLA BLA BLA BLA 
BLA BLA BLA BLA BLA BLA BLA BLA BLA BLA BLA BLA BLA BLA BLA BLA BLA BLA BLA BLA 
BLA BLA BLA BLA BLA BLA BLA BLA BLA BLA BLA BLA BLA BLA BLA BLA BLA BLA BLA BLA 
BLA BLA BLA BLA BLA BLA BLA BLA BLA BLA BLA BLA BLA BLA BLA BLA BLA BLA BLA BLA 
BLA BLA BLA BLA BLA BLA BLA BLA BLA BLA BLA BLA BLA BLA BLA BLA BLA BLA BLA BLA 
BLA BLA BLA BLA BLA BLA BLA BLA BLA BLA BLA BLA BLA BLA BLA BLA BLA BLA BLA BLA 
BLA BLA BLA BLA BLA BLA BLA BLA BLA BLA BLA BLA BLA BLA BLA BLA BLA BLA BLA BLA 
BLA BLA BLA BLA BLA BLA BLA BLA BLA BLA BLA BLA BLA BLA BLA BLA BLA BLA BLA BLA 
BLA BLA BLA BLA BLA BLA BLA BLA BLA BLA BLA BLA BLA BLA BLA BLA BLA BLA BLA BLA 
BLA BLA BLA BLA BLA BLA BLA BLA BLA BLA BLA BLA BLA BLA BLA BLA BLA BLA BLA BLA 
BLA BLA BLA BLA BLA BLA BLA BLA BLA BLA BLA BLA BLA BLA BLA BLA BLA BLA BLA BLA 
BLA BLA BLA BLA BLA BLA BLA BLA BLA BLA BLA BLA BLA BLA BLA BLA BLA BLA BLA BLA 
BLA BLA BLA BLA BLA BLA BLA BLA BLA BLA BLA BLA BLA BLA BLA BLA BLA BLA BLA BLA 
BLA BLA BLA BLA BLA BLA BLA BLA BLA BLA BLA BLA BLA BLA BLA BLA BLA BLA BLA BLA 
BLA BLA BLA BLA BLA BLA BLA BLA BLA BLA BLA BLA BLA BLA BLA BLA BLA BLA BLA BLA 
BLA BLA BLA BLA BLA BLA BLA BLA BLA BLA BLA BLA BLA BLA BLA BLA BLA BLA BLA BLA 
BLA BLA BLA BLA BLA BLA BLA BLA BLA BLA BLA BLA BLA BLA BLA BLA BLA BLA BLA BLA 
BLA BLA BLA BLA BLA BLA BLA BLA BLA BLA BLA BLA BLA BLA BLA BLA BLA BLA BLA BLA 
BLA BLA BLA BLA BLA BLA BLA BLA BLA BLA BLA BLA BLA BLA BLA BLA BLA BLA BLA BLA 
BLA BLA BLA BLA BLA BLA BLA BLA BLA BLA BLA BLA BLA BLA BLA BLA BLA BLA BLA BLA 
BLA BLA BLA BLA BLA BLA BLA BLA BLA BLA BLA BLA BLA BLA BLA BLA BLA BLA BLA BLA 
BLA BLA BLA BLA BLA BLA BLA BLA BLA BLA BLA BLA BLA BLA BLA BLA BLA BLA BLA BLA 
BLA BLA BLA BLA BLA BLA BLA BLA BLA BLA BLA BLA BLA BLA BLA BLA BLA BLA BLA BLA 
BLA BLA BLA BLA BLA BLA BLA BLA BLA BLA BLA BLA BLA BLA BLA BLA BLA BLA BLA BLA 
BLA BLA BLA BLA BLA BLA BLA BLA BLA BLA BLA BLA BLA BLA BLA BLA BLA BLA BLA BLA 
BLA BLA BLA BLA BLA BLA BLA BLA BLA BLA BLA BLA BLA BLA BLA BLA BLA BLA BLA BLA 
BLA BLA BLA BLA BLA BLA BLA BLA BLA BLA BLA BLA BLA BLA BLA BLA BLA BLA BLA BLA 
BLA BLA BLA BLA BLA BLA BLA BLA BLA BLA BLA BLA BLA BLA BLA BLA BLA BLA BLA BLA 
BLA BLA BLA BLA BLA BLA BLA BLA BLA BLA BLA BLA BLA BLA BLA BLA BLA BLA BLA BLA 
BLA BLA BLA BLA BLA BLA BLA BLA BLA BLA BLA BLA BLA BLA BLA BLA BLA BLA BLA BLA 
BLA BLA BLA BLA BLA BLA BLA BLA BLA BLA BLA BLA BLA BLA BLA BLA BLA BLA BLA BLA 
BLA BLA BLA BLA BLA BLA BLA BLA BLA BLA BLA BLA BLA BLA BLA BLA BLA BLA BLA BLA 
BLA BLA BLA BLA BLA BLA BLA BLA BLA BLA BLA BLA BLA BLA BLA BLA BLA BLA BLA BLA 
BLA BLA BLA BLA BLA BLA BLA BLA BLA BLA BLA BLA BLA BLA BLA BLA BLA BLA BLA BLA 
BLA BLA BLA BLA BLA BLA BLA BLA BLA BLA BLA BLA BLA BLA BLA BLA BLA BLA BLA BLA 
BLA BLA BLA BLA BLA BLA BLA BLA BLA BLA BLA BLA BLA BLA BLA BLA BLA BLA BLA BLA 
BLA BLA BLA BLA BLA BLA BLA BLA BLA BLA BLA BLA BLA BLA BLA BLA BLA BLA BLA BLA 
BLA BLA BLA BLA BLA BLA BLA BLA BLA BLA BLA BLA BLA BLA BLA BLA BLA BLA BLA BLA 
BLA BLA BLA BLA BLA BLA BLA BLA BLA BLA BLA BLA BLA BLA BLA BLA BLA BLA BLA BLA 
BLA BLA BLA BLA BLA BLA BLA BLA BLA BLA BLA BLA BLA BLA BLA BLA BLA BLA BLA BLA 
BLA BLA BLA BLA BLA BLA BLA BLA BLA BLA BLA BLA BLA BLA BLA BLA BLA BLA BLA BLA 
BLA BLA BLA BLA BLA BLA BLA BLA BLA BLA BLA BLA BLA BLA BLA BLA BLA BLA BLA BLA 
BLA BLA BLA BLA BLA BLA BLA BLA BLA BLA BLA BLA BLA BLA BLA BLA BLA BLA BLA BLA 
BLA BLA BLA BLA BLA BLA BLA BLA BLA BLA BLA BLA BLA BLA BLA BLA BLA BLA BLA BLA 
BLA BLA BLA BLA BLA BLA BLA BLA BLA BLA BLA BLA BLA BLA BLA BLA BLA BLA BLA BLA 
BLA BLA BLA BLA BLA BLA BLA BLA BLA BLA BLA BLA BLA BLA BLA BLA BLA BLA BLA BLA 
BLA BLA BLA BLA BLA BLA BLA BLA BLA BLA BLA BLA BLA BLA BLA BLA BLA BLA BLA BLA 
BLA BLA BLA BLA BLA BLA BLA BLA BLA BLA BLA BLA BLA BLA BLA BLA BLA BLA BLA BLA 
BLA BLA BLA BLA BLA BLA BLA BLA BLA BLA BLA BLA BLA BLA BLA BLA BLA BLA BLA BLA 
BLA BLA BLA BLA BLA BLA BLA BLA BLA BLA BLA BLA BLA BLA BLA BLA BLA BLA BLA BLA 
BLA BLA BLA BLA BLA BLA BLA BLA BLA BLA BLA BLA BLA BLA BLA BLA BLA BLA BLA BLA 
BLA BLA BLA BLA BLA BLA BLA BLA BLA BLA BLA BLA BLA BLA BLA BLA BLA BLA BLA BLA 
BLA BLA BLA BLA BLA BLA BLA BLA BLA BLA BLA BLA BLA BLA BLA BLA BLA BLA BLA BLA 
BLA BLA BLA BLA BLA BLA BLA BLA BLA BLA BLA BLA BLA BLA BLA BLA BLA BLA BLA BLA 
BLA BLA BLA BLA BLA BLA BLA BLA BLA BLA BLA BLA BLA BLA BLA BLA BLA BLA BLA BLA 
BLA BLA BLA BLA BLA BLA BLA BLA BLA BLA BLA BLA BLA BLA BLA BLA BLA BLA BLA BLA 
BLA BLA BLA BLA BLA BLA BLA BLA BLA BLA BLA BLA BLA BLA BLA BLA BLA BLA BLA BLA 
BLA BLA BLA BLA BLA BLA BLA BLA BLA BLA BLA BLA BLA BLA BLA BLA BLA BLA BLA BLA 
BLA BLA BLA BLA BLA BLA BLA BLA BLA BLA BLA BLA BLA BLA BLA BLA BLA BLA BLA BLA 
BLA BLA BLA BLA BLA BLA BLA BLA BLA BLA BLA BLA BLA BLA BLA BLA BLA BLA BLA BLA 
BLA BLA BLA BLA BLA BLA BLA BLA BLA BLA BLA BLA BLA BLA BLA BLA BLA BLA BLA BLA 
BLA BLA BLA BLA BLA BLA BLA BLA BLA BLA BLA BLA BLA BLA BLA BLA BLA BLA BLA BLA 
BLA BLA BLA BLA BLA BLA BLA BLA BLA BLA BLA BLA BLA BLA BLA BLA BLA BLA BLA BLA 
BLA BLA BLA BLA BLA BLA BLA BLA BLA BLA BLA BLA BLA BLA BLA BLA BLA BLA BLA BLA 
BLA BLA BLA BLA BLA BLA BLA BLA BLA BLA BLA BLA BLA BLA BLA BLA BLA BLA BLA BLA 
BLA BLA BLA BLA BLA BLA BLA BLA BLA BLA BLA BLA BLA BLA BLA BLA BLA BLA BLA BLA 
BLA BLA BLA BLA BLA BLA BLA BLA BLA BLA BLA BLA BLA BLA BLA BLA BLA BLA BLA BLA 
BLA BLA BLA BLA BLA BLA BLA BLA BLA BLA BLA BLA BLA BLA BLA BLA BLA BLA BLA BLA 
BLA BLA BLA BLA BLA BLA BLA BLA BLA BLA BLA BLA BLA BLA BLA BLA BLA BLA BLA BLA 
BLA BLA BLA BLA BLA BLA BLA BLA BLA BLA BLA BLA BLA BLA BLA BLA BLA BLA BLA BLA 
BLA BLA BLA BLA BLA BLA BLA BLA BLA BLA BLA BLA BLA BLA BLA BLA BLA BLA BLA BLA 
BLA BLA BLA BLA BLA BLA BLA BLA BLA BLA BLA BLA BLA BLA BLA BLA BLA BLA BLA BLA 
BLA BLA BLA BLA BLA BLA BLA BLA BLA BLA BLA BLA BLA BLA BLA BLA BLA BLA BLA BLA 
BLA BLA BLA BLA BLA BLA BLA BLA BLA BLA BLA BLA BLA BLA BLA BLA BLA BLA BLA BLA 
BLA BLA BLA BLA BLA BLA BLA BLA BLA BLA BLA BLA BLA BLA BLA BLA BLA BLA BLA BLA 
BLA BLA BLA BLA BLA BLA BLA BLA BLA BLA BLA BLA BLA BLA BLA BLA BLA BLA BLA BLA 
BLA BLA BLA BLA BLA BLA BLA BLA BLA BLA BLA BLA BLA BLA BLA BLA BLA BLA BLA BLA 
BLA BLA BLA BLA BLA BLA BLA BLA BLA BLA BLA BLA BLA BLA BLA BLA BLA BLA BLA BLA 
BLA BLA BLA BLA BLA BLA BLA BLA BLA BLA BLA BLA BLA BLA BLA BLA BLA BLA BLA BLA 
BLA BLA BLA BLA BLA BLA BLA BLA BLA BLA BLA BLA BLA BLA BLA BLA BLA BLA BLA BLA 
BLA BLA BLA BLA BLA BLA BLA BLA BLA BLA BLA BLA BLA BLA BLA BLA BLA BLA BLA BLA 
BLA BLA BLA BLA BLA BLA BLA BLA BLA BLA BLA BLA BLA BLA BLA BLA BLA BLA BLA BLA 
BLA BLA BLA BLA BLA BLA BLA BLA BLA BLA BLA BLA BLA BLA BLA BLA BLA BLA BLA BLA 
BLA BLA BLA BLA BLA BLA BLA BLA BLA BLA BLA BLA BLA BLA BLA BLA BLA BLA BLA BLA 
BLA BLA BLA BLA BLA BLA BLA BLA BLA BLA BLA BLA BLA BLA BLA BLA BLA BLA BLA BLA 
BLA BLA BLA BLA BLA BLA BLA BLA BLA BLA BLA BLA BLA BLA BLA BLA BLA BLA BLA BLA 
BLA BLA BLA BLA BLA BLA BLA BLA BLA BLA BLA BLA BLA BLA BLA BLA BLA BLA BLA BLA 
BLA BLA BLA BLA BLA BLA BLA BLA BLA BLA BLA BLA BLA BLA BLA BLA BLA BLA BLA BLA 
BLA BLA BLA BLA BLA BLA BLA BLA BLA BLA BLA BLA BLA BLA BLA BLA BLA BLA BLA BLA 
BLA BLA BLA BLA BLA BLA BLA BLA BLA BLA BLA BLA BLA BLA BLA BLA BLA BLA BLA BLA 
BLA BLA BLA BLA BLA BLA BLA BLA BLA BLA BLA BLA BLA BLA BLA BLA BLA BLA BLA BLA 
BLA BLA BLA BLA BLA BLA BLA BLA BLA BLA BLA BLA BLA BLA BLA BLA BLA BLA BLA BLA 
BLA BLA BLA BLA BLA BLA BLA BLA BLA BLA BLA BLA BLA BLA BLA BLA BLA BLA BLA BLA 
BLA BLA BLA BLA BLA BLA BLA BLA BLA BLA BLA BLA BLA BLA BLA BLA BLA BLA BLA BLA 
BLA BLA BLA BLA BLA BLA BLA BLA BLA BLA BLA BLA BLA BLA BLA BLA BLA BLA BLA BLA 
BLA BLA BLA BLA BLA BLA BLA BLA BLA BLA BLA BLA BLA BLA BLA BLA BLA BLA BLA BLA 
BLA BLA BLA BLA BLA BLA BLA BLA BLA BLA BLA BLA BLA BLA BLA BLA BLA BLA BLA BLA 
BLA BLA BLA BLA BLA BLA BLA BLA BLA BLA BLA BLA BLA BLA BLA BLA BLA BLA BLA BLA 
BLA BLA BLA BLA BLA BLA BLA BLA BLA BLA BLA BLA BLA BLA BLA BLA BLA BLA BLA BLA 
BLA BLA BLA BLA BLA BLA BLA BLA BLA BLA BLA BLA BLA BLA BLA BLA BLA BLA BLA BLA 
BLA BLA BLA BLA BLA BLA BLA BLA BLA BLA BLA BLA BLA BLA BLA BLA BLA BLA BLA BLA 
BLA BLA BLA BLA BLA BLA BLA BLA BLA BLA BLA BLA BLA BLA BLA BLA BLA BLA BLA BLA 
BLA BLA BLA BLA BLA BLA BLA BLA BLA BLA BLA BLA BLA BLA BLA BLA BLA BLA BLA BLA 
BLA BLA BLA BLA BLA BLA BLA BLA BLA BLA BLA BLA BLA BLA BLA BLA BLA BLA BLA BLA 
BLA BLA BLA BLA BLA BLA BLA BLA BLA BLA BLA BLA BLA BLA BLA BLA BLA BLA BLA BLA 
BLA BLA BLA BLA BLA BLA BLA BLA BLA BLA BLA BLA BLA BLA BLA BLA BLA BLA BLA BLA 
BLA BLA BLA BLA BLA BLA BLA BLA BLA BLA BLA BLA BLA BLA BLA BLA BLA BLA BLA BLA 
BLA BLA BLA BLA BLA BLA BLA BLA BLA BLA BLA BLA BLA BLA BLA BLA BLA BLA BLA BLA 
BLA BLA BLA BLA BLA BLA BLA BLA BLA BLA BLA BLA BLA BLA BLA BLA BLA BLA BLA BLA 
BLA BLA BLA BLA BLA BLA BLA BLA BLA BLA BLA BLA BLA BLA BLA BLA BLA BLA BLA BLA 
BLA BLA BLA BLA BLA BLA BLA BLA BLA BLA BLA BLA BLA BLA BLA BLA BLA BLA BLA BLA 
BLA BLA BLA BLA BLA BLA BLA BLA BLA BLA BLA BLA BLA BLA BLA BLA BLA BLA BLA BLA 
BLA BLA BLA BLA BLA BLA BLA BLA BLA BLA BLA BLA BLA BLA BLA BLA BLA BLA BLA BLA 
BLA BLA BLA BLA BLA BLA BLA BLA BLA BLA BLA BLA BLA BLA BLA BLA BLA BLA BLA BLA 
BLA BLA BLA BLA BLA BLA BLA BLA BLA BLA BLA BLA BLA BLA BLA BLA BLA BLA BLA BLA 
BLA BLA BLA BLA BLA BLA BLA BLA BLA BLA BLA BLA BLA BLA BLA BLA BLA BLA BLA BLA 
BLA BLA BLA BLA BLA BLA BLA BLA BLA BLA BLA BLA BLA BLA BLA BLA BLA BLA BLA BLA 
BLA BLA BLA BLA BLA BLA BLA BLA BLA BLA BLA BLA BLA BLA BLA BLA BLA BLA BLA BLA 
BLA BLA BLA BLA BLA BLA BLA BLA BLA BLA BLA BLA BLA BLA BLA BLA BLA BLA BLA BLA 
BLA BLA BLA BLA BLA BLA BLA BLA BLA BLA BLA BLA BLA BLA BLA BLA BLA BLA BLA BLA 
BLA BLA BLA BLA BLA BLA BLA BLA BLA BLA BLA BLA BLA BLA BLA BLA BLA BLA BLA BLA 
BLA BLA BLA BLA BLA BLA BLA BLA BLA BLA BLA BLA BLA BLA BLA BLA BLA BLA BLA BLA 
BLA BLA BLA BLA BLA BLA BLA BLA BLA BLA BLA BLA BLA BLA BLA BLA BLA BLA BLA BLA 
BLA BLA BLA BLA BLA BLA BLA BLA BLA BLA BLA BLA BLA BLA BLA BLA BLA BLA BLA BLA 
BLA BLA BLA BLA BLA BLA BLA BLA BLA BLA BLA BLA BLA BLA BLA BLA BLA BLA BLA BLA 
BLA BLA BLA BLA BLA BLA BLA BLA BLA BLA BLA BLA BLA BLA BLA BLA BLA BLA BLA BLA 
BLA BLA BLA BLA BLA BLA BLA BLA BLA BLA BLA BLA BLA BLA BLA BLA BLA BLA BLA BLA 
BLA BLA BLA BLA BLA BLA BLA BLA BLA BLA BLA BLA BLA BLA BLA BLA BLA BLA BLA BLA 
BLA BLA BLA BLA BLA BLA BLA BLA BLA BLA BLA BLA BLA BLA BLA BLA BLA BLA BLA BLA 
BLA BLA BLA BLA BLA BLA BLA BLA BLA BLA BLA BLA BLA BLA BLA BLA BLA BLA BLA BLA 
BLA BLA BLA BLA BLA BLA BLA BLA BLA BLA BLA BLA BLA BLA BLA BLA BLA BLA BLA BLA 
BLA BLA BLA BLA BLA BLA BLA BLA BLA BLA BLA BLA BLA BLA BLA BLA BLA BLA BLA BLA 
BLA BLA BLA BLA BLA BLA BLA BLA BLA BLA BLA BLA BLA BLA BLA BLA BLA BLA BLA BLA 
BLA BLA BLA BLA BLA BLA BLA BLA BLA BLA BLA BLA BLA BLA BLA BLA BLA BLA BLA BLA 
BLA BLA BLA BLA BLA BLA BLA BLA BLA BLA BLA BLA BLA BLA BLA BLA BLA BLA BLA BLA 
BLA BLA BLA BLA BLA BLA BLA BLA BLA BLA BLA BLA BLA BLA BLA BLA BLA BLA BLA BLA 
BLA BLA BLA BLA BLA BLA BLA BLA BLA BLA BLA BLA BLA BLA BLA BLA BLA BLA BLA BLA 
BLA BLA BLA BLA BLA BLA BLA BLA BLA BLA BLA BLA BLA BLA BLA BLA BLA BLA BLA BLA 
BLA BLA BLA BLA BLA BLA BLA BLA BLA BLA BLA BLA BLA BLA BLA BLA BLA BLA BLA BLA 
BLA BLA BLA BLA BLA BLA BLA BLA BLA BLA BLA BLA BLA BLA BLA BLA BLA BLA BLA BLA 
BLA BLA BLA BLA BLA BLA BLA BLA BLA BLA BLA BLA BLA BLA BLA BLA BLA BLA BLA BLA 
BLA BLA BLA BLA BLA BLA BLA BLA BLA BLA BLA BLA BLA BLA BLA BLA BLA BLA BLA BLA 
BLA BLA BLA BLA BLA BLA BLA BLA BLA BLA BLA BLA BLA BLA BLA BLA BLA BLA BLA BLA 
BLA BLA BLA BLA BLA BLA BLA BLA BLA BLA BLA BLA BLA BLA BLA BLA BLA BLA BLA BLA 
BLA BLA BLA BLA BLA BLA BLA BLA BLA BLA BLA BLA BLA BLA BLA BLA BLA BLA BLA BLA 
BLA BLA BLA BLA BLA BLA BLA BLA BLA BLA BLA BLA BLA BLA BLA BLA BLA BLA BLA BLA 
BLA BLA BLA BLA BLA BLA BLA BLA BLA BLA BLA BLA BLA BLA BLA BLA BLA BLA BLA BLA 
BLA BLA BLA BLA BLA BLA BLA BLA BLA BLA BLA BLA BLA BLA BLA BLA BLA BLA BLA BLA 
BLA BLA BLA BLA BLA BLA BLA BLA BLA BLA BLA BLA BLA BLA BLA BLA BLA BLA BLA BLA 
BLA BLA BLA BLA BLA BLA BLA BLA BLA BLA BLA BLA BLA BLA BLA BLA BLA BLA BLA BLA 
BLA BLA BLA BLA BLA BLA BLA BLA BLA BLA BLA BLA BLA BLA BLA BLA BLA BLA BLA BLA 
BLA BLA BLA BLA BLA BLA BLA BLA BLA BLA BLA BLA BLA BLA BLA BLA BLA BLA BLA BLA 
BLA BLA BLA BLA BLA BLA BLA BLA BLA BLA BLA BLA BLA BLA BLA BLA BLA BLA BLA BLA 
BLA BLA BLA BLA BLA BLA BLA BLA BLA BLA BLA BLA BLA BLA BLA BLA BLA BLA BLA BLA 
BLA BLA BLA BLA BLA BLA BLA BLA BLA BLA BLA BLA BLA BLA BLA BLA BLA BLA BLA BLA 
BLA BLA BLA BLA BLA BLA BLA BLA BLA BLA BLA BLA BLA BLA BLA BLA BLA BLA BLA BLA 
BLA BLA BLA BLA BLA BLA BLA BLA BLA BLA BLA BLA BLA BLA BLA BLA BLA BLA BLA BLA 
BLA BLA BLA BLA BLA BLA BLA BLA BLA BLA BLA BLA BLA BLA BLA BLA BLA BLA BLA BLA 
BLA BLA BLA BLA BLA BLA BLA BLA BLA BLA BLA BLA BLA BLA BLA BLA BLA BLA BLA BLA 
BLA BLA BLA BLA BLA BLA BLA BLA BLA BLA BLA BLA BLA BLA BLA BLA BLA BLA BLA BLA 
BLA BLA BLA BLA BLA BLA BLA BLA BLA BLA BLA BLA BLA BLA BLA BLA BLA BLA BLA BLA 
BLA BLA BLA BLA BLA BLA BLA BLA BLA BLA BLA BLA BLA BLA BLA BLA BLA BLA BLA BLA 
BLA BLA BLA BLA BLA BLA BLA BLA BLA BLA BLA BLA BLA BLA BLA BLA BLA BLA BLA BLA 
BLA BLA BLA BLA BLA BLA BLA BLA BLA BLA BLA BLA BLA BLA BLA BLA BLA BLA BLA BLA 
BLA BLA BLA BLA BLA BLA BLA BLA BLA BLA BLA BLA BLA BLA BLA BLA BLA BLA BLA BLA 
BLA BLA BLA BLA BLA BLA BLA BLA BLA BLA BLA BLA BLA BLA BLA BLA BLA BLA BLA BLA 
BLA BLA BLA BLA BLA BLA BLA BLA BLA BLA BLA BLA BLA BLA BLA BLA BLA BLA BLA BLA 
BLA BLA BLA BLA BLA BLA BLA BLA BLA BLA BLA BLA BLA BLA BLA BLA BLA BLA BLA BLA 
BLA BLA BLA BLA BLA BLA BLA BLA BLA BLA BLA BLA BLA BLA BLA BLA BLA BLA BLA BLA 
BLA BLA BLA BLA BLA BLA BLA BLA BLA BLA BLA BLA BLA BLA BLA BLA BLA BLA BLA BLA 
BLA BLA BLA BLA BLA BLA BLA BLA BLA BLA BLA BLA BLA BLA BLA BLA BLA BLA BLA BLA 
BLA BLA BLA BLA BLA BLA BLA BLA BLA BLA BLA BLA BLA BLA BLA BLA BLA BLA BLA BLA 
BLA BLA BLA BLA BLA BLA BLA BLA BLA BLA BLA BLA BLA BLA BLA BLA BLA BLA BLA BLA 
BLA BLA BLA BLA BLA BLA BLA BLA BLA BLA BLA BLA BLA BLA BLA BLA BLA BLA BLA BLA 
BLA BLA BLA BLA BLA BLA BLA BLA BLA BLA BLA BLA BLA BLA BLA BLA BLA BLA BLA BLA 
BLA BLA BLA BLA BLA BLA BLA BLA BLA BLA BLA BLA BLA BLA BLA BLA BLA BLA BLA BLA 
BLA BLA BLA BLA BLA BLA BLA BLA BLA BLA BLA BLA BLA BLA BLA BLA BLA BLA BLA BLA 
BLA BLA BLA BLA BLA BLA BLA BLA BLA BLA BLA BLA BLA BLA BLA BLA BLA BLA BLA BLA 
BLA BLA BLA BLA BLA BLA BLA BLA BLA BLA BLA BLA BLA BLA BLA BLA BLA BLA BLA BLA 
BLA BLA BLA BLA BLA BLA BLA BLA BLA BLA BLA BLA BLA BLA BLA BLA BLA BLA BLA BLA 
BLA BLA BLA BLA BLA BLA BLA BLA BLA BLA BLA BLA BLA BLA BLA BLA BLA BLA BLA BLA 
BLA BLA BLA BLA BLA BLA BLA BLA BLA BLA BLA BLA BLA BLA BLA BLA BLA BLA BLA BLA 
BLA BLA BLA BLA BLA BLA BLA BLA BLA BLA BLA BLA BLA BLA BLA BLA BLA BLA BLA BLA 
BLA BLA BLA BLA BLA BLA BLA BLA BLA BLA BLA BLA BLA BLA BLA BLA BLA BLA BLA BLA 
BLA BLA BLA BLA BLA BLA BLA BLA BLA BLA BLA BLA BLA BLA BLA BLA BLA BLA BLA BLA 
BLA BLA BLA BLA BLA BLA BLA BLA BLA BLA BLA BLA BLA BLA BLA BLA BLA BLA BLA BLA 
BLA BLA BLA BLA BLA BLA BLA BLA BLA BLA BLA BLA BLA BLA BLA BLA BLA BLA BLA BLA 
BLA BLA BLA BLA BLA BLA BLA BLA BLA BLA BLA BLA BLA BLA BLA BLA BLA BLA BLA BLA 
BLA BLA BLA BLA BLA BLA BLA BLA BLA BLA BLA BLA BLA BLA BLA BLA BLA BLA BLA BLA 
BLA BLA BLA BLA BLA BLA BLA BLA BLA BLA BLA BLA BLA BLA BLA BLA BLA BLA BLA BLA 
BLA BLA BLA BLA BLA BLA BLA BLA BLA BLA BLA BLA BLA BLA BLA BLA BLA BLA BLA BLA 
BLA BLA BLA BLA BLA BLA BLA BLA BLA BLA BLA BLA BLA BLA BLA BLA BLA BLA BLA BLA 
BLA BLA BLA BLA BLA BLA BLA BLA BLA BLA BLA BLA BLA BLA BLA BLA BLA BLA BLA BLA 
BLA BLA BLA BLA BLA BLA BLA BLA BLA BLA BLA BLA BLA BLA BLA BLA BLA BLA BLA BLA 
BLA BLA BLA BLA BLA BLA BLA BLA BLA BLA BLA BLA BLA BLA BLA BLA BLA BLA BLA BLA 
BLA BLA BLA BLA BLA BLA BLA BLA BLA BLA BLA BLA BLA BLA BLA BLA BLA BLA BLA BLA 
BLA BLA BLA BLA BLA BLA BLA BLA BLA BLA BLA BLA BLA BLA BLA BLA BLA BLA BLA BLA 
BLA BLA BLA BLA BLA BLA BLA BLA BLA BLA BLA BLA BLA BLA BLA BLA BLA BLA BLA BLA 
BLA BLA BLA BLA BLA BLA BLA BLA BLA BLA BLA BLA BLA BLA BLA BLA BLA BLA BLA BLA 
BLA BLA BLA BLA BLA BLA BLA BLA BLA BLA BLA BLA BLA BLA BLA BLA BLA BLA BLA BLA 
BLA BLA BLA BLA BLA BLA BLA BLA BLA BLA BLA BLA BLA BLA BLA BLA BLA BLA BLA BLA 
BLA BLA BLA BLA BLA BLA BLA BLA BLA BLA BLA BLA BLA BLA BLA BLA BLA BLA BLA BLA 
BLA BLA BLA BLA BLA BLA BLA BLA BLA BLA BLA BLA BLA BLA BLA BLA BLA BLA BLA BLA 
BLA BLA BLA BLA BLA BLA BLA BLA BLA BLA BLA BLA BLA BLA BLA BLA BLA BLA BLA BLA 
BLA BLA BLA BLA BLA BLA BLA BLA BLA BLA BLA BLA BLA BLA BLA BLA BLA BLA BLA BLA 
BLA BLA BLA BLA BLA BLA BLA BLA BLA BLA BLA BLA BLA BLA BLA BLA BLA BLA BLA BLA 
BLA BLA BLA BLA BLA BLA BLA BLA BLA BLA BLA BLA BLA BLA BLA BLA BLA BLA BLA BLA 
BLA BLA BLA BLA BLA BLA BLA BLA BLA BLA BLA BLA BLA BLA BLA BLA BLA BLA BLA BLA 
BLA BLA BLA BLA BLA BLA BLA BLA BLA BLA BLA BLA BLA BLA BLA BLA BLA BLA BLA BLA 
BLA BLA BLA BLA BLA BLA BLA BLA BLA BLA BLA BLA BLA BLA BLA BLA BLA BLA BLA BLA 
BLA BLA BLA BLA BLA BLA BLA BLA BLA BLA BLA BLA BLA BLA BLA BLA BLA BLA BLA BLA 
BLA BLA BLA BLA BLA BLA BLA BLA BLA BLA BLA BLA BLA BLA BLA BLA BLA BLA BLA BLA 
BLA BLA BLA BLA BLA BLA BLA BLA BLA BLA BLA BLA BLA BLA BLA BLA BLA BLA BLA BLA 
BLA BLA BLA BLA BLA BLA BLA BLA BLA BLA BLA BLA BLA BLA BLA BLA BLA BLA BLA BLA 
BLA BLA BLA BLA BLA BLA BLA BLA BLA BLA BLA BLA BLA BLA BLA BLA BLA BLA BLA BLA 
BLA BLA BLA BLA BLA BLA BLA BLA BLA BLA BLA BLA BLA BLA BLA BLA BLA BLA BLA BLA 
BLA BLA BLA BLA BLA BLA BLA BLA BLA BLA BLA BLA BLA BLA BLA BLA BLA BLA BLA BLA 
BLA BLA BLA BLA BLA BLA BLA BLA BLA BLA BLA BLA BLA BLA BLA BLA BLA BLA BLA BLA 
BLA BLA BLA BLA BLA BLA BLA BLA BLA BLA BLA BLA BLA BLA BLA BLA BLA BLA BLA BLA 
BLA BLA BLA BLA BLA BLA BLA BLA BLA BLA BLA BLA BLA BLA BLA BLA BLA BLA BLA BLA 
BLA BLA BLA BLA BLA BLA BLA BLA BLA BLA BLA BLA BLA BLA BLA BLA BLA BLA BLA BLA 
BLA BLA BLA BLA BLA BLA BLA BLA BLA BLA BLA BLA BLA BLA BLA BLA BLA BLA BLA BLA 
BLA BLA BLA BLA BLA BLA BLA BLA BLA BLA BLA BLA BLA BLA BLA BLA BLA BLA BLA BLA 
BLA BLA BLA BLA BLA BLA BLA BLA BLA BLA BLA BLA BLA BLA BLA BLA BLA BLA BLA BLA 
BLA BLA BLA BLA BLA BLA BLA BLA BLA BLA BLA BLA BLA BLA BLA BLA BLA BLA BLA BLA 
BLA BLA BLA BLA BLA BLA BLA BLA BLA BLA BLA BLA BLA BLA BLA BLA BLA BLA BLA BLA 
BLA BLA BLA BLA BLA BLA BLA BLA BLA BLA BLA BLA BLA BLA BLA BLA BLA BLA BLA BLA 
BLA BLA BLA BLA BLA BLA BLA BLA BLA BLA BLA BLA BLA BLA BLA BLA BLA BLA BLA BLA 
BLA BLA BLA BLA BLA BLA BLA BLA BLA BLA BLA BLA BLA BLA BLA BLA BLA BLA BLA BLA 
BLA BLA BLA BLA BLA BLA BLA BLA BLA BLA BLA BLA BLA BLA BLA BLA BLA BLA BLA BLA 
BLA BLA BLA BLA BLA BLA BLA BLA BLA BLA BLA BLA BLA BLA BLA BLA BLA BLA BLA BLA 
BLA BLA BLA BLA BLA BLA BLA BLA BLA BLA BLA BLA BLA BLA BLA BLA BLA BLA BLA BLA 
BLA BLA BLA BLA BLA BLA BLA BLA BLA BLA BLA BLA BLA BLA BLA BLA BLA BLA BLA BLA 
BLA BLA BLA BLA BLA BLA BLA BLA BLA BLA BLA BLA BLA BLA BLA BLA BLA BLA BLA BLA 
BLA BLA BLA BLA BLA BLA BLA BLA BLA BLA BLA BLA BLA BLA BLA BLA BLA BLA BLA BLA 
BLA BLA BLA BLA BLA BLA BLA BLA BLA BLA BLA BLA BLA BLA BLA BLA BLA BLA BLA BLA 
BLA BLA BLA BLA BLA BLA BLA BLA BLA BLA BLA BLA BLA BLA BLA BLA BLA BLA BLA BLA 
BLA BLA BLA BLA BLA BLA BLA BLA BLA BLA BLA BLA BLA BLA BLA BLA BLA BLA BLA BLA 
BLA BLA BLA BLA BLA BLA BLA BLA BLA BLA BLA BLA BLA BLA BLA BLA BLA BLA BLA BLA 
BLA BLA BLA BLA BLA BLA BLA BLA BLA BLA BLA BLA BLA BLA BLA BLA BLA BLA BLA BLA 
BLA BLA BLA BLA BLA BLA BLA BLA BLA BLA BLA BLA BLA BLA BLA BLA BLA BLA BLA BLA 
BLA BLA BLA BLA BLA BLA BLA BLA BLA BLA BLA BLA BLA BLA BLA BLA BLA BLA BLA BLA 
BLA BLA BLA BLA BLA BLA BLA BLA BLA BLA BLA BLA BLA BLA BLA BLA BLA BLA BLA BLA 
BLA BLA BLA BLA BLA BLA BLA BLA BLA BLA BLA BLA BLA BLA BLA BLA BLA BLA BLA BLA 
BLA BLA BLA BLA BLA BLA BLA BLA BLA BLA BLA BLA BLA BLA BLA BLA BLA BLA BLA BLA 
BLA BLA BLA BLA BLA BLA BLA BLA BLA BLA BLA BLA BLA BLA BLA BLA BLA BLA BLA BLA 
BLA BLA BLA BLA BLA BLA BLA BLA BLA BLA BLA BLA BLA BLA BLA BLA BLA BLA BLA BLA 
BLA BLA BLA BLA BLA BLA BLA BLA BLA BLA BLA BLA BLA BLA BLA BLA BLA BLA BLA BLA 
BLA BLA BLA BLA BLA BLA BLA BLA BLA BLA BLA BLA BLA BLA BLA BLA BLA BLA BLA BLA 
BLA BLA BLA BLA BLA BLA BLA BLA BLA BLA BLA BLA BLA BLA BLA BLA BLA BLA BLA BLA 
BLA BLA BLA BLA BLA BLA BLA BLA BLA BLA BLA BLA BLA BLA BLA BLA BLA BLA BLA BLA 
BLA BLA BLA BLA BLA BLA BLA BLA BLA BLA BLA BLA BLA BLA BLA BLA BLA BLA BLA BLA 
BLA BLA BLA BLA BLA BLA BLA BLA BLA BLA BLA BLA BLA BLA BLA BLA BLA BLA BLA BLA 
BLA BLA BLA BLA BLA BLA BLA BLA BLA BLA BLA BLA BLA BLA BLA BLA BLA BLA BLA BLA 
BLA BLA BLA BLA BLA BLA BLA BLA BLA BLA BLA BLA BLA BLA BLA BLA BLA BLA BLA BLA 
BLA BLA BLA BLA BLA BLA BLA BLA BLA BLA BLA BLA BLA BLA BLA BLA BLA BLA BLA BLA 
BLA BLA BLA BLA BLA BLA BLA BLA BLA BLA BLA BLA BLA BLA BLA BLA BLA BLA BLA BLA 
BLA BLA BLA BLA BLA BLA BLA BLA BLA BLA BLA BLA BLA BLA BLA BLA BLA BLA BLA BLA 
BLA BLA BLA BLA BLA BLA BLA BLA BLA BLA BLA BLA BLA BLA BLA BLA BLA BLA BLA BLA 
BLA BLA BLA BLA BLA BLA BLA BLA BLA BLA BLA BLA BLA BLA BLA BLA BLA BLA BLA BLA 
BLA BLA BLA BLA BLA BLA BLA BLA BLA BLA BLA BLA BLA BLA BLA BLA BLA BLA BLA BLA 
BLA BLA BLA BLA BLA BLA BLA BLA BLA BLA BLA BLA BLA BLA BLA BLA BLA BLA BLA BLA 
BLA BLA BLA BLA BLA BLA BLA BLA BLA BLA BLA BLA BLA BLA BLA BLA BLA BLA BLA BLA 
BLA BLA BLA BLA BLA BLA BLA BLA BLA BLA BLA BLA BLA BLA BLA BLA BLA BLA BLA BLA 
BLA BLA BLA BLA BLA BLA BLA BLA BLA BLA BLA BLA BLA BLA BLA BLA BLA BLA BLA BLA 
BLA BLA BLA BLA BLA BLA BLA BLA BLA BLA BLA BLA BLA BLA BLA BLA BLA BLA BLA BLA 
BLA BLA BLA BLA BLA BLA BLA BLA BLA BLA BLA BLA BLA BLA BLA BLA BLA BLA BLA BLA 
BLA BLA BLA BLA BLA BLA BLA BLA BLA BLA BLA BLA BLA BLA BLA BLA BLA BLA BLA BLA 
BLA BLA BLA BLA BLA BLA BLA BLA BLA BLA BLA BLA BLA BLA BLA BLA BLA BLA BLA BLA 
BLA BLA BLA BLA BLA BLA BLA BLA BLA BLA BLA BLA BLA BLA BLA BLA BLA BLA BLA BLA 
BLA BLA BLA BLA BLA BLA BLA BLA BLA BLA BLA BLA BLA BLA BLA BLA BLA BLA BLA BLA 
BLA BLA BLA BLA BLA BLA BLA BLA BLA BLA BLA BLA BLA BLA BLA BLA BLA BLA BLA BLA 
BLA BLA BLA BLA BLA BLA BLA BLA BLA BLA BLA BLA BLA BLA BLA BLA BLA BLA BLA BLA 
BLA BLA BLA BLA BLA BLA BLA BLA BLA BLA BLA BLA BLA BLA BLA BLA BLA BLA BLA BLA 
BLA BLA BLA BLA BLA BLA BLA BLA BLA BLA BLA BLA BLA BLA BLA BLA BLA BLA BLA BLA 
BLA BLA BLA BLA BLA BLA BLA BLA BLA BLA BLA BLA BLA BLA BLA BLA BLA BLA BLA BLA 
BLA BLA BLA BLA BLA BLA BLA BLA BLA BLA BLA BLA BLA BLA BLA BLA BLA BLA BLA BLA 
BLA BLA BLA BLA BLA BLA BLA BLA BLA BLA BLA BLA BLA BLA BLA BLA BLA BLA BLA BLA 
BLA BLA BLA BLA BLA BLA BLA BLA BLA BLA BLA BLA BLA BLA BLA BLA BLA BLA BLA BLA 
BLA BLA BLA BLA BLA BLA BLA BLA BLA BLA BLA BLA BLA BLA BLA BLA BLA BLA BLA BLA 
BLA BLA BLA BLA BLA BLA BLA BLA BLA BLA BLA BLA BLA BLA BLA BLA BLA BLA BLA BLA 
BLA BLA BLA BLA BLA BLA BLA BLA BLA BLA BLA BLA BLA BLA BLA BLA BLA BLA BLA BLA 
BLA BLA BLA BLA BLA BLA BLA BLA BLA BLA BLA BLA BLA BLA BLA BLA BLA BLA BLA BLA 
BLA BLA BLA BLA BLA BLA BLA BLA BLA BLA BLA BLA BLA BLA BLA BLA BLA BLA BLA BLA 
BLA BLA BLA BLA BLA BLA BLA BLA BLA BLA BLA BLA BLA BLA BLA BLA BLA BLA BLA BLA 
BLA BLA BLA BLA BLA BLA BLA BLA BLA BLA BLA BLA BLA BLA BLA BLA BLA BLA BLA BLA 
BLA BLA BLA BLA BLA BLA BLA BLA BLA BLA BLA BLA BLA BLA BLA BLA BLA BLA BLA BLA 
BLA BLA BLA BLA BLA BLA BLA BLA BLA BLA BLA BLA BLA BLA BLA BLA BLA BLA BLA BLA 
BLA BLA BLA BLA BLA BLA BLA BLA BLA BLA BLA BLA BLA BLA BLA BLA BLA BLA BLA BLA 
BLA BLA BLA BLA BLA BLA BLA BLA BLA BLA BLA BLA BLA BLA BLA BLA BLA BLA BLA BLA 
BLA BLA BLA BLA BLA BLA BLA BLA BLA BLA BLA BLA BLA BLA BLA BLA BLA BLA BLA BLA 
BLA BLA BLA BLA BLA BLA BLA BLA BLA BLA BLA BLA BLA BLA BLA BLA BLA BLA BLA BLA 
BLA BLA BLA BLA BLA BLA BLA BLA BLA BLA BLA BLA BLA BLA BLA BLA BLA BLA BLA BLA 
BLA BLA BLA BLA BLA BLA BLA BLA BLA BLA BLA BLA BLA BLA BLA BLA BLA BLA BLA BLA 
BLA BLA BLA BLA BLA BLA BLA BLA BLA BLA BLA BLA BLA BLA BLA BLA BLA BLA BLA BLA 
BLA BLA BLA BLA BLA BLA BLA BLA BLA BLA BLA BLA BLA BLA BLA BLA BLA BLA BLA BLA 
BLA BLA BLA BLA BLA BLA BLA BLA BLA BLA BLA BLA BLA BLA BLA BLA BLA BLA BLA BLA 
BLA BLA BLA BLA BLA BLA BLA BLA BLA BLA BLA BLA BLA BLA BLA BLA BLA BLA BLA BLA 
BLA BLA BLA BLA BLA BLA BLA BLA BLA BLA BLA BLA BLA BLA BLA BLA BLA BLA BLA BLA 
BLA BLA BLA BLA BLA BLA BLA BLA BLA BLA BLA BLA BLA BLA BLA BLA BLA BLA BLA BLA 
BLA BLA BLA BLA BLA BLA BLA BLA BLA BLA BLA BLA BLA BLA BLA BLA BLA BLA BLA BLA 
BLA BLA BLA BLA BLA BLA BLA BLA BLA BLA BLA BLA BLA BLA BLA BLA BLA BLA BLA BLA 
BLA BLA BLA BLA BLA BLA BLA BLA BLA BLA BLA BLA BLA BLA BLA BLA BLA BLA BLA BLA 
BLA BLA BLA BLA BLA BLA BLA BLA BLA BLA BLA BLA BLA BLA BLA BLA BLA BLA BLA BLA 
BLA BLA BLA BLA BLA BLA BLA BLA BLA BLA BLA BLA BLA BLA BLA BLA BLA BLA BLA BLA 
BLA BLA BLA BLA BLA BLA BLA BLA BLA BLA BLA BLA BLA BLA BLA BLA BLA BLA BLA BLA 
BLA BLA BLA BLA BLA BLA BLA BLA BLA BLA BLA BLA BLA BLA BLA BLA BLA BLA BLA BLA 
BLA BLA BLA BLA BLA BLA BLA BLA BLA BLA BLA BLA BLA BLA BLA BLA BLA BLA BLA BLA 
BLA BLA BLA BLA BLA BLA BLA BLA BLA BLA BLA BLA BLA BLA BLA BLA BLA BLA BLA BLA 
BLA BLA BLA BLA BLA BLA BLA BLA BLA BLA BLA BLA BLA BLA BLA BLA BLA BLA BLA BLA 
BLA BLA BLA BLA BLA BLA BLA BLA BLA BLA BLA BLA BLA BLA BLA BLA BLA BLA BLA BLA 
BLA BLA BLA BLA BLA BLA BLA BLA BLA BLA BLA BLA BLA BLA BLA BLA BLA BLA BLA BLA 
BLA BLA BLA BLA BLA BLA BLA BLA BLA BLA BLA BLA BLA BLA BLA BLA BLA BLA BLA BLA 
BLA BLA BLA BLA BLA BLA BLA BLA BLA BLA BLA BLA BLA BLA BLA BLA BLA BLA BLA BLA 
BLA BLA BLA BLA BLA BLA BLA BLA BLA BLA BLA BLA BLA BLA BLA BLA BLA BLA BLA BLA 
BLA BLA BLA BLA BLA BLA BLA BLA BLA BLA BLA BLA BLA BLA BLA BLA BLA BLA BLA BLA 
BLA BLA BLA BLA BLA BLA BLA BLA BLA BLA BLA BLA BLA BLA BLA BLA BLA BLA BLA BLA 
BLA BLA BLA BLA BLA BLA BLA BLA BLA BLA BLA BLA BLA BLA BLA BLA BLA BLA BLA BLA 
BLA BLA BLA BLA BLA BLA BLA BLA BLA BLA BLA BLA BLA BLA BLA BLA BLA BLA BLA BLA 
BLA BLA BLA BLA BLA BLA BLA BLA BLA BLA BLA BLA BLA BLA BLA BLA BLA BLA BLA BLA 
BLA BLA BLA BLA BLA BLA BLA BLA BLA BLA BLA BLA BLA BLA BLA BLA BLA BLA BLA BLA 
BLA BLA BLA BLA BLA BLA BLA BLA BLA BLA BLA BLA BLA BLA BLA BLA BLA BLA BLA BLA 
BLA BLA BLA BLA BLA BLA BLA BLA BLA BLA BLA BLA BLA BLA BLA BLA BLA BLA BLA BLA 
BLA BLA BLA BLA BLA BLA BLA BLA BLA BLA BLA BLA BLA BLA BLA BLA BLA BLA BLA BLA 
BLA BLA BLA BLA BLA BLA BLA BLA BLA BLA BLA BLA BLA BLA BLA BLA BLA BLA BLA BLA 
BLA BLA BLA BLA BLA BLA BLA BLA BLA BLA BLA BLA BLA BLA BLA BLA BLA BLA BLA BLA 
BLA BLA BLA BLA BLA BLA BLA BLA BLA BLA BLA BLA BLA BLA BLA BLA BLA BLA BLA BLA 
BLA BLA BLA BLA BLA BLA BLA BLA BLA BLA BLA BLA BLA BLA BLA BLA BLA BLA BLA BLA 
BLA BLA BLA BLA BLA BLA BLA BLA BLA BLA BLA BLA BLA BLA BLA BLA BLA BLA BLA BLA 
BLA BLA BLA BLA BLA BLA BLA BLA BLA BLA BLA BLA BLA BLA BLA BLA BLA BLA BLA BLA 
BLA BLA BLA BLA BLA BLA BLA BLA BLA BLA BLA BLA BLA BLA BLA BLA BLA BLA BLA BLA 
BLA BLA BLA BLA BLA BLA BLA BLA BLA BLA BLA BLA BLA BLA BLA BLA BLA BLA BLA BLA 
BLA BLA BLA BLA BLA BLA BLA BLA BLA BLA BLA BLA BLA BLA BLA BLA BLA BLA BLA BLA 
BLA BLA BLA BLA BLA BLA BLA BLA BLA BLA BLA BLA BLA BLA BLA BLA BLA BLA BLA BLA 
BLA BLA BLA BLA BLA BLA BLA BLA BLA BLA BLA BLA BLA BLA BLA BLA BLA BLA BLA BLA 
BLA BLA BLA BLA BLA BLA BLA BLA BLA BLA BLA BLA BLA BLA BLA BLA BLA BLA BLA BLA 
BLA BLA BLA BLA BLA BLA BLA BLA BLA BLA BLA BLA BLA BLA BLA BLA BLA BLA BLA BLA 
BLA BLA BLA BLA BLA BLA BLA BLA BLA BLA BLA BLA BLA BLA BLA BLA BLA BLA BLA BLA 
BLA BLA BLA BLA BLA BLA BLA BLA BLA BLA BLA BLA BLA BLA BLA BLA BLA BLA BLA BLA 
BLA BLA BLA BLA BLA BLA BLA BLA BLA BLA BLA BLA BLA BLA BLA BLA BLA BLA BLA BLA 
BLA BLA BLA BLA BLA BLA BLA BLA BLA BLA BLA BLA BLA BLA BLA BLA BLA BLA BLA BLA 
BLA BLA BLA BLA BLA BLA BLA BLA BLA BLA BLA BLA BLA BLA BLA BLA BLA BLA BLA BLA 
BLA BLA BLA BLA BLA BLA BLA BLA BLA BLA BLA BLA BLA BLA BLA BLA BLA BLA BLA BLA 
BLA BLA BLA BLA BLA BLA BLA BLA BLA BLA BLA BLA BLA BLA BLA BLA BLA BLA BLA BLA 
BLA BLA BLA BLA BLA BLA BLA BLA BLA BLA BLA BLA BLA BLA BLA BLA BLA BLA BLA BLA 
BLA BLA BLA BLA BLA BLA BLA BLA BLA BLA BLA BLA BLA BLA BLA BLA BLA BLA BLA BLA 
BLA BLA BLA BLA BLA BLA BLA BLA BLA BLA BLA BLA BLA BLA BLA BLA BLA BLA BLA BLA 
BLA BLA BLA BLA BLA BLA BLA BLA BLA BLA BLA BLA BLA BLA BLA BLA BLA BLA BLA BLA 
BLA BLA BLA BLA BLA BLA BLA BLA BLA BLA BLA BLA BLA BLA BLA BLA BLA BLA BLA BLA 
BLA BLA BLA BLA BLA BLA BLA BLA BLA BLA BLA BLA BLA BLA BLA BLA BLA BLA BLA BLA 
BLA BLA BLA BLA BLA BLA BLA BLA BLA BLA BLA BLA BLA BLA BLA BLA BLA BLA BLA BLA 
BLA BLA BLA BLA BLA BLA BLA BLA BLA BLA BLA BLA BLA BLA BLA BLA BLA BLA BLA BLA 
BLA BLA BLA BLA BLA BLA BLA BLA BLA BLA BLA BLA BLA BLA BLA BLA BLA BLA BLA BLA 
BLA BLA BLA BLA BLA BLA BLA BLA BLA BLA BLA BLA BLA BLA BLA BLA BLA BLA BLA BLA 
BLA BLA BLA BLA BLA BLA BLA BLA BLA BLA BLA BLA BLA BLA BLA BLA BLA BLA BLA BLA 
BLA BLA BLA BLA BLA BLA BLA BLA BLA BLA BLA BLA BLA BLA BLA BLA BLA BLA BLA BLA 
BLA BLA BLA BLA BLA BLA BLA BLA BLA BLA BLA BLA BLA BLA BLA BLA BLA BLA BLA BLA 
BLA BLA BLA BLA BLA BLA BLA BLA BLA BLA BLA BLA BLA BLA BLA BLA BLA BLA BLA BLA 
BLA BLA BLA BLA BLA BLA BLA BLA BLA BLA BLA BLA BLA BLA BLA BLA BLA BLA BLA BLA 
BLA BLA BLA BLA BLA BLA BLA BLA BLA BLA BLA BLA BLA BLA BLA BLA BLA BLA BLA BLA 
BLA BLA BLA BLA BLA BLA BLA BLA BLA BLA BLA BLA BLA BLA BLA BLA BLA BLA BLA BLA 
BLA BLA BLA BLA BLA BLA BLA BLA BLA BLA BLA BLA BLA BLA BLA BLA BLA BLA BLA BLA 
BLA BLA BLA BLA BLA BLA BLA BLA BLA BLA BLA BLA BLA BLA BLA BLA BLA BLA BLA BLA 
BLA BLA BLA BLA BLA BLA BLA BLA BLA BLA BLA BLA BLA BLA BLA BLA BLA BLA BLA BLA 
BLA BLA BLA BLA BLA BLA BLA BLA BLA BLA BLA BLA BLA BLA BLA BLA BLA BLA BLA BLA 
BLA BLA BLA BLA BLA BLA BLA BLA BLA BLA BLA BLA BLA BLA BLA BLA BLA BLA BLA BLA 
BLA BLA BLA BLA BLA BLA BLA BLA BLA BLA BLA BLA BLA BLA BLA BLA BLA BLA BLA BLA 
BLA BLA BLA BLA BLA BLA BLA BLA BLA BLA BLA BLA BLA BLA BLA BLA BLA BLA BLA BLA 
BLA BLA BLA BLA BLA BLA BLA BLA BLA BLA BLA BLA BLA BLA BLA BLA BLA BLA BLA BLA 
BLA BLA BLA BLA BLA BLA BLA BLA BLA BLA BLA BLA BLA BLA BLA BLA BLA BLA BLA BLA 
BLA BLA BLA BLA BLA BLA BLA BLA BLA BLA BLA BLA BLA BLA BLA BLA BLA BLA BLA BLA 
BLA BLA BLA BLA BLA BLA BLA BLA BLA BLA BLA BLA BLA BLA BLA BLA BLA BLA BLA BLA 
BLA BLA BLA BLA BLA BLA BLA BLA BLA BLA BLA BLA BLA BLA BLA BLA BLA BLA BLA BLA 
BLA BLA BLA BLA BLA BLA BLA BLA BLA BLA BLA BLA BLA BLA BLA BLA BLA BLA BLA BLA 
BLA BLA BLA BLA BLA BLA BLA BLA BLA BLA BLA BLA BLA BLA BLA BLA BLA BLA BLA BLA 
BLA BLA BLA BLA BLA BLA BLA BLA BLA BLA BLA BLA BLA BLA BLA BLA BLA BLA BLA BLA 
BLA BLA BLA BLA BLA BLA BLA BLA BLA BLA BLA BLA BLA BLA BLA BLA BLA BLA BLA BLA 
BLA BLA BLA BLA BLA BLA BLA BLA BLA BLA BLA BLA BLA BLA BLA BLA BLA BLA BLA BLA 
BLA BLA BLA BLA BLA BLA BLA BLA BLA BLA BLA BLA BLA BLA BLA BLA BLA BLA BLA BLA 
BLA BLA BLA BLA BLA BLA BLA BLA BLA BLA BLA BLA BLA BLA BLA BLA BLA BLA BLA BLA 
BLA BLA BLA BLA BLA BLA BLA BLA BLA BLA BLA BLA BLA BLA BLA BLA BLA BLA BLA BLA 
BLA BLA BLA BLA BLA BLA BLA BLA BLA BLA BLA BLA BLA BLA BLA BLA BLA BLA BLA BLA 
BLA BLA BLA BLA BLA BLA BLA BLA BLA BLA BLA BLA BLA BLA BLA BLA BLA BLA BLA BLA 
BLA BLA BLA BLA BLA BLA BLA BLA BLA BLA BLA BLA BLA BLA BLA BLA BLA BLA BLA BLA 
BLA BLA BLA BLA BLA BLA BLA BLA BLA BLA BLA BLA BLA BLA BLA BLA BLA BLA BLA BLA 
BLA BLA BLA BLA BLA BLA BLA BLA BLA BLA BLA BLA BLA BLA BLA BLA BLA BLA BLA BLA 
BLA BLA BLA BLA BLA BLA BLA BLA BLA BLA BLA BLA BLA BLA BLA BLA BLA BLA BLA BLA 
BLA BLA BLA BLA BLA BLA BLA BLA BLA BLA BLA BLA BLA BLA BLA BLA BLA BLA BLA BLA 
BLA BLA BLA BLA BLA BLA BLA BLA BLA BLA BLA BLA BLA BLA BLA BLA BLA BLA BLA BLA 
BLA BLA BLA BLA BLA BLA BLA BLA BLA BLA BLA BLA BLA BLA BLA BLA BLA BLA BLA BLA 
BLA BLA BLA BLA BLA BLA BLA BLA BLA BLA BLA BLA BLA BLA BLA BLA BLA BLA BLA BLA 
BLA BLA BLA BLA BLA BLA BLA BLA BLA BLA BLA BLA BLA BLA BLA BLA BLA BLA BLA BLA 
BLA BLA BLA BLA BLA BLA BLA BLA BLA BLA BLA BLA BLA BLA BLA BLA BLA BLA BLA BLA 
BLA BLA BLA BLA BLA BLA BLA BLA BLA BLA BLA BLA BLA BLA BLA BLA BLA BLA BLA BLA 
BLA BLA BLA BLA BLA BLA BLA BLA BLA BLA BLA BLA BLA BLA BLA BLA BLA BLA BLA BLA 
BLA BLA BLA BLA BLA BLA BLA BLA BLA BLA BLA BLA BLA BLA BLA BLA BLA BLA BLA BLA 
BLA BLA BLA BLA BLA BLA BLA BLA BLA BLA BLA BLA BLA BLA BLA BLA BLA BLA BLA BLA 
BLA BLA BLA BLA BLA BLA BLA BLA BLA BLA BLA BLA BLA BLA BLA BLA BLA BLA BLA BLA 
BLA BLA BLA BLA BLA BLA BLA BLA BLA BLA BLA BLA BLA BLA BLA BLA BLA BLA BLA BLA 
BLA BLA BLA BLA BLA BLA BLA BLA BLA BLA BLA BLA BLA BLA BLA BLA BLA BLA BLA BLA 
BLA BLA BLA BLA BLA BLA BLA BLA BLA BLA BLA BLA BLA BLA BLA BLA BLA BLA BLA BLA 
BLA BLA BLA BLA BLA BLA BLA BLA BLA BLA BLA BLA BLA BLA BLA BLA BLA BLA BLA BLA 
BLA BLA BLA BLA BLA BLA BLA BLA BLA BLA BLA BLA BLA BLA BLA BLA BLA BLA BLA BLA 
BLA BLA BLA BLA BLA BLA BLA BLA BLA BLA BLA BLA BLA BLA BLA BLA BLA BLA BLA BLA 
BLA BLA BLA BLA BLA BLA BLA BLA BLA BLA BLA BLA BLA BLA BLA BLA BLA BLA BLA BLA 
BLA BLA BLA BLA BLA BLA BLA BLA BLA BLA BLA BLA BLA BLA BLA BLA BLA BLA BLA BLA 
BLA BLA BLA BLA BLA BLA BLA BLA BLA BLA BLA BLA BLA BLA BLA BLA BLA BLA BLA BLA 
BLA BLA BLA BLA BLA BLA BLA BLA BLA BLA BLA BLA BLA BLA BLA BLA BLA BLA BLA BLA 
BLA BLA BLA BLA BLA BLA BLA BLA BLA BLA BLA BLA BLA BLA BLA BLA BLA BLA BLA BLA 
BLA BLA BLA BLA BLA BLA BLA BLA BLA BLA BLA BLA BLA BLA BLA BLA BLA BLA BLA BLA 
BLA BLA BLA BLA BLA BLA BLA BLA BLA BLA BLA BLA BLA BLA BLA BLA BLA BLA BLA BLA 
BLA BLA BLA BLA BLA BLA BLA BLA BLA BLA BLA BLA BLA BLA BLA BLA BLA BLA BLA BLA 
BLA BLA BLA BLA BLA BLA BLA BLA BLA BLA BLA BLA BLA BLA BLA BLA BLA BLA BLA BLA 
BLA BLA BLA BLA BLA BLA BLA BLA BLA BLA BLA BLA BLA BLA BLA BLA BLA BLA BLA BLA 
BLA BLA BLA BLA BLA BLA BLA BLA BLA BLA BLA BLA BLA BLA BLA BLA BLA BLA BLA BLA 
BLA BLA BLA BLA BLA BLA BLA BLA BLA BLA BLA BLA BLA BLA BLA BLA BLA BLA BLA BLA 
BLA BLA BLA BLA BLA BLA BLA BLA BLA BLA BLA BLA BLA BLA BLA BLA BLA BLA BLA BLA 
BLA BLA BLA BLA BLA BLA BLA BLA BLA BLA BLA BLA BLA BLA BLA BLA BLA BLA BLA BLA 
BLA BLA BLA BLA BLA BLA BLA BLA BLA BLA BLA BLA BLA BLA BLA BLA BLA BLA BLA BLA 
BLA BLA BLA BLA BLA BLA BLA BLA BLA BLA BLA BLA BLA BLA BLA BLA BLA BLA BLA BLA 
BLA BLA BLA BLA BLA BLA BLA BLA BLA BLA BLA BLA BLA BLA BLA BLA BLA BLA BLA BLA 
BLA BLA BLA BLA BLA BLA BLA BLA BLA BLA BLA BLA BLA BLA BLA BLA BLA BLA BLA BLA 
BLA BLA BLA BLA BLA BLA BLA BLA BLA BLA BLA BLA BLA BLA BLA BLA BLA BLA BLA BLA 
BLA BLA BLA BLA BLA BLA BLA BLA BLA BLA BLA BLA BLA BLA BLA BLA BLA BLA BLA BLA 
BLA BLA BLA BLA BLA BLA BLA BLA BLA BLA BLA BLA BLA BLA BLA BLA BLA BLA BLA BLA 
BLA BLA BLA BLA BLA BLA BLA BLA BLA BLA BLA BLA BLA BLA BLA BLA BLA BLA BLA BLA 
BLA BLA BLA BLA BLA BLA BLA BLA BLA BLA BLA BLA BLA BLA BLA BLA BLA BLA BLA BLA 
BLA BLA BLA BLA BLA BLA BLA BLA BLA BLA BLA BLA BLA BLA BLA BLA BLA BLA BLA BLA 
BLA BLA BLA BLA BLA BLA BLA BLA BLA BLA BLA BLA BLA BLA BLA BLA BLA BLA BLA BLA 
BLA BLA BLA BLA BLA BLA BLA BLA BLA BLA BLA BLA BLA BLA BLA BLA BLA BLA BLA BLA 
BLA BLA BLA BLA BLA BLA BLA BLA BLA BLA BLA BLA BLA BLA BLA BLA BLA BLA BLA BLA 
BLA BLA BLA BLA BLA BLA BLA BLA BLA BLA BLA BLA BLA BLA BLA BLA BLA BLA BLA BLA 
BLA BLA BLA BLA BLA BLA BLA BLA BLA BLA BLA BLA BLA BLA BLA BLA BLA BLA BLA BLA 
BLA BLA BLA BLA BLA BLA BLA BLA BLA BLA BLA BLA BLA BLA BLA BLA BLA BLA BLA BLA 
BLA BLA BLA BLA BLA BLA BLA BLA BLA BLA BLA BLA BLA BLA BLA BLA BLA BLA BLA BLA 
BLA BLA BLA BLA BLA BLA BLA BLA BLA BLA BLA BLA BLA BLA BLA BLA BLA BLA BLA BLA 
BLA BLA BLA BLA BLA BLA BLA BLA BLA BLA BLA BLA BLA BLA BLA BLA BLA BLA BLA BLA 
BLA BLA BLA BLA BLA BLA BLA BLA BLA BLA BLA BLA BLA BLA BLA BLA BLA BLA BLA BLA 
BLA BLA BLA BLA BLA BLA BLA BLA BLA BLA BLA BLA BLA BLA BLA BLA BLA BLA BLA BLA 
BLA BLA BLA BLA BLA BLA BLA BLA BLA BLA BLA BLA BLA BLA BLA BLA BLA BLA BLA BLA 
BLA BLA BLA BLA BLA BLA BLA BLA BLA BLA BLA BLA BLA BLA BLA BLA BLA BLA BLA BLA 
BLA BLA BLA BLA BLA BLA BLA BLA BLA BLA BLA BLA BLA BLA BLA BLA BLA BLA BLA BLA 
BLA BLA BLA BLA BLA BLA BLA BLA BLA BLA BLA BLA BLA BLA BLA BLA BLA BLA BLA BLA 
BLA BLA BLA BLA BLA BLA BLA BLA BLA BLA BLA BLA BLA BLA BLA BLA BLA BLA BLA BLA 
BLA BLA BLA BLA BLA BLA BLA BLA BLA BLA BLA BLA BLA BLA BLA BLA BLA BLA BLA BLA 
BLA BLA BLA BLA BLA BLA BLA BLA BLA BLA BLA BLA BLA BLA BLA BLA BLA BLA BLA BLA 
BLA BLA BLA BLA BLA BLA BLA BLA BLA BLA BLA BLA BLA BLA BLA BLA BLA BLA BLA BLA 
BLA BLA BLA BLA BLA BLA BLA BLA BLA BLA BLA BLA BLA BLA BLA BLA BLA BLA BLA BLA 
BLA BLA BLA BLA BLA BLA BLA BLA BLA BLA BLA BLA BLA BLA BLA BLA BLA BLA BLA BLA 
BLA BLA BLA BLA BLA BLA BLA BLA BLA BLA BLA BLA BLA BLA BLA BLA BLA BLA BLA BLA 
BLA BLA BLA BLA BLA BLA BLA BLA BLA BLA BLA BLA BLA BLA BLA BLA BLA BLA BLA BLA 
BLA BLA BLA BLA BLA BLA BLA BLA BLA BLA BLA BLA BLA BLA BLA BLA BLA BLA BLA BLA 
BLA BLA BLA BLA BLA BLA BLA BLA BLA BLA BLA BLA BLA BLA BLA BLA BLA BLA BLA BLA 
BLA BLA BLA BLA BLA BLA BLA BLA BLA BLA BLA BLA BLA BLA BLA BLA BLA BLA BLA BLA 
BLA BLA BLA BLA BLA BLA BLA BLA BLA BLA BLA BLA BLA BLA BLA BLA BLA BLA BLA BLA 
BLA BLA BLA BLA BLA BLA BLA BLA BLA BLA BLA BLA BLA BLA BLA BLA BLA BLA BLA BLA 
BLA BLA BLA BLA BLA BLA BLA BLA BLA BLA BLA BLA BLA BLA BLA BLA BLA BLA BLA BLA 
BLA BLA BLA BLA BLA BLA BLA BLA BLA BLA BLA BLA BLA BLA BLA BLA BLA BLA BLA BLA 
BLA BLA BLA BLA BLA BLA BLA BLA BLA BLA BLA BLA BLA BLA BLA BLA BLA BLA BLA BLA 
BLA BLA BLA BLA BLA BLA BLA BLA BLA BLA BLA BLA BLA BLA BLA BLA BLA BLA BLA BLA 
BLA BLA BLA BLA BLA BLA BLA BLA BLA BLA BLA BLA BLA BLA BLA BLA BLA BLA BLA BLA 
BLA BLA BLA BLA BLA BLA BLA BLA BLA BLA BLA BLA BLA BLA BLA BLA BLA BLA BLA BLA 
BLA BLA BLA BLA BLA BLA BLA BLA BLA BLA BLA BLA BLA BLA BLA BLA BLA BLA BLA BLA 
BLA BLA BLA BLA BLA BLA BLA BLA BLA BLA BLA BLA BLA BLA BLA BLA BLA BLA BLA BLA 
BLA BLA BLA BLA BLA BLA BLA BLA BLA BLA BLA BLA BLA BLA BLA BLA BLA BLA BLA BLA 
BLA BLA BLA BLA BLA BLA BLA BLA BLA BLA BLA BLA BLA BLA BLA BLA BLA BLA BLA BLA 
BLA BLA BLA BLA BLA BLA BLA BLA BLA BLA BLA BLA BLA BLA BLA BLA BLA BLA BLA BLA 
BLA BLA BLA BLA BLA BLA BLA BLA BLA BLA BLA BLA BLA BLA BLA BLA BLA BLA BLA BLA 
BLA BLA BLA BLA BLA BLA BLA BLA BLA BLA BLA BLA BLA BLA BLA BLA BLA BLA BLA BLA 
BLA BLA BLA BLA BLA BLA BLA BLA BLA BLA BLA BLA BLA BLA BLA BLA BLA BLA BLA BLA 
BLA BLA BLA BLA BLA BLA BLA BLA BLA BLA BLA BLA BLA BLA BLA BLA BLA BLA BLA BLA 
BLA BLA BLA BLA BLA BLA BLA BLA BLA BLA BLA BLA BLA BLA BLA BLA BLA BLA BLA BLA 
BLA BLA BLA BLA BLA BLA BLA BLA BLA BLA BLA BLA BLA BLA BLA BLA BLA BLA BLA BLA 
BLA BLA BLA BLA BLA BLA BLA BLA BLA BLA BLA BLA BLA BLA BLA BLA BLA BLA BLA BLA 
BLA BLA BLA BLA BLA BLA BLA BLA BLA BLA BLA BLA BLA BLA BLA BLA BLA BLA BLA BLA 
BLA BLA BLA BLA BLA BLA BLA BLA BLA BLA BLA BLA BLA BLA BLA BLA BLA BLA BLA BLA 
BLA BLA BLA BLA BLA BLA BLA BLA BLA BLA BLA BLA BLA BLA BLA BLA BLA BLA BLA BLA 
BLA BLA BLA BLA BLA BLA BLA BLA BLA BLA BLA BLA BLA BLA BLA BLA BLA BLA BLA BLA 
BLA BLA BLA BLA BLA BLA BLA BLA BLA BLA BLA BLA BLA BLA BLA BLA BLA BLA BLA BLA 
BLA BLA BLA BLA BLA BLA BLA BLA BLA BLA BLA BLA BLA BLA BLA BLA BLA BLA BLA BLA 
BLA BLA BLA BLA BLA BLA BLA BLA BLA BLA BLA BLA BLA BLA BLA BLA BLA BLA BLA BLA 
BLA BLA BLA BLA BLA BLA BLA BLA BLA BLA BLA BLA BLA BLA BLA BLA BLA BLA BLA BLA 
BLA BLA BLA BLA BLA BLA BLA BLA BLA BLA BLA BLA BLA BLA BLA BLA BLA BLA BLA BLA 
BLA BLA BLA BLA BLA BLA BLA BLA BLA BLA BLA BLA BLA BLA BLA BLA BLA BLA BLA BLA 
BLA BLA BLA BLA BLA BLA BLA BLA BLA BLA BLA BLA BLA BLA BLA BLA BLA BLA BLA BLA 
BLA BLA BLA BLA BLA BLA BLA BLA BLA BLA BLA BLA BLA BLA BLA BLA BLA BLA BLA BLA 
BLA BLA BLA BLA BLA BLA BLA BLA BLA BLA BLA BLA BLA BLA BLA BLA BLA BLA BLA BLA 
BLA BLA BLA BLA BLA BLA BLA BLA BLA BLA BLA BLA BLA BLA BLA BLA BLA BLA BLA BLA 
BLA BLA BLA BLA BLA BLA BLA BLA BLA BLA BLA BLA BLA BLA BLA BLA BLA BLA BLA BLA 
BLA BLA BLA BLA BLA BLA BLA BLA BLA BLA BLA BLA BLA BLA BLA BLA BLA BLA BLA BLA 
BLA BLA BLA BLA BLA BLA BLA BLA BLA BLA BLA BLA BLA BLA BLA BLA BLA BLA BLA BLA 
BLA BLA BLA BLA BLA BLA BLA BLA BLA BLA BLA BLA BLA BLA BLA BLA BLA BLA BLA BLA 
BLA BLA BLA BLA BLA BLA BLA BLA BLA BLA BLA BLA BLA BLA BLA BLA BLA BLA BLA BLA 
BLA BLA BLA BLA BLA BLA BLA BLA BLA BLA BLA BLA BLA BLA BLA BLA BLA BLA BLA BLA 
BLA BLA BLA BLA BLA BLA BLA BLA BLA BLA BLA BLA BLA BLA BLA BLA BLA BLA BLA BLA 
BLA BLA BLA BLA BLA BLA BLA BLA BLA BLA BLA BLA BLA BLA BLA BLA BLA BLA BLA BLA 
BLA BLA BLA BLA BLA BLA BLA BLA BLA BLA BLA BLA BLA BLA BLA BLA BLA BLA BLA BLA 
BLA BLA BLA BLA BLA BLA BLA BLA BLA BLA BLA BLA BLA BLA BLA BLA BLA BLA BLA BLA 
BLA BLA BLA BLA BLA BLA BLA BLA BLA BLA BLA BLA BLA BLA BLA BLA BLA BLA BLA BLA 
BLA BLA BLA BLA BLA BLA BLA BLA BLA BLA BLA BLA BLA BLA BLA BLA BLA BLA BLA BLA 
BLA BLA BLA BLA BLA BLA BLA BLA BLA BLA BLA BLA BLA BLA BLA BLA BLA BLA BLA BLA 
BLA BLA BLA BLA BLA BLA BLA BLA BLA BLA BLA BLA BLA BLA BLA BLA BLA BLA BLA BLA 
BLA BLA BLA BLA BLA BLA BLA BLA BLA BLA BLA BLA BLA BLA BLA BLA BLA BLA BLA BLA 
BLA BLA BLA BLA BLA BLA BLA BLA BLA BLA BLA BLA BLA BLA BLA BLA BLA BLA BLA BLA 
BLA BLA BLA BLA BLA BLA BLA BLA BLA BLA BLA BLA BLA BLA BLA BLA BLA BLA BLA BLA 
BLA BLA BLA BLA BLA BLA BLA BLA BLA BLA BLA BLA BLA BLA BLA BLA BLA BLA BLA BLA 
BLA BLA BLA BLA BLA BLA BLA BLA BLA BLA BLA BLA BLA BLA BLA BLA BLA BLA BLA BLA 
BLA BLA BLA BLA BLA BLA BLA BLA BLA BLA BLA BLA BLA BLA BLA BLA BLA BLA BLA BLA 
BLA BLA BLA BLA BLA BLA BLA BLA BLA BLA BLA BLA BLA BLA BLA BLA BLA BLA BLA BLA 
BLA BLA BLA BLA BLA BLA BLA BLA BLA BLA BLA BLA BLA BLA BLA BLA BLA BLA BLA BLA 
BLA BLA BLA BLA BLA BLA BLA BLA BLA BLA BLA BLA BLA BLA BLA BLA BLA BLA BLA BLA 
BLA BLA BLA BLA BLA BLA BLA BLA BLA BLA BLA BLA BLA BLA BLA BLA BLA BLA BLA BLA 
BLA BLA BLA BLA BLA BLA BLA BLA BLA BLA BLA BLA BLA BLA BLA BLA BLA BLA BLA BLA 
BLA BLA BLA BLA BLA BLA BLA BLA BLA BLA BLA BLA BLA BLA BLA BLA BLA BLA BLA BLA 
BLA BLA BLA BLA BLA BLA BLA BLA BLA BLA BLA BLA BLA BLA BLA BLA BLA BLA BLA BLA 
BLA BLA BLA BLA BLA BLA BLA BLA BLA BLA BLA BLA BLA BLA BLA BLA BLA BLA BLA BLA 
BLA BLA BLA BLA BLA BLA BLA BLA BLA BLA BLA BLA BLA BLA BLA BLA BLA BLA BLA BLA 
BLA BLA BLA BLA BLA BLA BLA BLA BLA BLA BLA BLA BLA BLA BLA BLA BLA BLA BLA BLA 
BLA BLA BLA BLA BLA BLA BLA BLA BLA BLA BLA BLA BLA BLA BLA BLA BLA BLA BLA BLA 
BLA BLA BLA BLA BLA BLA BLA BLA BLA BLA BLA BLA BLA BLA BLA BLA BLA BLA BLA BLA 
BLA BLA BLA BLA BLA BLA BLA BLA BLA BLA BLA BLA BLA BLA BLA BLA BLA BLA BLA BLA 
BLA BLA BLA BLA BLA BLA BLA BLA BLA BLA BLA BLA BLA BLA BLA BLA BLA BLA BLA BLA 
BLA BLA BLA BLA BLA BLA BLA BLA BLA BLA BLA BLA BLA BLA BLA BLA BLA BLA BLA BLA 
BLA BLA BLA BLA BLA BLA BLA BLA BLA BLA BLA BLA BLA BLA BLA BLA BLA BLA BLA BLA 
BLA BLA BLA BLA BLA BLA BLA BLA BLA BLA BLA BLA BLA BLA BLA BLA BLA BLA BLA BLA 
BLA BLA BLA BLA BLA BLA BLA BLA BLA BLA BLA BLA BLA BLA BLA BLA BLA BLA BLA BLA 
BLA BLA BLA BLA BLA BLA BLA BLA BLA BLA BLA BLA BLA BLA BLA BLA BLA BLA BLA BLA 
BLA BLA BLA BLA BLA BLA BLA BLA BLA BLA BLA BLA BLA BLA BLA BLA BLA BLA BLA BLA 
BLA BLA BLA BLA BLA BLA BLA BLA BLA BLA BLA BLA BLA BLA BLA BLA BLA BLA BLA BLA 
BLA BLA BLA BLA BLA BLA BLA BLA BLA BLA BLA BLA BLA BLA BLA BLA BLA BLA BLA BLA 
BLA BLA BLA BLA BLA BLA BLA BLA BLA BLA BLA BLA BLA BLA BLA BLA BLA BLA BLA BLA 
BLA BLA BLA BLA BLA BLA BLA BLA BLA BLA BLA BLA BLA BLA BLA BLA BLA BLA BLA BLA 
BLA BLA BLA BLA BLA BLA BLA BLA BLA BLA BLA BLA BLA BLA BLA BLA BLA BLA BLA BLA 
BLA BLA BLA BLA BLA BLA BLA BLA BLA BLA BLA BLA BLA BLA BLA BLA BLA BLA BLA BLA 
BLA BLA BLA BLA BLA BLA BLA BLA BLA BLA BLA BLA BLA BLA BLA BLA BLA BLA BLA BLA 
BLA BLA BLA BLA BLA BLA BLA BLA BLA BLA BLA BLA BLA BLA BLA BLA BLA BLA BLA BLA 
BLA BLA BLA BLA BLA BLA BLA BLA BLA BLA BLA BLA BLA BLA BLA BLA BLA BLA BLA BLA 
BLA BLA BLA BLA BLA BLA BLA BLA BLA BLA BLA BLA BLA BLA BLA BLA BLA BLA BLA BLA 
BLA BLA BLA BLA BLA BLA BLA BLA BLA BLA BLA BLA BLA BLA BLA BLA BLA BLA BLA BLA 
BLA BLA BLA BLA BLA BLA BLA BLA BLA BLA BLA BLA BLA BLA BLA BLA BLA BLA BLA BLA 
BLA BLA BLA BLA BLA BLA BLA BLA BLA BLA BLA BLA BLA BLA BLA BLA BLA BLA BLA BLA 
BLA BLA BLA BLA BLA BLA BLA BLA BLA BLA BLA BLA BLA BLA BLA BLA BLA BLA BLA BLA 
BLA BLA BLA BLA BLA BLA BLA BLA BLA BLA BLA BLA BLA BLA BLA BLA BLA BLA BLA BLA 
BLA BLA BLA BLA BLA BLA BLA BLA BLA BLA BLA BLA BLA BLA BLA BLA BLA BLA BLA BLA 
BLA BLA BLA BLA BLA BLA BLA BLA BLA BLA BLA BLA BLA BLA BLA BLA BLA BLA BLA BLA 
BLA BLA BLA BLA BLA BLA BLA BLA BLA BLA BLA BLA BLA BLA BLA BLA BLA BLA BLA BLA 
BLA BLA BLA BLA BLA BLA BLA BLA BLA BLA BLA BLA BLA BLA BLA BLA BLA BLA BLA BLA 
BLA BLA BLA BLA BLA BLA BLA BLA BLA BLA BLA BLA BLA BLA BLA BLA BLA BLA BLA BLA 
BLA BLA BLA BLA BLA BLA BLA BLA BLA BLA BLA BLA BLA BLA BLA BLA BLA BLA BLA BLA 
BLA BLA BLA BLA BLA BLA BLA BLA BLA BLA BLA BLA BLA BLA BLA BLA BLA BLA BLA BLA 
BLA BLA BLA BLA BLA BLA BLA BLA BLA BLA BLA BLA BLA BLA BLA BLA BLA BLA BLA BLA 
BLA BLA BLA BLA BLA BLA BLA BLA BLA BLA BLA BLA BLA BLA BLA BLA BLA BLA BLA BLA 
BLA BLA BLA BLA BLA BLA BLA BLA BLA BLA BLA BLA BLA BLA BLA BLA BLA BLA BLA BLA 
BLA BLA BLA BLA BLA BLA BLA BLA BLA BLA BLA BLA BLA BLA BLA BLA BLA BLA BLA BLA 
BLA BLA BLA BLA BLA BLA BLA BLA BLA BLA BLA BLA BLA BLA BLA BLA BLA BLA BLA BLA 
BLA BLA BLA BLA BLA BLA BLA BLA BLA BLA BLA BLA BLA BLA BLA BLA BLA BLA BLA BLA 
BLA BLA BLA BLA BLA BLA BLA BLA BLA BLA BLA BLA BLA BLA BLA BLA BLA BLA BLA BLA 
BLA BLA BLA BLA BLA BLA BLA BLA BLA BLA BLA BLA BLA BLA BLA BLA BLA BLA BLA BLA 
BLA BLA BLA BLA BLA BLA BLA BLA BLA BLA BLA BLA BLA BLA BLA BLA BLA BLA BLA BLA 
BLA BLA BLA BLA BLA BLA BLA BLA BLA BLA BLA BLA BLA BLA BLA BLA BLA BLA BLA BLA 
BLA BLA BLA BLA BLA BLA BLA BLA BLA BLA BLA BLA BLA BLA BLA BLA BLA BLA BLA BLA 
BLA BLA BLA BLA BLA BLA BLA BLA BLA BLA BLA BLA BLA BLA BLA BLA BLA BLA BLA BLA 
BLA BLA BLA BLA BLA BLA BLA BLA BLA BLA BLA BLA BLA BLA BLA BLA BLA BLA BLA BLA 
BLA BLA BLA BLA BLA BLA BLA BLA BLA BLA BLA BLA BLA BLA BLA BLA BLA BLA BLA BLA 
BLA BLA BLA BLA BLA BLA BLA BLA BLA BLA BLA BLA BLA BLA BLA BLA BLA BLA BLA BLA 
BLA BLA BLA BLA BLA BLA BLA BLA BLA BLA BLA BLA BLA BLA BLA BLA BLA BLA BLA BLA 
BLA BLA BLA BLA BLA BLA BLA BLA BLA BLA BLA BLA BLA BLA BLA BLA BLA BLA BLA BLA 
BLA BLA BLA BLA BLA BLA BLA BLA BLA BLA BLA BLA BLA BLA BLA BLA BLA BLA BLA BLA 
BLA BLA BLA BLA BLA BLA BLA BLA BLA BLA BLA BLA BLA BLA BLA BLA BLA BLA BLA BLA 
BLA BLA BLA BLA BLA BLA BLA BLA BLA BLA BLA BLA BLA BLA BLA BLA BLA BLA BLA BLA 
BLA BLA BLA BLA BLA BLA BLA BLA BLA BLA BLA BLA BLA BLA BLA BLA BLA BLA BLA BLA 
BLA BLA BLA BLA BLA BLA BLA BLA BLA BLA BLA BLA BLA BLA BLA BLA BLA BLA BLA BLA 
BLA BLA BLA BLA BLA BLA BLA BLA BLA BLA BLA BLA BLA BLA BLA BLA BLA BLA BLA BLA 
BLA BLA BLA BLA BLA BLA BLA BLA BLA BLA BLA BLA BLA BLA BLA BLA BLA BLA BLA BLA 
BLA BLA BLA BLA BLA BLA BLA BLA BLA BLA BLA BLA BLA BLA BLA BLA BLA BLA BLA BLA 
BLA BLA BLA BLA BLA BLA BLA BLA BLA BLA BLA BLA BLA BLA BLA BLA BLA BLA BLA BLA 
BLA BLA BLA BLA BLA BLA BLA BLA BLA BLA BLA BLA BLA BLA BLA BLA BLA BLA BLA BLA 
BLA BLA BLA BLA BLA BLA BLA BLA BLA BLA BLA BLA BLA BLA BLA BLA BLA BLA BLA BLA 
BLA BLA BLA BLA BLA BLA BLA BLA BLA BLA BLA BLA BLA BLA BLA BLA BLA BLA BLA BLA 
BLA BLA BLA BLA BLA BLA BLA BLA BLA BLA BLA BLA BLA BLA BLA BLA BLA BLA BLA BLA 
BLA BLA BLA BLA BLA BLA BLA BLA BLA BLA BLA BLA BLA BLA BLA BLA BLA BLA BLA BLA 
BLA BLA BLA BLA BLA BLA BLA BLA BLA BLA BLA BLA BLA BLA BLA BLA BLA BLA BLA BLA 
BLA BLA BLA BLA BLA BLA BLA BLA BLA BLA BLA BLA BLA BLA BLA BLA BLA BLA BLA BLA 
BLA BLA BLA BLA BLA BLA BLA BLA BLA BLA BLA BLA BLA BLA BLA BLA BLA BLA BLA BLA 
BLA BLA BLA BLA BLA BLA BLA BLA BLA BLA BLA BLA BLA BLA BLA BLA BLA BLA BLA BLA 
BLA BLA BLA BLA BLA BLA BLA BLA BLA BLA BLA BLA BLA BLA BLA BLA BLA BLA BLA BLA 
BLA BLA BLA BLA BLA BLA BLA BLA BLA BLA BLA BLA BLA BLA BLA BLA BLA BLA BLA BLA 
BLA BLA BLA BLA BLA BLA BLA BLA BLA BLA BLA BLA BLA BLA BLA BLA BLA BLA BLA BLA 
BLA BLA BLA BLA BLA BLA BLA BLA BLA BLA BLA BLA BLA BLA BLA BLA BLA BLA BLA BLA 
BLA BLA BLA BLA BLA BLA BLA BLA BLA BLA BLA BLA BLA BLA BLA BLA BLA BLA BLA BLA 
BLA BLA BLA BLA BLA BLA BLA BLA BLA BLA BLA BLA BLA BLA BLA BLA BLA BLA BLA BLA 
BLA BLA BLA BLA BLA BLA BLA BLA BLA BLA BLA BLA BLA BLA BLA BLA BLA BLA BLA BLA 
BLA BLA BLA BLA BLA BLA BLA BLA BLA BLA BLA BLA BLA BLA BLA BLA BLA BLA BLA BLA 
BLA BLA BLA BLA BLA BLA BLA BLA BLA BLA BLA BLA BLA BLA BLA BLA BLA BLA BLA BLA 
BLA BLA BLA BLA BLA BLA BLA BLA BLA BLA BLA BLA BLA BLA BLA BLA BLA BLA BLA BLA 
BLA BLA BLA BLA BLA BLA BLA BLA BLA BLA BLA BLA BLA BLA BLA BLA BLA BLA BLA BLA 
BLA BLA BLA BLA BLA BLA BLA BLA BLA BLA BLA BLA BLA BLA BLA BLA BLA BLA BLA BLA 
BLA BLA BLA BLA BLA BLA BLA BLA BLA BLA BLA BLA BLA BLA BLA BLA BLA BLA BLA BLA 
BLA BLA BLA BLA BLA BLA BLA BLA BLA BLA BLA BLA BLA BLA BLA BLA BLA BLA BLA BLA 
BLA BLA BLA BLA BLA BLA BLA BLA BLA BLA BLA BLA BLA BLA BLA BLA BLA BLA BLA BLA 
BLA BLA BLA BLA BLA BLA BLA BLA BLA BLA BLA BLA BLA BLA BLA BLA BLA BLA BLA BLA 
BLA BLA BLA BLA BLA BLA BLA BLA BLA BLA BLA BLA BLA BLA BLA BLA BLA BLA BLA BLA 
BLA BLA BLA BLA BLA BLA BLA BLA BLA BLA BLA BLA BLA BLA BLA BLA BLA BLA BLA BLA 
BLA BLA BLA BLA BLA BLA BLA BLA BLA BLA BLA BLA BLA BLA BLA BLA BLA BLA BLA BLA 
BLA BLA BLA BLA BLA BLA BLA BLA BLA BLA BLA BLA BLA BLA BLA BLA BLA BLA BLA BLA 
BLA BLA BLA BLA BLA BLA BLA BLA BLA BLA BLA BLA BLA BLA BLA BLA BLA BLA BLA BLA 
BLA BLA BLA BLA BLA BLA BLA BLA BLA BLA BLA BLA BLA BLA BLA BLA BLA BLA BLA BLA 
BLA BLA BLA BLA BLA BLA BLA BLA BLA BLA BLA BLA BLA BLA BLA BLA BLA BLA BLA BLA 
BLA BLA BLA BLA BLA BLA BLA BLA BLA BLA BLA BLA BLA BLA BLA BLA BLA BLA BLA BLA 
BLA BLA BLA BLA BLA BLA BLA BLA BLA BLA BLA BLA BLA BLA BLA BLA BLA BLA BLA BLA 
BLA BLA BLA BLA BLA BLA BLA BLA BLA BLA BLA BLA BLA BLA BLA BLA BLA BLA BLA BLA 
BLA BLA BLA BLA BLA BLA BLA BLA BLA BLA BLA BLA BLA BLA BLA BLA BLA BLA BLA BLA 
BLA BLA BLA BLA BLA BLA BLA BLA BLA BLA BLA BLA BLA BLA BLA BLA BLA BLA BLA BLA 
BLA BLA BLA BLA BLA BLA BLA BLA BLA BLA BLA BLA BLA BLA BLA BLA BLA BLA BLA BLA 
BLA BLA BLA BLA BLA BLA BLA BLA BLA BLA BLA BLA BLA BLA BLA BLA BLA BLA BLA BLA 
BLA BLA BLA BLA BLA BLA BLA BLA BLA BLA BLA BLA BLA BLA BLA BLA BLA BLA BLA BLA 
BLA BLA BLA BLA BLA BLA BLA BLA BLA BLA BLA BLA BLA BLA BLA BLA BLA BLA BLA BLA 
BLA BLA BLA BLA BLA BLA BLA BLA BLA BLA BLA BLA BLA BLA BLA BLA BLA BLA BLA BLA 
BLA BLA BLA BLA BLA BLA BLA BLA BLA BLA BLA BLA BLA BLA BLA BLA BLA BLA BLA BLA 
BLA BLA BLA BLA BLA BLA BLA BLA BLA BLA BLA BLA BLA BLA BLA BLA BLA BLA BLA BLA 
BLA BLA BLA BLA BLA BLA BLA BLA BLA BLA BLA BLA BLA BLA BLA BLA BLA BLA BLA BLA 
BLA BLA BLA BLA BLA BLA BLA BLA BLA BLA BLA BLA BLA BLA BLA BLA BLA BLA BLA BLA 
BLA BLA BLA BLA BLA BLA BLA BLA BLA BLA BLA BLA BLA BLA BLA BLA BLA BLA BLA BLA 
BLA BLA BLA BLA BLA BLA BLA BLA BLA BLA BLA BLA BLA BLA BLA BLA BLA BLA BLA BLA 
BLA BLA BLA BLA BLA BLA BLA BLA BLA BLA BLA BLA BLA BLA BLA BLA BLA BLA BLA BLA 
BLA BLA BLA BLA BLA BLA BLA BLA BLA BLA BLA BLA BLA BLA BLA BLA BLA BLA BLA BLA 
BLA BLA BLA BLA BLA BLA BLA BLA BLA BLA BLA BLA BLA BLA BLA BLA BLA BLA BLA BLA 
BLA BLA BLA BLA BLA BLA BLA BLA BLA BLA BLA BLA BLA BLA BLA BLA BLA BLA BLA BLA 
BLA BLA BLA BLA BLA BLA BLA BLA BLA BLA BLA BLA BLA BLA BLA BLA BLA BLA BLA BLA 
BLA BLA BLA BLA BLA BLA BLA BLA BLA BLA BLA BLA BLA BLA BLA BLA BLA BLA BLA BLA 
BLA BLA BLA BLA BLA BLA BLA BLA BLA BLA BLA BLA BLA BLA BLA BLA BLA BLA BLA BLA 
BLA BLA BLA BLA BLA BLA BLA BLA BLA BLA BLA BLA BLA BLA BLA BLA BLA BLA BLA BLA 
BLA BLA BLA BLA BLA BLA BLA BLA BLA BLA BLA BLA BLA BLA BLA BLA BLA BLA BLA BLA 
BLA BLA BLA BLA BLA BLA BLA BLA BLA BLA BLA BLA BLA BLA BLA BLA BLA BLA BLA BLA 
BLA BLA BLA BLA BLA BLA BLA BLA BLA BLA BLA BLA BLA BLA BLA BLA BLA BLA BLA BLA 
BLA BLA BLA BLA BLA BLA BLA BLA BLA BLA BLA BLA BLA BLA BLA BLA BLA BLA BLA BLA 
BLA BLA BLA BLA BLA BLA BLA BLA BLA BLA BLA BLA BLA BLA BLA BLA BLA BLA BLA BLA 
BLA BLA BLA BLA BLA BLA BLA BLA BLA BLA BLA BLA BLA BLA BLA BLA BLA BLA BLA BLA 
BLA BLA BLA BLA BLA BLA BLA BLA BLA BLA BLA BLA BLA BLA BLA BLA BLA BLA BLA BLA 
BLA BLA BLA BLA BLA BLA BLA BLA BLA BLA BLA BLA BLA BLA BLA BLA BLA BLA BLA BLA 
BLA BLA BLA BLA BLA BLA BLA BLA BLA BLA BLA BLA BLA BLA BLA BLA BLA BLA BLA BLA 
BLA BLA BLA BLA BLA BLA BLA BLA BLA BLA BLA BLA BLA BLA BLA BLA BLA BLA BLA BLA 
BLA BLA BLA BLA BLA BLA BLA BLA BLA BLA BLA BLA BLA BLA BLA BLA BLA BLA BLA BLA 
BLA BLA BLA BLA BLA BLA BLA BLA BLA BLA BLA BLA BLA BLA BLA BLA BLA BLA BLA BLA 
BLA BLA BLA BLA BLA BLA BLA BLA BLA BLA BLA BLA BLA BLA BLA BLA BLA BLA BLA BLA 
BLA BLA BLA BLA BLA BLA BLA BLA BLA BLA BLA BLA BLA BLA BLA BLA BLA BLA BLA BLA 
BLA BLA BLA BLA BLA BLA BLA BLA BLA BLA BLA BLA BLA BLA BLA BLA BLA BLA BLA BLA 
BLA BLA BLA BLA BLA BLA BLA BLA BLA BLA BLA BLA BLA BLA BLA BLA BLA BLA BLA BLA 
BLA BLA BLA BLA BLA BLA BLA BLA BLA BLA BLA BLA BLA BLA BLA BLA BLA BLA BLA BLA 
BLA BLA BLA BLA BLA BLA BLA BLA BLA BLA BLA BLA BLA BLA BLA BLA BLA BLA BLA BLA 
BLA BLA BLA BLA BLA BLA BLA BLA BLA BLA BLA BLA BLA BLA BLA BLA BLA BLA BLA BLA 
BLA BLA BLA BLA BLA BLA BLA BLA BLA BLA BLA BLA BLA BLA BLA BLA BLA BLA BLA BLA 
BLA BLA BLA BLA BLA BLA BLA BLA BLA BLA BLA BLA BLA BLA BLA BLA BLA BLA BLA BLA 
BLA BLA BLA BLA BLA BLA BLA BLA BLA BLA BLA BLA BLA BLA BLA BLA BLA BLA BLA BLA 
BLA BLA BLA BLA BLA BLA BLA BLA BLA BLA BLA BLA BLA BLA BLA BLA BLA BLA BLA BLA 
BLA BLA BLA BLA BLA BLA BLA BLA BLA BLA BLA BLA BLA BLA BLA BLA BLA BLA BLA BLA 
BLA BLA BLA BLA BLA BLA BLA BLA BLA BLA BLA BLA BLA BLA BLA BLA BLA BLA BLA BLA 
BLA BLA BLA BLA BLA BLA BLA BLA BLA BLA BLA BLA BLA BLA BLA BLA BLA BLA BLA BLA 
BLA BLA BLA BLA BLA BLA BLA BLA BLA BLA BLA BLA BLA BLA BLA BLA BLA BLA BLA BLA 
BLA BLA BLA BLA BLA BLA BLA BLA BLA BLA BLA BLA BLA BLA BLA BLA BLA BLA BLA BLA 
BLA BLA BLA BLA BLA BLA BLA BLA BLA BLA BLA BLA BLA BLA BLA BLA BLA BLA BLA BLA 
BLA BLA BLA BLA BLA BLA BLA BLA BLA BLA BLA BLA BLA BLA BLA BLA BLA BLA BLA BLA 
BLA BLA BLA BLA BLA BLA BLA BLA BLA BLA BLA BLA BLA BLA BLA BLA BLA BLA BLA BLA 
BLA BLA BLA BLA BLA BLA BLA BLA BLA BLA BLA BLA BLA BLA BLA BLA BLA BLA BLA BLA 
BLA BLA BLA BLA BLA BLA BLA BLA BLA BLA BLA BLA BLA BLA BLA BLA BLA BLA BLA BLA 
BLA BLA BLA BLA BLA BLA BLA BLA BLA BLA BLA BLA BLA BLA BLA BLA BLA BLA BLA BLA 
BLA BLA BLA BLA BLA BLA BLA BLA BLA BLA BLA BLA BLA BLA BLA BLA BLA BLA BLA BLA 
BLA BLA BLA BLA BLA BLA BLA BLA BLA BLA BLA BLA BLA BLA BLA BLA BLA BLA BLA BLA 
BLA BLA BLA BLA BLA BLA BLA BLA BLA BLA BLA BLA BLA BLA BLA BLA BLA BLA BLA BLA 
BLA BLA BLA BLA BLA BLA BLA BLA BLA BLA BLA BLA BLA BLA BLA BLA BLA BLA BLA BLA 
BLA BLA BLA BLA BLA BLA BLA BLA BLA BLA BLA BLA BLA BLA BLA BLA BLA BLA BLA BLA 
BLA BLA BLA BLA BLA BLA BLA BLA BLA BLA BLA BLA BLA BLA BLA BLA BLA BLA BLA BLA 
BLA BLA BLA BLA BLA BLA BLA BLA BLA BLA BLA BLA BLA BLA BLA BLA BLA BLA BLA BLA 
BLA BLA BLA BLA BLA BLA BLA BLA BLA BLA BLA BLA BLA BLA BLA BLA BLA BLA BLA BLA 
BLA BLA BLA BLA BLA BLA BLA BLA BLA BLA BLA BLA BLA BLA BLA BLA BLA BLA BLA BLA 
BLA BLA BLA BLA BLA BLA BLA BLA BLA BLA BLA BLA BLA BLA BLA BLA BLA BLA BLA BLA 
BLA BLA BLA BLA BLA BLA BLA BLA BLA BLA BLA BLA BLA BLA BLA BLA BLA BLA BLA BLA 
BLA BLA BLA BLA BLA BLA BLA BLA BLA BLA BLA BLA BLA BLA BLA BLA BLA BLA BLA BLA 
BLA BLA BLA BLA BLA BLA BLA BLA BLA BLA BLA BLA BLA BLA BLA BLA BLA BLA BLA BLA 
BLA BLA BLA BLA BLA BLA BLA BLA BLA BLA BLA BLA BLA BLA BLA BLA BLA BLA BLA BLA 
BLA BLA BLA BLA BLA BLA BLA BLA BLA BLA BLA BLA BLA BLA BLA BLA BLA BLA BLA BLA 
BLA BLA BLA BLA BLA BLA BLA BLA BLA BLA BLA BLA BLA BLA BLA BLA BLA BLA BLA BLA 
BLA BLA BLA BLA BLA BLA BLA BLA BLA BLA BLA BLA BLA BLA BLA BLA BLA BLA BLA BLA 
BLA BLA BLA BLA BLA BLA BLA BLA BLA BLA BLA BLA BLA BLA BLA BLA BLA BLA BLA BLA 
BLA BLA BLA BLA BLA BLA BLA BLA BLA BLA BLA BLA BLA BLA BLA BLA BLA BLA BLA BLA 
BLA BLA BLA BLA BLA BLA BLA BLA BLA BLA BLA BLA BLA BLA BLA BLA BLA BLA BLA BLA 
BLA BLA BLA BLA BLA BLA BLA BLA BLA BLA BLA BLA BLA BLA BLA BLA BLA BLA BLA BLA 
BLA BLA BLA BLA BLA BLA BLA BLA BLA BLA BLA BLA BLA BLA BLA BLA BLA BLA BLA BLA 
BLA BLA BLA BLA BLA BLA BLA BLA BLA BLA BLA BLA BLA BLA BLA BLA BLA BLA BLA BLA 
BLA BLA BLA BLA BLA BLA BLA BLA BLA BLA BLA BLA BLA BLA BLA BLA BLA BLA BLA BLA 
BLA BLA BLA BLA BLA BLA BLA BLA BLA BLA BLA BLA BLA BLA BLA BLA BLA BLA BLA BLA 
BLA BLA BLA BLA BLA BLA BLA BLA BLA BLA BLA BLA BLA BLA BLA BLA BLA BLA BLA BLA 
BLA BLA BLA BLA BLA BLA BLA BLA BLA BLA BLA BLA BLA BLA BLA BLA BLA BLA BLA BLA 
BLA BLA BLA BLA BLA BLA BLA BLA BLA BLA BLA BLA BLA BLA BLA BLA BLA BLA BLA BLA 
BLA BLA BLA BLA BLA BLA BLA BLA BLA BLA BLA BLA BLA BLA BLA BLA BLA BLA BLA BLA 
BLA BLA BLA BLA BLA BLA BLA BLA BLA BLA BLA BLA BLA BLA BLA BLA BLA BLA BLA BLA 
BLA BLA BLA BLA BLA BLA BLA BLA BLA BLA BLA BLA BLA BLA BLA BLA BLA BLA BLA BLA 
BLA BLA BLA BLA BLA BLA BLA BLA BLA BLA BLA BLA BLA BLA BLA BLA BLA BLA BLA BLA 
BLA BLA BLA BLA BLA BLA BLA BLA BLA BLA BLA BLA BLA BLA BLA BLA BLA BLA BLA BLA 
BLA BLA BLA BLA BLA BLA BLA BLA BLA BLA BLA BLA BLA BLA BLA BLA BLA BLA BLA BLA 
BLA BLA BLA BLA BLA BLA BLA BLA BLA BLA BLA BLA BLA BLA BLA BLA BLA BLA BLA BLA 
BLA BLA BLA BLA BLA BLA BLA BLA BLA BLA BLA BLA BLA BLA BLA BLA BLA BLA BLA BLA 
BLA BLA BLA BLA BLA BLA BLA BLA BLA BLA BLA BLA BLA BLA BLA BLA BLA BLA BLA BLA 
BLA BLA BLA BLA BLA BLA BLA BLA BLA BLA BLA BLA BLA BLA BLA BLA BLA BLA BLA BLA 
BLA BLA BLA BLA BLA BLA BLA BLA BLA BLA BLA BLA BLA BLA BLA BLA BLA BLA BLA BLA 
BLA BLA BLA BLA BLA BLA BLA BLA BLA BLA BLA BLA BLA BLA BLA BLA BLA BLA BLA BLA 
BLA BLA BLA BLA BLA BLA BLA BLA BLA BLA BLA BLA BLA BLA BLA BLA BLA BLA BLA BLA 
BLA BLA BLA BLA BLA BLA BLA BLA BLA BLA BLA BLA BLA BLA BLA BLA BLA BLA BLA BLA 
BLA BLA BLA BLA BLA BLA BLA BLA BLA BLA BLA BLA BLA BLA BLA BLA BLA BLA BLA BLA 
BLA BLA BLA BLA BLA BLA BLA BLA BLA BLA BLA BLA BLA BLA BLA BLA BLA BLA BLA BLA 
BLA BLA BLA BLA BLA BLA BLA BLA BLA BLA BLA BLA BLA BLA BLA BLA BLA BLA BLA BLA 
BLA BLA BLA BLA BLA BLA BLA BLA BLA BLA BLA BLA BLA BLA BLA BLA BLA BLA BLA BLA 
BLA BLA BLA BLA BLA BLA BLA BLA BLA BLA BLA BLA BLA BLA BLA BLA BLA BLA BLA BLA 
BLA BLA BLA BLA BLA BLA BLA BLA BLA BLA BLA BLA BLA BLA BLA BLA BLA BLA BLA BLA 
BLA BLA BLA BLA BLA BLA BLA BLA BLA BLA BLA BLA BLA BLA BLA BLA BLA BLA BLA BLA 
BLA BLA BLA BLA BLA BLA BLA BLA BLA BLA BLA BLA BLA BLA BLA BLA BLA BLA BLA BLA 
BLA BLA BLA BLA BLA BLA BLA BLA BLA BLA BLA BLA BLA BLA BLA BLA BLA BLA BLA BLA 
BLA BLA BLA BLA BLA BLA BLA BLA BLA BLA BLA BLA BLA BLA BLA BLA BLA BLA BLA BLA 
BLA BLA BLA BLA BLA BLA BLA BLA BLA BLA BLA BLA BLA BLA BLA BLA BLA BLA BLA BLA 
BLA BLA BLA BLA BLA BLA BLA BLA BLA BLA BLA BLA BLA BLA BLA BLA BLA BLA BLA BLA 
BLA BLA BLA BLA BLA BLA BLA BLA BLA BLA BLA BLA BLA BLA BLA BLA BLA BLA BLA BLA 
BLA BLA BLA BLA BLA BLA BLA BLA BLA BLA BLA BLA BLA BLA BLA BLA BLA BLA BLA BLA 
BLA BLA BLA BLA BLA BLA BLA BLA BLA BLA BLA BLA BLA BLA BLA BLA BLA BLA BLA BLA 
BLA BLA BLA BLA BLA BLA BLA BLA BLA BLA BLA BLA BLA BLA BLA BLA BLA BLA BLA BLA 
BLA BLA BLA BLA BLA BLA BLA BLA BLA BLA BLA BLA BLA BLA BLA BLA BLA BLA BLA BLA 
BLA BLA BLA BLA BLA BLA BLA BLA BLA BLA BLA BLA BLA BLA BLA BLA BLA BLA BLA BLA 
BLA BLA BLA BLA BLA BLA BLA BLA BLA BLA BLA BLA BLA BLA BLA BLA BLA BLA BLA BLA 
BLA BLA BLA BLA BLA BLA BLA BLA BLA BLA BLA BLA BLA BLA BLA BLA BLA BLA BLA BLA 
BLA BLA BLA BLA BLA BLA BLA BLA BLA BLA BLA BLA BLA BLA BLA BLA BLA BLA BLA BLA 
BLA BLA BLA BLA BLA BLA BLA BLA BLA BLA BLA BLA BLA BLA BLA BLA BLA BLA BLA BLA 
BLA BLA BLA BLA BLA BLA BLA BLA BLA BLA BLA BLA BLA BLA BLA BLA BLA BLA BLA BLA 
BLA BLA BLA BLA BLA BLA BLA BLA BLA BLA BLA BLA BLA BLA BLA BLA BLA BLA BLA BLA 
BLA BLA BLA BLA BLA BLA BLA BLA BLA BLA BLA BLA BLA BLA BLA BLA BLA BLA BLA BLA 
BLA BLA BLA BLA BLA BLA BLA BLA BLA BLA BLA BLA BLA BLA BLA BLA BLA BLA BLA BLA 
BLA BLA BLA BLA BLA BLA BLA BLA BLA BLA BLA BLA BLA BLA BLA BLA BLA BLA BLA BLA 
BLA BLA BLA BLA BLA BLA BLA BLA BLA BLA BLA BLA BLA BLA BLA BLA BLA BLA BLA BLA 
BLA BLA BLA BLA BLA BLA BLA BLA BLA BLA BLA BLA BLA BLA BLA BLA BLA BLA BLA BLA 
BLA BLA BLA BLA BLA BLA BLA BLA BLA BLA BLA BLA BLA BLA BLA BLA BLA BLA BLA BLA 
BLA BLA BLA BLA BLA BLA BLA BLA BLA BLA BLA BLA BLA BLA BLA BLA BLA BLA BLA BLA 
BLA BLA BLA BLA BLA BLA BLA BLA BLA BLA BLA BLA BLA BLA BLA BLA BLA BLA BLA BLA 
BLA BLA BLA BLA BLA BLA BLA BLA BLA BLA BLA BLA BLA BLA BLA BLA BLA BLA BLA BLA 
BLA BLA BLA BLA BLA BLA BLA BLA BLA BLA BLA BLA BLA BLA BLA BLA BLA BLA BLA BLA 
BLA BLA BLA BLA BLA BLA BLA BLA BLA BLA BLA BLA BLA BLA BLA BLA BLA BLA BLA BLA 
BLA BLA BLA BLA BLA BLA BLA BLA BLA BLA BLA BLA BLA BLA BLA BLA BLA BLA BLA BLA 
BLA BLA BLA BLA BLA BLA BLA BLA BLA BLA BLA BLA BLA BLA BLA BLA BLA BLA BLA BLA 
BLA BLA BLA BLA BLA BLA BLA BLA BLA BLA BLA BLA BLA BLA BLA BLA BLA BLA BLA BLA 
BLA BLA BLA BLA BLA BLA BLA BLA BLA BLA BLA BLA BLA BLA BLA BLA BLA BLA BLA BLA 
BLA BLA BLA BLA BLA BLA BLA BLA BLA BLA BLA BLA BLA BLA BLA BLA BLA BLA BLA BLA 
BLA BLA BLA BLA BLA BLA BLA BLA BLA BLA BLA BLA BLA BLA BLA BLA BLA BLA BLA BLA 
BLA BLA BLA BLA BLA BLA BLA BLA BLA BLA BLA BLA BLA BLA BLA BLA BLA BLA BLA BLA 
BLA BLA BLA BLA BLA BLA BLA BLA BLA BLA BLA BLA BLA BLA BLA BLA BLA BLA BLA BLA 
BLA BLA BLA BLA BLA BLA BLA BLA BLA BLA BLA BLA BLA BLA BLA BLA BLA BLA BLA BLA 
BLA BLA BLA BLA BLA BLA BLA BLA BLA BLA BLA BLA BLA BLA BLA BLA BLA BLA BLA BLA 
BLA BLA BLA BLA BLA BLA BLA BLA BLA BLA BLA BLA BLA BLA BLA BLA BLA BLA BLA BLA 
BLA BLA BLA BLA BLA BLA BLA BLA BLA BLA BLA BLA BLA BLA BLA BLA BLA BLA BLA BLA 
BLA BLA BLA BLA BLA BLA BLA BLA BLA BLA BLA BLA BLA BLA BLA BLA BLA BLA BLA BLA 
BLA BLA BLA BLA BLA BLA BLA BLA BLA BLA BLA BLA BLA BLA BLA BLA BLA BLA BLA BLA 
BLA BLA BLA BLA BLA BLA BLA BLA BLA BLA BLA BLA BLA BLA BLA BLA BLA BLA BLA BLA 
BLA BLA BLA BLA BLA BLA BLA BLA BLA BLA BLA BLA BLA BLA BLA BLA BLA BLA BLA BLA 
BLA BLA BLA BLA BLA BLA BLA BLA BLA BLA BLA BLA BLA BLA BLA BLA BLA BLA BLA BLA 
BLA BLA BLA BLA BLA BLA BLA BLA BLA BLA BLA BLA BLA BLA BLA BLA BLA BLA BLA BLA 
BLA BLA BLA BLA BLA BLA BLA BLA BLA BLA BLA BLA BLA BLA BLA BLA BLA BLA BLA BLA 
BLA BLA BLA BLA BLA BLA BLA BLA BLA BLA BLA BLA BLA BLA BLA BLA BLA BLA BLA BLA 
BLA BLA BLA BLA BLA BLA BLA BLA BLA BLA BLA BLA BLA BLA BLA BLA BLA BLA BLA BLA 
BLA BLA BLA BLA BLA BLA BLA BLA BLA BLA BLA BLA BLA BLA BLA BLA BLA BLA BLA BLA 
BLA BLA BLA BLA BLA BLA BLA BLA BLA BLA BLA BLA BLA BLA BLA BLA BLA BLA BLA BLA 
BLA BLA BLA BLA BLA BLA BLA BLA BLA BLA BLA BLA BLA BLA BLA BLA BLA BLA BLA BLA 
BLA BLA BLA BLA BLA BLA BLA BLA BLA BLA BLA BLA BLA BLA BLA BLA BLA BLA BLA BLA 
BLA BLA BLA BLA BLA BLA BLA BLA BLA BLA BLA BLA BLA BLA BLA BLA BLA BLA BLA BLA 
BLA BLA BLA BLA BLA BLA BLA BLA BLA BLA BLA BLA BLA BLA BLA BLA BLA BLA BLA BLA 
BLA BLA BLA BLA BLA BLA BLA BLA BLA BLA BLA BLA BLA BLA BLA BLA BLA BLA BLA BLA 
BLA BLA BLA BLA BLA BLA BLA BLA BLA BLA BLA BLA BLA BLA BLA BLA BLA BLA BLA BLA 
BLA BLA BLA BLA BLA BLA BLA BLA BLA BLA BLA BLA BLA BLA BLA BLA BLA BLA BLA BLA 
BLA BLA BLA BLA BLA BLA BLA BLA BLA BLA BLA BLA BLA BLA BLA BLA BLA BLA BLA BLA 
BLA BLA BLA BLA BLA BLA BLA BLA BLA BLA BLA BLA BLA BLA BLA BLA BLA BLA BLA BLA 
BLA BLA BLA BLA BLA BLA BLA BLA BLA BLA BLA BLA BLA BLA BLA BLA BLA BLA BLA BLA 
BLA BLA BLA BLA BLA BLA BLA BLA BLA BLA BLA BLA BLA BLA BLA BLA BLA BLA BLA BLA 
BLA BLA BLA BLA BLA BLA BLA BLA BLA BLA BLA BLA BLA BLA BLA BLA BLA BLA BLA BLA 
BLA BLA BLA BLA BLA BLA BLA BLA BLA BLA BLA BLA BLA BLA BLA BLA BLA BLA BLA BLA 
BLA BLA BLA BLA BLA BLA BLA BLA BLA BLA BLA BLA BLA BLA BLA BLA BLA BLA BLA BLA 
BLA BLA BLA BLA BLA BLA BLA BLA BLA BLA BLA BLA BLA BLA BLA BLA BLA BLA BLA BLA 
BLA BLA BLA BLA BLA BLA BLA BLA BLA BLA BLA BLA BLA BLA BLA BLA BLA BLA BLA BLA 
BLA BLA BLA BLA BLA BLA BLA BLA BLA BLA BLA BLA BLA BLA BLA BLA BLA BLA BLA BLA 
BLA BLA BLA BLA BLA BLA BLA BLA BLA BLA BLA BLA BLA BLA BLA BLA BLA BLA BLA BLA 
BLA BLA BLA BLA BLA BLA BLA BLA BLA BLA BLA BLA BLA BLA BLA BLA BLA BLA BLA BLA 
BLA BLA BLA BLA BLA BLA BLA BLA BLA BLA BLA BLA BLA BLA BLA BLA BLA BLA BLA BLA 
BLA BLA BLA BLA BLA BLA BLA BLA BLA BLA BLA BLA BLA BLA BLA BLA BLA BLA BLA BLA 
BLA BLA BLA BLA BLA BLA BLA BLA BLA BLA BLA BLA BLA BLA BLA BLA BLA BLA BLA BLA 
BLA BLA BLA BLA BLA BLA BLA BLA BLA BLA BLA BLA BLA BLA BLA BLA BLA BLA BLA BLA 
BLA BLA BLA BLA BLA BLA BLA BLA BLA BLA BLA BLA BLA BLA BLA BLA BLA BLA BLA BLA 
BLA BLA BLA BLA BLA BLA BLA BLA BLA BLA BLA BLA BLA BLA BLA BLA BLA BLA BLA BLA 
BLA BLA BLA BLA BLA BLA BLA BLA BLA BLA BLA BLA BLA BLA BLA BLA BLA BLA BLA BLA 
BLA BLA BLA BLA BLA BLA BLA BLA BLA BLA BLA BLA BLA BLA BLA BLA BLA BLA BLA BLA 
BLA BLA BLA BLA BLA BLA BLA BLA BLA BLA BLA BLA BLA BLA BLA BLA BLA BLA BLA BLA 
BLA BLA BLA BLA BLA BLA BLA BLA BLA BLA BLA BLA BLA BLA BLA BLA BLA BLA BLA BLA 
BLA BLA BLA BLA BLA BLA BLA BLA BLA BLA BLA BLA BLA BLA BLA BLA BLA BLA BLA BLA 
BLA BLA BLA BLA BLA BLA BLA BLA BLA BLA BLA BLA BLA BLA BLA BLA BLA BLA BLA BLA 
BLA BLA BLA BLA BLA BLA BLA BLA BLA BLA BLA BLA BLA BLA BLA BLA BLA BLA BLA BLA 
BLA BLA BLA BLA BLA BLA BLA BLA BLA BLA BLA BLA BLA BLA BLA BLA BLA BLA BLA BLA 
BLA BLA BLA BLA BLA BLA BLA BLA BLA BLA BLA BLA BLA BLA BLA BLA BLA BLA BLA BLA 
BLA BLA BLA BLA BLA BLA BLA BLA BLA BLA BLA BLA BLA BLA BLA BLA BLA BLA BLA BLA 
BLA BLA BLA BLA BLA BLA BLA BLA BLA BLA BLA BLA BLA BLA BLA BLA BLA BLA BLA BLA 
BLA BLA BLA BLA BLA BLA BLA BLA BLA BLA BLA BLA BLA BLA BLA BLA BLA BLA BLA BLA 
BLA BLA BLA BLA BLA BLA BLA BLA BLA BLA BLA BLA BLA BLA BLA BLA BLA BLA BLA BLA 
BLA BLA BLA BLA BLA BLA BLA BLA BLA BLA BLA BLA BLA BLA BLA BLA BLA BLA BLA BLA 
BLA BLA BLA BLA BLA BLA BLA BLA BLA BLA BLA BLA BLA BLA BLA BLA BLA BLA BLA BLA 
BLA BLA BLA BLA BLA BLA BLA BLA BLA BLA BLA BLA BLA BLA BLA BLA BLA BLA BLA BLA 
BLA BLA BLA BLA BLA BLA BLA BLA BLA BLA BLA BLA BLA BLA BLA BLA BLA BLA BLA BLA 
BLA BLA BLA BLA BLA BLA BLA BLA BLA BLA BLA BLA BLA BLA BLA BLA BLA BLA BLA BLA 
BLA BLA BLA BLA BLA BLA BLA BLA BLA BLA BLA BLA BLA BLA BLA BLA BLA BLA BLA BLA 
BLA BLA BLA BLA BLA BLA BLA BLA BLA BLA BLA BLA BLA BLA BLA BLA BLA BLA BLA BLA 
BLA BLA BLA BLA BLA BLA BLA BLA BLA BLA BLA BLA BLA BLA BLA BLA BLA BLA BLA BLA 
BLA BLA BLA BLA BLA BLA BLA BLA BLA BLA BLA BLA BLA BLA BLA BLA BLA BLA BLA BLA 
BLA BLA BLA BLA BLA BLA BLA BLA BLA BLA BLA BLA BLA BLA BLA BLA BLA BLA BLA BLA 
BLA BLA BLA BLA BLA BLA BLA BLA BLA BLA BLA BLA BLA BLA BLA BLA BLA BLA BLA BLA 
BLA BLA BLA BLA BLA BLA BLA BLA BLA BLA BLA BLA BLA BLA BLA BLA BLA BLA BLA BLA 
BLA BLA BLA BLA BLA BLA BLA BLA BLA BLA BLA BLA BLA BLA BLA BLA BLA BLA BLA BLA 
BLA BLA BLA BLA BLA BLA BLA BLA BLA BLA BLA BLA BLA BLA BLA BLA BLA BLA BLA BLA 
BLA BLA BLA BLA BLA BLA BLA BLA BLA BLA BLA BLA BLA BLA BLA BLA BLA BLA BLA BLA 
BLA BLA BLA BLA BLA BLA BLA BLA BLA BLA BLA BLA BLA BLA BLA BLA BLA BLA BLA BLA 
BLA BLA BLA BLA BLA BLA BLA BLA BLA BLA BLA BLA BLA BLA BLA BLA BLA BLA BLA BLA 
BLA BLA BLA BLA BLA BLA BLA BLA BLA BLA BLA BLA BLA BLA BLA BLA BLA BLA BLA BLA 
BLA BLA BLA BLA BLA BLA BLA BLA BLA BLA BLA BLA BLA BLA BLA BLA BLA BLA BLA BLA 
BLA BLA BLA BLA BLA BLA BLA BLA BLA BLA BLA BLA BLA BLA BLA BLA BLA BLA BLA BLA 
BLA BLA BLA BLA BLA BLA BLA BLA BLA BLA BLA BLA BLA BLA BLA BLA BLA BLA BLA BLA 
BLA BLA BLA BLA BLA BLA BLA BLA BLA BLA BLA BLA BLA BLA BLA BLA BLA BLA BLA BLA 
BLA BLA BLA BLA BLA BLA BLA BLA BLA BLA BLA BLA BLA BLA BLA BLA BLA BLA BLA BLA 
BLA BLA BLA BLA BLA BLA BLA BLA BLA BLA BLA BLA BLA BLA BLA BLA BLA BLA BLA BLA 
BLA BLA BLA BLA BLA BLA BLA BLA BLA BLA BLA BLA BLA BLA BLA BLA BLA BLA BLA BLA 
BLA BLA BLA BLA BLA BLA BLA BLA BLA BLA BLA BLA BLA BLA BLA BLA BLA BLA BLA BLA 
BLA BLA BLA BLA BLA BLA BLA BLA BLA BLA BLA BLA BLA BLA BLA BLA BLA BLA BLA BLA 
BLA BLA BLA BLA BLA BLA BLA BLA BLA BLA BLA BLA BLA BLA BLA BLA BLA BLA BLA BLA 
BLA BLA BLA BLA BLA BLA BLA BLA BLA BLA BLA BLA BLA BLA BLA BLA BLA BLA BLA BLA 
BLA BLA BLA BLA BLA BLA BLA BLA BLA BLA BLA BLA BLA BLA BLA BLA BLA BLA BLA BLA 
BLA BLA BLA BLA BLA BLA BLA BLA BLA BLA BLA BLA BLA BLA BLA BLA BLA BLA BLA BLA 
BLA BLA BLA BLA BLA BLA BLA BLA BLA BLA BLA BLA BLA BLA BLA BLA BLA BLA BLA BLA 
BLA BLA BLA BLA BLA BLA BLA BLA BLA BLA BLA BLA BLA BLA BLA BLA BLA BLA BLA BLA 
BLA BLA BLA BLA BLA BLA BLA BLA BLA BLA BLA BLA BLA BLA BLA BLA BLA BLA BLA BLA 
BLA BLA BLA BLA BLA BLA BLA BLA BLA BLA BLA BLA BLA BLA BLA BLA BLA BLA BLA BLA 
BLA BLA BLA BLA BLA BLA BLA BLA BLA BLA BLA BLA BLA BLA BLA BLA BLA BLA BLA BLA 
BLA BLA BLA BLA BLA BLA BLA BLA BLA BLA BLA BLA BLA BLA BLA BLA BLA BLA BLA BLA 
BLA BLA BLA BLA BLA BLA BLA BLA BLA BLA BLA BLA BLA BLA BLA BLA BLA BLA BLA BLA 
BLA BLA BLA BLA BLA BLA BLA BLA BLA BLA BLA BLA BLA BLA BLA BLA BLA BLA BLA BLA 
BLA BLA BLA BLA BLA BLA BLA BLA BLA BLA BLA BLA BLA BLA BLA BLA BLA BLA BLA BLA 
BLA BLA BLA BLA BLA BLA BLA BLA BLA BLA BLA BLA BLA BLA BLA BLA BLA BLA BLA BLA 
BLA BLA BLA BLA BLA BLA BLA BLA BLA BLA BLA BLA BLA BLA BLA BLA BLA BLA BLA BLA 
BLA BLA BLA BLA BLA BLA BLA BLA BLA BLA BLA BLA BLA BLA BLA BLA BLA BLA BLA BLA 
BLA BLA BLA BLA BLA BLA BLA BLA BLA BLA BLA BLA BLA BLA BLA BLA BLA BLA BLA BLA 
BLA BLA BLA BLA BLA BLA BLA BLA BLA BLA BLA BLA BLA BLA BLA BLA BLA BLA BLA BLA 
BLA BLA BLA BLA BLA BLA BLA BLA BLA BLA BLA BLA BLA BLA BLA BLA BLA BLA BLA BLA 
BLA BLA BLA BLA BLA BLA BLA BLA BLA BLA BLA BLA BLA BLA BLA BLA BLA BLA BLA BLA 
BLA BLA BLA BLA BLA BLA BLA BLA BLA BLA BLA BLA BLA BLA BLA BLA BLA BLA BLA BLA 
BLA BLA BLA BLA BLA BLA BLA BLA BLA BLA BLA BLA BLA BLA BLA BLA BLA BLA BLA BLA 
BLA BLA BLA BLA BLA BLA BLA BLA BLA BLA BLA BLA BLA BLA BLA BLA BLA BLA BLA BLA 
BLA BLA BLA BLA BLA BLA BLA BLA BLA BLA BLA BLA BLA BLA BLA BLA BLA BLA BLA BLA 
BLA BLA BLA BLA BLA BLA BLA BLA BLA BLA BLA BLA BLA BLA BLA BLA BLA BLA BLA BLA 
BLA BLA BLA BLA BLA BLA BLA BLA BLA BLA BLA BLA BLA BLA BLA BLA BLA BLA BLA BLA 
BLA BLA BLA BLA BLA BLA BLA BLA BLA BLA BLA BLA BLA BLA BLA BLA BLA BLA BLA BLA 
BLA BLA BLA BLA BLA BLA BLA BLA BLA BLA BLA BLA BLA BLA BLA BLA BLA BLA BLA BLA 
BLA BLA BLA BLA BLA BLA BLA BLA BLA BLA BLA BLA BLA BLA BLA BLA BLA BLA BLA BLA 
BLA BLA BLA BLA BLA BLA BLA BLA BLA BLA BLA BLA BLA BLA BLA BLA BLA BLA BLA BLA 
BLA BLA BLA BLA BLA BLA BLA BLA BLA BLA BLA BLA BLA BLA BLA BLA BLA BLA BLA BLA 
BLA BLA BLA BLA BLA BLA BLA BLA BLA BLA BLA BLA BLA BLA BLA BLA BLA BLA BLA BLA 
BLA BLA BLA BLA BLA BLA BLA BLA BLA BLA BLA BLA BLA BLA BLA BLA BLA BLA BLA BLA 
BLA BLA BLA BLA BLA BLA BLA BLA BLA BLA BLA BLA BLA BLA BLA BLA BLA BLA BLA BLA 
BLA BLA BLA BLA BLA BLA BLA BLA BLA BLA BLA BLA BLA BLA BLA BLA BLA BLA BLA BLA 
BLA BLA BLA BLA BLA BLA BLA BLA BLA BLA BLA BLA BLA BLA BLA BLA BLA BLA BLA BLA 
BLA BLA BLA BLA BLA BLA BLA BLA BLA BLA BLA BLA BLA BLA BLA BLA BLA BLA BLA BLA 
BLA BLA BLA BLA BLA BLA BLA BLA BLA BLA BLA BLA BLA BLA BLA BLA BLA BLA BLA BLA 
BLA BLA BLA BLA BLA BLA BLA BLA BLA BLA BLA BLA BLA BLA BLA BLA BLA BLA BLA BLA 
BLA BLA BLA BLA BLA BLA BLA BLA BLA BLA BLA BLA BLA BLA BLA BLA BLA BLA BLA BLA 
BLA BLA BLA BLA BLA BLA BLA BLA BLA BLA BLA BLA BLA BLA BLA BLA BLA BLA BLA BLA 
BLA BLA BLA BLA BLA BLA BLA BLA BLA BLA BLA BLA BLA BLA BLA BLA BLA BLA BLA BLA 
BLA BLA BLA BLA BLA BLA BLA BLA BLA BLA BLA BLA BLA BLA BLA BLA BLA BLA BLA BLA 
BLA BLA BLA BLA BLA BLA BLA BLA BLA BLA BLA BLA BLA BLA BLA BLA BLA BLA BLA BLA 
BLA BLA BLA BLA BLA BLA BLA BLA BLA BLA BLA BLA BLA BLA BLA BLA BLA BLA BLA BLA 
BLA BLA BLA BLA BLA BLA BLA BLA BLA BLA BLA BLA BLA BLA BLA BLA BLA BLA BLA BLA 
BLA BLA BLA BLA BLA BLA BLA BLA BLA BLA BLA BLA BLA BLA BLA BLA BLA BLA BLA BLA 
BLA BLA BLA BLA BLA BLA BLA BLA BLA BLA BLA BLA BLA BLA BLA BLA BLA BLA BLA BLA 
BLA BLA BLA BLA BLA BLA BLA BLA BLA BLA BLA BLA BLA BLA BLA BLA BLA BLA BLA BLA 
BLA BLA BLA BLA BLA BLA BLA BLA BLA BLA BLA BLA BLA BLA BLA BLA BLA BLA BLA BLA 
BLA BLA BLA BLA BLA BLA BLA BLA BLA BLA BLA BLA BLA BLA BLA BLA BLA BLA BLA BLA 
BLA BLA BLA BLA BLA BLA BLA BLA BLA BLA BLA BLA BLA BLA BLA BLA BLA BLA BLA BLA 
BLA BLA BLA BLA BLA BLA BLA BLA BLA BLA BLA BLA BLA BLA BLA BLA BLA BLA BLA BLA 
BLA BLA BLA BLA BLA BLA BLA BLA BLA BLA BLA BLA BLA BLA BLA BLA BLA BLA BLA BLA 
BLA BLA BLA BLA BLA BLA BLA BLA BLA BLA BLA BLA BLA BLA BLA BLA BLA BLA BLA BLA 
BLA BLA BLA BLA BLA BLA BLA BLA BLA BLA BLA BLA BLA BLA BLA BLA BLA BLA BLA BLA 
BLA BLA BLA BLA BLA BLA BLA BLA BLA BLA BLA BLA BLA BLA BLA BLA BLA BLA BLA BLA 
BLA BLA BLA BLA BLA BLA BLA BLA BLA BLA BLA BLA BLA BLA BLA BLA BLA BLA BLA BLA 
BLA BLA BLA BLA BLA BLA BLA BLA BLA BLA BLA BLA BLA BLA BLA BLA BLA BLA BLA BLA 
BLA BLA BLA BLA BLA BLA BLA BLA BLA BLA BLA BLA BLA BLA BLA BLA BLA BLA BLA BLA 
BLA BLA BLA BLA BLA BLA BLA BLA BLA BLA BLA BLA BLA BLA BLA BLA BLA BLA BLA BLA 
BLA BLA BLA BLA BLA BLA BLA BLA BLA BLA BLA BLA BLA BLA BLA BLA BLA BLA BLA BLA 
BLA BLA BLA BLA BLA BLA BLA BLA BLA BLA BLA BLA BLA BLA BLA BLA BLA BLA BLA BLA 
BLA BLA BLA BLA BLA BLA BLA BLA BLA BLA BLA BLA BLA BLA BLA BLA BLA BLA BLA BLA 
BLA BLA BLA BLA BLA BLA BLA BLA BLA BLA BLA BLA BLA BLA BLA BLA BLA BLA BLA BLA 
BLA BLA BLA BLA BLA BLA BLA BLA BLA BLA BLA BLA BLA BLA BLA BLA BLA BLA BLA BLA 
BLA BLA BLA BLA BLA BLA BLA BLA BLA BLA BLA BLA BLA BLA BLA BLA BLA BLA BLA BLA 
BLA BLA BLA BLA BLA BLA BLA BLA BLA BLA BLA BLA BLA BLA BLA BLA BLA BLA BLA BLA 
BLA BLA BLA BLA BLA BLA BLA BLA BLA BLA BLA BLA BLA BLA BLA BLA BLA BLA BLA BLA 
BLA BLA BLA BLA BLA BLA BLA BLA BLA BLA BLA BLA BLA BLA BLA BLA BLA BLA BLA BLA 
BLA BLA BLA BLA BLA BLA BLA BLA BLA BLA BLA BLA BLA BLA BLA BLA BLA BLA BLA BLA 
BLA BLA BLA BLA BLA BLA BLA BLA BLA BLA BLA BLA BLA BLA BLA BLA BLA BLA BLA BLA 
BLA BLA BLA BLA BLA BLA BLA BLA BLA BLA BLA BLA BLA BLA BLA BLA BLA BLA BLA BLA 
BLA BLA BLA BLA BLA BLA BLA BLA BLA BLA BLA BLA BLA BLA BLA BLA BLA BLA BLA BLA 
BLA BLA BLA BLA BLA BLA BLA BLA BLA BLA BLA BLA BLA BLA BLA BLA BLA BLA BLA BLA 
BLA BLA BLA BLA BLA BLA BLA BLA BLA BLA BLA BLA BLA BLA BLA BLA BLA BLA BLA BLA 
BLA BLA BLA BLA BLA BLA BLA BLA BLA BLA BLA BLA BLA BLA BLA BLA BLA BLA BLA BLA 
BLA BLA BLA BLA BLA BLA BLA BLA BLA BLA BLA BLA BLA BLA BLA BLA BLA BLA BLA BLA 
BLA BLA BLA BLA BLA BLA BLA BLA BLA BLA BLA BLA BLA BLA BLA BLA BLA BLA BLA BLA 
BLA BLA BLA BLA BLA BLA BLA BLA BLA BLA BLA BLA BLA BLA BLA BLA BLA BLA BLA BLA 
BLA BLA BLA BLA BLA BLA BLA BLA BLA BLA BLA BLA BLA BLA BLA BLA BLA BLA BLA BLA 
BLA BLA BLA BLA BLA BLA BLA BLA BLA BLA BLA BLA BLA BLA BLA BLA BLA BLA BLA BLA 
BLA BLA BLA BLA BLA BLA BLA BLA BLA BLA BLA BLA BLA BLA BLA BLA BLA BLA BLA BLA 
BLA BLA BLA BLA BLA BLA BLA BLA BLA BLA BLA BLA BLA BLA BLA BLA BLA BLA BLA BLA 
BLA BLA BLA BLA BLA BLA BLA BLA BLA BLA BLA BLA BLA BLA BLA BLA BLA BLA BLA BLA 
BLA BLA BLA BLA BLA BLA BLA BLA BLA BLA BLA BLA BLA BLA BLA BLA BLA BLA BLA BLA 
BLA BLA BLA BLA BLA BLA BLA BLA BLA BLA BLA BLA BLA BLA BLA BLA BLA BLA BLA BLA 
BLA BLA BLA BLA BLA BLA BLA BLA BLA BLA BLA BLA BLA BLA BLA BLA BLA BLA BLA BLA 
BLA BLA BLA BLA BLA BLA BLA BLA BLA BLA BLA BLA BLA BLA BLA BLA BLA BLA BLA BLA 
BLA BLA BLA BLA BLA BLA BLA BLA BLA BLA BLA BLA BLA BLA BLA BLA BLA BLA BLA BLA 
BLA BLA BLA BLA BLA BLA BLA BLA BLA BLA BLA BLA BLA BLA BLA BLA BLA BLA BLA BLA 
BLA BLA BLA BLA BLA BLA BLA BLA BLA BLA BLA BLA BLA BLA BLA BLA BLA BLA BLA BLA 
BLA BLA BLA BLA BLA BLA BLA BLA BLA BLA BLA BLA BLA BLA BLA BLA BLA BLA BLA BLA 
BLA BLA BLA BLA BLA BLA BLA BLA BLA BLA BLA BLA BLA BLA BLA BLA BLA BLA BLA BLA 
BLA BLA BLA BLA BLA BLA BLA BLA BLA BLA BLA BLA BLA BLA BLA BLA BLA BLA BLA BLA 
BLA BLA BLA BLA BLA BLA BLA BLA BLA BLA BLA BLA BLA BLA BLA BLA BLA BLA BLA BLA 
BLA BLA BLA BLA BLA BLA BLA BLA BLA BLA BLA BLA BLA BLA BLA BLA BLA BLA BLA BLA 
BLA BLA BLA BLA BLA BLA BLA BLA BLA BLA BLA BLA BLA BLA BLA BLA BLA BLA BLA BLA 
BLA BLA BLA BLA BLA BLA BLA BLA BLA BLA BLA BLA BLA BLA BLA BLA BLA BLA BLA BLA 
BLA BLA BLA BLA BLA BLA BLA BLA BLA BLA BLA BLA BLA BLA BLA BLA BLA BLA BLA BLA 
BLA BLA BLA BLA BLA BLA BLA BLA BLA BLA BLA BLA BLA BLA BLA BLA BLA BLA BLA BLA 
BLA BLA BLA BLA BLA BLA BLA BLA BLA BLA BLA BLA BLA BLA BLA BLA BLA BLA BLA BLA 
BLA BLA BLA BLA BLA BLA BLA BLA BLA BLA BLA BLA BLA BLA BLA BLA BLA BLA BLA BLA 
BLA BLA BLA BLA BLA BLA BLA BLA BLA BLA BLA BLA BLA BLA BLA BLA BLA BLA BLA BLA 
BLA BLA BLA BLA BLA BLA BLA BLA BLA BLA BLA BLA BLA BLA BLA BLA BLA BLA BLA BLA 
BLA BLA BLA BLA BLA BLA BLA BLA BLA BLA BLA BLA BLA BLA BLA BLA BLA BLA BLA BLA 
BLA BLA BLA BLA BLA BLA BLA BLA BLA BLA BLA BLA BLA BLA BLA BLA BLA BLA BLA BLA 
BLA BLA BLA BLA BLA BLA BLA BLA BLA BLA BLA BLA BLA BLA BLA BLA BLA BLA BLA BLA 
BLA BLA BLA BLA BLA BLA BLA BLA BLA BLA BLA BLA BLA BLA BLA BLA BLA BLA BLA BLA 
BLA BLA BLA BLA BLA BLA BLA BLA BLA BLA BLA BLA BLA BLA BLA BLA BLA BLA BLA BLA 
BLA BLA BLA BLA BLA BLA BLA BLA BLA BLA BLA BLA BLA BLA BLA BLA BLA BLA BLA BLA 
BLA BLA BLA BLA BLA BLA BLA BLA BLA BLA BLA BLA BLA BLA BLA BLA BLA BLA BLA BLA 
BLA BLA BLA BLA BLA BLA BLA BLA BLA BLA BLA BLA BLA BLA BLA BLA BLA BLA BLA BLA 
BLA BLA BLA BLA BLA BLA BLA BLA BLA BLA BLA BLA BLA BLA BLA BLA BLA BLA BLA BLA 
BLA BLA BLA BLA BLA BLA BLA BLA BLA BLA BLA BLA BLA BLA BLA BLA BLA BLA BLA BLA 
BLA BLA BLA BLA BLA BLA BLA BLA BLA BLA BLA BLA BLA BLA BLA BLA BLA BLA BLA BLA 
BLA BLA BLA BLA BLA BLA BLA BLA BLA BLA BLA BLA BLA BLA BLA BLA BLA BLA BLA BLA 
BLA BLA BLA BLA BLA BLA BLA BLA BLA BLA BLA BLA BLA BLA BLA BLA BLA BLA BLA BLA 
BLA BLA BLA BLA BLA BLA BLA BLA BLA BLA BLA BLA BLA BLA BLA BLA BLA BLA BLA BLA 
BLA BLA BLA BLA BLA BLA BLA BLA BLA BLA BLA BLA BLA BLA BLA BLA BLA BLA BLA BLA 
BLA BLA BLA BLA BLA BLA BLA BLA BLA BLA BLA BLA BLA BLA BLA BLA BLA BLA BLA BLA 
BLA BLA BLA BLA BLA BLA BLA BLA BLA BLA BLA BLA BLA BLA BLA BLA BLA BLA BLA BLA 
BLA BLA BLA BLA BLA BLA BLA BLA BLA BLA BLA BLA BLA BLA BLA BLA BLA BLA BLA BLA 
BLA BLA BLA BLA BLA BLA BLA BLA BLA BLA BLA BLA BLA BLA BLA BLA BLA BLA BLA BLA 
BLA BLA BLA BLA BLA BLA BLA BLA BLA BLA BLA BLA BLA BLA BLA BLA BLA BLA BLA BLA 
BLA BLA BLA BLA BLA BLA BLA BLA BLA BLA BLA BLA BLA BLA BLA BLA BLA BLA BLA BLA 
BLA BLA BLA BLA BLA BLA BLA BLA BLA BLA BLA BLA BLA BLA BLA BLA BLA BLA BLA BLA 
BLA BLA BLA BLA BLA BLA BLA BLA BLA BLA BLA BLA BLA BLA BLA BLA BLA BLA BLA BLA 
BLA BLA BLA BLA BLA BLA BLA BLA BLA BLA BLA BLA BLA BLA BLA BLA BLA BLA BLA BLA 
BLA BLA BLA BLA BLA BLA BLA BLA BLA BLA BLA BLA BLA BLA BLA BLA BLA BLA BLA BLA 
BLA BLA BLA BLA BLA BLA BLA BLA BLA BLA BLA BLA BLA BLA BLA BLA BLA BLA BLA BLA 
BLA BLA BLA BLA BLA BLA BLA BLA BLA BLA BLA BLA BLA BLA BLA BLA BLA BLA BLA BLA 
BLA BLA BLA BLA BLA BLA BLA BLA BLA BLA BLA BLA BLA BLA BLA BLA BLA BLA BLA BLA 
BLA BLA BLA BLA BLA BLA BLA BLA BLA BLA BLA BLA BLA BLA BLA BLA BLA BLA BLA BLA 
BLA BLA BLA BLA BLA BLA BLA BLA BLA BLA BLA BLA BLA BLA BLA BLA BLA BLA BLA BLA 
BLA BLA BLA BLA BLA BLA BLA BLA BLA BLA BLA BLA BLA BLA BLA BLA BLA BLA BLA BLA 
BLA BLA BLA BLA BLA BLA BLA BLA BLA BLA BLA BLA BLA BLA BLA BLA BLA BLA BLA BLA 
BLA BLA BLA BLA BLA BLA BLA BLA BLA BLA BLA BLA BLA BLA BLA BLA BLA BLA BLA BLA 
BLA BLA BLA BLA BLA BLA BLA BLA BLA BLA BLA BLA BLA BLA BLA BLA BLA BLA BLA BLA 
BLA BLA BLA BLA BLA BLA BLA BLA BLA BLA BLA BLA BLA BLA BLA BLA BLA BLA BLA BLA 
BLA BLA BLA BLA BLA BLA BLA BLA BLA BLA BLA BLA BLA BLA BLA BLA BLA BLA BLA BLA 
BLA BLA BLA BLA BLA BLA BLA BLA BLA BLA BLA BLA BLA BLA BLA BLA BLA BLA BLA BLA 
BLA BLA BLA BLA BLA BLA BLA BLA BLA BLA BLA BLA BLA BLA BLA BLA BLA BLA BLA BLA 
BLA BLA BLA BLA BLA BLA BLA BLA BLA BLA BLA BLA BLA BLA BLA BLA BLA BLA BLA BLA 
BLA BLA BLA BLA BLA BLA BLA BLA BLA BLA BLA BLA BLA BLA BLA BLA BLA BLA BLA BLA 
BLA BLA BLA BLA BLA BLA BLA BLA BLA BLA BLA BLA BLA BLA BLA BLA BLA BLA BLA BLA 
BLA BLA BLA BLA BLA BLA BLA BLA BLA BLA BLA BLA BLA BLA BLA BLA BLA BLA BLA BLA 
BLA BLA BLA BLA BLA BLA BLA BLA BLA BLA BLA BLA BLA BLA BLA BLA BLA BLA BLA BLA 
BLA BLA BLA BLA BLA BLA BLA BLA BLA BLA BLA BLA BLA BLA BLA BLA BLA BLA BLA BLA 
BLA BLA BLA BLA BLA BLA BLA BLA BLA BLA BLA BLA BLA BLA BLA BLA BLA BLA BLA BLA 
BLA BLA BLA BLA BLA BLA BLA BLA BLA BLA BLA BLA BLA BLA BLA BLA BLA BLA BLA BLA 
BLA BLA BLA BLA BLA BLA BLA BLA BLA BLA BLA BLA BLA BLA BLA BLA BLA BLA BLA BLA 
BLA BLA BLA BLA BLA BLA BLA BLA BLA BLA BLA BLA BLA BLA BLA BLA BLA BLA BLA BLA 
BLA BLA BLA BLA BLA BLA BLA BLA BLA BLA BLA BLA BLA BLA BLA BLA BLA BLA BLA BLA 
BLA BLA BLA BLA BLA BLA BLA BLA BLA BLA BLA BLA BLA BLA BLA BLA BLA BLA BLA BLA 
BLA BLA BLA BLA BLA BLA BLA BLA BLA BLA BLA BLA BLA BLA BLA BLA BLA BLA BLA BLA 
BLA BLA BLA BLA BLA BLA BLA BLA BLA BLA BLA BLA BLA BLA BLA BLA BLA BLA BLA BLA 
BLA BLA BLA BLA BLA BLA BLA BLA BLA BLA BLA BLA BLA BLA BLA BLA BLA BLA BLA BLA 
BLA BLA BLA BLA BLA BLA BLA BLA BLA BLA BLA BLA BLA BLA BLA BLA BLA BLA BLA BLA 
BLA BLA BLA BLA BLA BLA BLA BLA BLA BLA BLA BLA BLA BLA BLA BLA BLA BLA BLA BLA 
BLA BLA BLA BLA BLA BLA BLA BLA BLA BLA BLA BLA BLA BLA BLA BLA BLA BLA BLA BLA 
BLA BLA BLA BLA BLA BLA BLA BLA BLA BLA BLA BLA BLA BLA BLA BLA BLA BLA BLA BLA 
BLA BLA BLA BLA BLA BLA BLA BLA BLA BLA BLA BLA BLA BLA BLA BLA BLA BLA BLA BLA 
BLA BLA BLA BLA BLA BLA BLA BLA BLA BLA BLA BLA BLA BLA BLA BLA BLA BLA BLA BLA 
BLA BLA BLA BLA BLA BLA BLA BLA BLA BLA BLA BLA BLA BLA BLA BLA BLA BLA BLA BLA 
BLA BLA BLA BLA BLA BLA BLA BLA BLA BLA BLA BLA BLA BLA BLA BLA BLA BLA BLA BLA 
BLA BLA BLA BLA BLA BLA BLA BLA BLA BLA BLA BLA BLA BLA BLA BLA BLA BLA BLA BLA 
BLA BLA BLA BLA BLA BLA BLA BLA BLA BLA BLA BLA BLA BLA BLA BLA BLA BLA BLA BLA 
BLA BLA BLA BLA BLA BLA BLA BLA BLA BLA BLA BLA BLA BLA BLA BLA BLA BLA BLA BLA 
BLA BLA BLA BLA BLA BLA BLA BLA BLA BLA BLA BLA BLA BLA BLA BLA BLA BLA BLA BLA 
BLA BLA BLA BLA BLA BLA BLA BLA BLA BLA BLA BLA BLA BLA BLA BLA BLA BLA BLA BLA 
BLA BLA BLA BLA BLA BLA BLA BLA BLA BLA BLA BLA BLA BLA BLA BLA BLA BLA BLA BLA 
BLA BLA BLA BLA BLA BLA BLA BLA BLA BLA BLA BLA BLA BLA BLA BLA BLA BLA BLA BLA 
BLA BLA BLA BLA BLA BLA BLA BLA BLA BLA BLA BLA BLA BLA BLA BLA BLA BLA BLA BLA 
BLA BLA BLA BLA BLA BLA BLA BLA BLA BLA BLA BLA BLA BLA BLA BLA BLA BLA BLA BLA 
BLA BLA BLA BLA BLA BLA BLA BLA BLA BLA BLA BLA BLA BLA BLA BLA BLA BLA BLA BLA 
BLA BLA BLA BLA BLA BLA BLA BLA BLA BLA BLA BLA BLA BLA BLA BLA BLA BLA BLA BLA 
BLA BLA BLA BLA BLA BLA BLA BLA BLA BLA BLA BLA BLA BLA BLA BLA BLA BLA BLA BLA 
BLA BLA BLA BLA BLA BLA BLA BLA BLA BLA BLA BLA BLA BLA BLA BLA BLA BLA BLA BLA 
BLA BLA BLA BLA BLA BLA BLA BLA BLA BLA BLA BLA BLA BLA BLA BLA BLA BLA BLA BLA 
BLA BLA BLA BLA BLA BLA BLA BLA BLA BLA BLA BLA BLA BLA BLA BLA BLA BLA BLA BLA 
BLA BLA BLA BLA BLA BLA BLA BLA BLA BLA BLA BLA BLA BLA BLA BLA BLA BLA BLA BLA 
BLA BLA BLA BLA BLA BLA BLA BLA BLA BLA BLA BLA BLA BLA BLA BLA BLA BLA BLA BLA 
BLA BLA BLA BLA BLA BLA BLA BLA BLA BLA BLA BLA BLA BLA BLA BLA BLA BLA BLA BLA 
BLA BLA BLA BLA BLA BLA BLA BLA BLA BLA BLA BLA BLA BLA BLA BLA BLA BLA BLA BLA 
BLA BLA BLA BLA BLA BLA BLA BLA BLA BLA BLA BLA BLA BLA BLA BLA BLA BLA BLA BLA 
BLA BLA BLA BLA BLA BLA BLA BLA BLA BLA BLA BLA BLA BLA BLA BLA BLA BLA BLA BLA 
BLA BLA BLA BLA BLA BLA BLA BLA BLA BLA BLA BLA BLA BLA BLA BLA BLA BLA BLA BLA 
BLA BLA BLA BLA BLA BLA BLA BLA BLA BLA BLA BLA BLA BLA BLA BLA BLA BLA BLA BLA 
BLA BLA BLA BLA BLA BLA BLA BLA BLA BLA BLA BLA BLA BLA BLA BLA BLA BLA BLA BLA 
BLA BLA BLA BLA BLA BLA BLA BLA BLA BLA BLA BLA BLA BLA BLA BLA BLA BLA BLA BLA 
BLA BLA BLA BLA BLA BLA BLA BLA BLA BLA BLA BLA BLA BLA BLA BLA BLA BLA BLA BLA 
BLA BLA BLA BLA BLA BLA BLA BLA BLA BLA BLA BLA BLA BLA BLA BLA BLA BLA BLA BLA 
BLA BLA BLA BLA BLA BLA BLA BLA BLA BLA BLA BLA BLA BLA BLA BLA BLA BLA BLA BLA 
BLA BLA BLA BLA BLA BLA BLA BLA BLA BLA BLA BLA BLA BLA BLA BLA BLA BLA BLA BLA 
BLA BLA BLA BLA BLA BLA BLA BLA BLA BLA BLA BLA BLA BLA BLA BLA BLA BLA BLA BLA 
BLA BLA BLA BLA BLA BLA BLA BLA BLA BLA BLA BLA BLA BLA BLA BLA BLA BLA BLA BLA 
BLA BLA BLA BLA BLA BLA BLA BLA BLA BLA BLA BLA BLA BLA BLA BLA BLA BLA BLA BLA 
BLA BLA BLA BLA BLA BLA BLA BLA BLA BLA BLA BLA BLA BLA BLA BLA BLA BLA BLA BLA 
BLA BLA BLA BLA BLA BLA BLA BLA BLA BLA BLA BLA BLA BLA BLA BLA BLA BLA BLA BLA 
BLA BLA BLA BLA BLA BLA BLA BLA BLA BLA BLA BLA BLA BLA BLA BLA BLA BLA BLA BLA 
BLA BLA BLA BLA BLA BLA BLA BLA BLA BLA BLA BLA BLA BLA BLA BLA BLA BLA BLA BLA 
BLA BLA BLA BLA BLA BLA BLA BLA BLA BLA BLA BLA BLA BLA BLA BLA BLA BLA BLA BLA 
BLA BLA BLA BLA BLA BLA BLA BLA BLA BLA BLA BLA BLA BLA BLA BLA BLA BLA BLA BLA 
BLA BLA BLA BLA BLA BLA BLA BLA BLA BLA BLA BLA BLA BLA BLA BLA BLA BLA BLA BLA 
BLA BLA BLA BLA BLA BLA BLA BLA BLA BLA BLA BLA BLA BLA BLA BLA BLA BLA BLA BLA 
BLA BLA BLA BLA BLA BLA BLA BLA BLA BLA BLA BLA BLA BLA BLA BLA BLA BLA BLA BLA 
BLA BLA BLA BLA BLA BLA BLA BLA BLA BLA BLA BLA BLA BLA BLA BLA BLA BLA BLA BLA 
BLA BLA BLA BLA BLA BLA BLA BLA BLA BLA BLA BLA BLA BLA BLA BLA BLA BLA BLA BLA 
BLA BLA BLA BLA BLA BLA BLA BLA BLA BLA BLA BLA BLA BLA BLA BLA BLA BLA BLA BLA 
BLA BLA BLA BLA BLA BLA BLA BLA BLA BLA BLA BLA BLA BLA BLA BLA BLA BLA BLA BLA 
BLA BLA BLA BLA BLA BLA BLA BLA BLA BLA BLA BLA BLA BLA BLA BLA BLA BLA BLA BLA 
BLA BLA BLA BLA BLA BLA BLA BLA BLA BLA BLA BLA BLA BLA BLA BLA BLA BLA BLA BLA 
BLA BLA BLA BLA BLA BLA BLA BLA BLA BLA BLA BLA BLA BLA BLA BLA BLA BLA BLA BLA 
BLA BLA BLA BLA BLA BLA BLA BLA BLA BLA BLA BLA BLA BLA BLA BLA BLA BLA BLA BLA 
BLA BLA BLA BLA BLA BLA BLA BLA BLA BLA BLA BLA BLA BLA BLA BLA BLA BLA BLA BLA 
BLA BLA BLA BLA BLA BLA BLA BLA BLA BLA BLA BLA BLA BLA BLA BLA BLA BLA BLA BLA 
BLA BLA BLA BLA BLA BLA BLA BLA BLA BLA BLA BLA BLA BLA BLA BLA BLA BLA BLA BLA 
BLA BLA BLA BLA BLA BLA BLA BLA BLA BLA BLA BLA BLA BLA BLA BLA BLA BLA BLA BLA 
BLA BLA BLA BLA BLA BLA BLA BLA BLA BLA BLA BLA BLA BLA BLA BLA BLA BLA BLA BLA 
BLA BLA BLA BLA BLA BLA BLA BLA BLA BLA BLA BLA BLA BLA BLA BLA BLA BLA BLA BLA 
BLA BLA BLA BLA BLA BLA BLA BLA BLA BLA BLA BLA BLA BLA BLA BLA BLA BLA BLA BLA 
BLA BLA BLA BLA BLA BLA BLA BLA BLA BLA BLA BLA BLA BLA BLA BLA BLA BLA BLA BLA 
BLA BLA BLA BLA BLA BLA BLA BLA BLA BLA BLA BLA BLA BLA BLA BLA BLA BLA BLA BLA 
BLA BLA BLA BLA BLA BLA BLA BLA BLA BLA BLA BLA BLA BLA BLA BLA BLA BLA BLA BLA 
BLA BLA BLA BLA BLA BLA BLA BLA BLA BLA BLA BLA BLA BLA BLA BLA BLA BLA BLA BLA 
BLA BLA BLA BLA BLA BLA BLA BLA BLA BLA BLA BLA BLA BLA BLA BLA BLA BLA BLA BLA 
BLA BLA BLA BLA BLA BLA BLA BLA BLA BLA BLA BLA BLA BLA BLA BLA BLA BLA BLA BLA 
BLA BLA BLA BLA BLA BLA BLA BLA BLA BLA BLA BLA BLA BLA BLA BLA BLA BLA BLA BLA 
BLA BLA BLA BLA BLA BLA BLA BLA BLA BLA BLA BLA BLA BLA BLA BLA BLA BLA BLA BLA 
BLA BLA BLA BLA BLA BLA BLA BLA BLA BLA BLA BLA BLA BLA BLA BLA BLA BLA BLA BLA 
BLA BLA BLA BLA BLA BLA BLA BLA BLA BLA BLA BLA BLA BLA BLA BLA BLA BLA BLA BLA 
BLA BLA BLA BLA BLA BLA BLA BLA BLA BLA BLA BLA BLA BLA BLA BLA BLA BLA BLA BLA 
BLA BLA BLA BLA BLA BLA BLA BLA BLA BLA BLA BLA BLA BLA BLA BLA BLA BLA BLA BLA 
BLA BLA BLA BLA BLA BLA BLA BLA BLA BLA BLA BLA BLA BLA BLA BLA BLA BLA BLA BLA 
BLA BLA BLA BLA BLA BLA BLA BLA BLA BLA BLA BLA BLA BLA BLA BLA BLA BLA BLA BLA 
BLA BLA BLA BLA BLA BLA BLA BLA BLA BLA BLA BLA BLA BLA BLA BLA BLA BLA BLA BLA 
BLA BLA BLA BLA BLA BLA BLA BLA BLA BLA BLA BLA BLA BLA BLA BLA BLA BLA BLA BLA 
BLA BLA BLA BLA BLA BLA BLA BLA BLA BLA BLA BLA BLA BLA BLA BLA BLA BLA BLA BLA 
BLA BLA BLA BLA BLA BLA BLA BLA BLA BLA BLA BLA BLA BLA BLA BLA BLA BLA BLA BLA 
BLA BLA BLA BLA BLA BLA BLA BLA BLA BLA BLA BLA BLA BLA BLA BLA BLA BLA BLA BLA 
BLA BLA BLA BLA BLA BLA BLA BLA BLA BLA BLA BLA BLA BLA BLA BLA BLA BLA BLA BLA 
BLA BLA BLA BLA BLA BLA BLA BLA BLA BLA BLA BLA BLA BLA BLA BLA BLA BLA BLA BLA 
BLA BLA BLA BLA BLA BLA BLA BLA BLA BLA BLA BLA BLA BLA BLA BLA BLA BLA BLA BLA 
BLA BLA BLA BLA BLA BLA BLA BLA BLA BLA BLA BLA BLA BLA BLA BLA BLA BLA BLA BLA 
BLA BLA BLA BLA BLA BLA BLA BLA BLA BLA BLA BLA BLA BLA BLA BLA BLA BLA BLA BLA 
BLA BLA BLA BLA BLA BLA BLA BLA BLA BLA BLA BLA BLA BLA BLA BLA BLA BLA BLA BLA 
BLA BLA BLA BLA BLA BLA BLA BLA BLA BLA BLA BLA BLA BLA BLA BLA BLA BLA BLA BLA 
BLA BLA BLA BLA BLA BLA BLA BLA BLA BLA BLA BLA BLA BLA BLA BLA BLA BLA BLA BLA 
BLA BLA BLA BLA BLA BLA BLA BLA BLA BLA BLA BLA BLA BLA BLA BLA BLA BLA BLA BLA 
BLA BLA BLA BLA BLA BLA BLA BLA BLA BLA BLA BLA BLA BLA BLA BLA BLA BLA BLA BLA 
BLA BLA BLA BLA BLA BLA BLA BLA BLA BLA BLA BLA BLA BLA BLA BLA BLA BLA BLA BLA 
BLA BLA BLA BLA BLA BLA BLA BLA BLA BLA BLA BLA BLA BLA BLA BLA BLA BLA BLA BLA 
BLA BLA BLA BLA BLA BLA BLA BLA BLA BLA BLA BLA BLA BLA BLA BLA BLA BLA BLA BLA 
BLA BLA BLA BLA BLA BLA BLA BLA BLA BLA BLA BLA BLA BLA BLA BLA BLA BLA BLA BLA 
BLA BLA BLA BLA BLA BLA BLA BLA BLA BLA BLA BLA BLA BLA BLA BLA BLA BLA BLA BLA 
BLA BLA BLA BLA BLA BLA BLA BLA BLA BLA BLA BLA BLA BLA BLA BLA BLA BLA BLA BLA 
BLA BLA BLA BLA BLA BLA BLA BLA BLA BLA BLA BLA BLA BLA BLA BLA BLA BLA BLA BLA 
BLA BLA BLA BLA BLA BLA BLA BLA BLA BLA BLA BLA BLA BLA BLA BLA BLA BLA BLA BLA 
BLA BLA BLA BLA BLA BLA BLA BLA BLA BLA BLA BLA BLA BLA BLA BLA BLA BLA BLA BLA 
BLA BLA BLA BLA BLA BLA BLA BLA BLA BLA BLA BLA BLA BLA BLA BLA BLA BLA BLA BLA 
BLA BLA BLA BLA BLA BLA BLA BLA BLA BLA BLA BLA BLA BLA BLA BLA BLA BLA BLA BLA 
BLA BLA BLA BLA BLA BLA BLA BLA BLA BLA BLA BLA BLA BLA BLA BLA BLA BLA BLA BLA 
BLA BLA BLA BLA BLA BLA BLA BLA BLA BLA BLA BLA BLA BLA BLA BLA BLA BLA BLA BLA 
BLA BLA BLA BLA BLA BLA BLA BLA BLA BLA BLA BLA BLA BLA BLA BLA BLA BLA BLA BLA 
BLA BLA BLA BLA BLA BLA BLA BLA BLA BLA BLA BLA BLA BLA BLA BLA BLA BLA BLA BLA 
BLA BLA BLA BLA BLA BLA BLA BLA BLA BLA BLA BLA BLA BLA BLA BLA BLA BLA BLA BLA 
BLA BLA BLA BLA BLA BLA BLA BLA BLA BLA BLA BLA BLA BLA BLA BLA BLA BLA BLA BLA 
BLA BLA BLA BLA BLA BLA BLA BLA BLA BLA BLA BLA BLA BLA BLA BLA BLA BLA BLA BLA 
BLA BLA BLA BLA BLA BLA BLA BLA BLA BLA BLA BLA BLA BLA BLA BLA BLA BLA BLA BLA 
BLA BLA BLA BLA BLA BLA BLA BLA BLA BLA BLA BLA BLA BLA BLA BLA BLA BLA BLA BLA 
BLA BLA BLA BLA BLA BLA BLA BLA BLA BLA BLA BLA BLA BLA BLA BLA BLA BLA BLA BLA 
BLA BLA BLA BLA BLA BLA BLA BLA BLA BLA BLA BLA BLA BLA BLA BLA BLA BLA BLA BLA 
BLA BLA BLA BLA BLA BLA BLA BLA BLA BLA BLA BLA BLA BLA BLA BLA BLA BLA BLA BLA 
BLA BLA BLA BLA BLA BLA BLA BLA BLA BLA BLA BLA BLA BLA BLA BLA BLA BLA BLA BLA 
BLA BLA BLA BLA BLA BLA BLA BLA BLA BLA BLA BLA BLA BLA BLA BLA BLA BLA BLA BLA 
BLA BLA BLA BLA BLA BLA BLA BLA BLA BLA BLA BLA BLA BLA BLA BLA BLA BLA BLA BLA 
BLA BLA BLA BLA BLA BLA BLA BLA BLA BLA BLA BLA BLA BLA BLA BLA BLA BLA BLA BLA 
BLA BLA BLA BLA BLA BLA BLA BLA BLA BLA BLA BLA BLA BLA BLA BLA BLA BLA BLA BLA 
BLA BLA BLA BLA BLA BLA BLA BLA BLA BLA BLA BLA BLA BLA BLA BLA BLA BLA BLA BLA 
BLA BLA BLA BLA BLA BLA BLA BLA BLA BLA BLA BLA BLA BLA BLA BLA BLA BLA BLA BLA 
BLA BLA BLA BLA BLA BLA BLA BLA BLA BLA BLA BLA BLA BLA BLA BLA BLA BLA BLA BLA 
BLA BLA BLA BLA BLA BLA BLA BLA BLA BLA BLA BLA BLA BLA BLA BLA BLA BLA BLA BLA 
BLA BLA BLA BLA BLA BLA BLA BLA BLA BLA BLA BLA BLA BLA BLA BLA BLA BLA BLA BLA 
BLA BLA BLA BLA BLA BLA BLA BLA BLA BLA BLA BLA BLA BLA BLA BLA BLA BLA BLA BLA 
BLA BLA BLA BLA BLA BLA BLA BLA BLA BLA BLA BLA BLA BLA BLA BLA BLA BLA BLA BLA 
BLA BLA BLA BLA BLA BLA BLA BLA BLA BLA BLA BLA BLA BLA BLA BLA BLA BLA BLA BLA 
BLA BLA BLA BLA BLA BLA BLA BLA BLA BLA BLA BLA BLA BLA BLA BLA BLA BLA BLA BLA 
BLA BLA BLA BLA BLA BLA BLA BLA BLA BLA BLA BLA BLA BLA BLA BLA BLA BLA BLA BLA 
BLA BLA BLA BLA BLA BLA BLA BLA BLA BLA BLA BLA BLA BLA BLA BLA BLA BLA BLA BLA 
BLA BLA BLA BLA BLA BLA BLA BLA BLA BLA BLA BLA BLA BLA BLA BLA BLA BLA BLA BLA 
BLA BLA BLA BLA BLA BLA BLA BLA BLA BLA BLA BLA BLA BLA BLA BLA BLA BLA BLA BLA 
BLA BLA BLA BLA BLA BLA BLA BLA BLA BLA BLA BLA BLA BLA BLA BLA BLA BLA BLA BLA 
BLA BLA BLA BLA BLA BLA BLA BLA BLA BLA BLA BLA BLA BLA BLA BLA BLA BLA BLA BLA 
BLA BLA BLA BLA BLA BLA BLA BLA BLA BLA BLA BLA BLA BLA BLA BLA BLA BLA BLA BLA 
BLA BLA BLA BLA BLA BLA BLA BLA BLA BLA BLA BLA BLA BLA BLA BLA BLA BLA BLA BLA 
BLA BLA BLA BLA BLA BLA BLA BLA BLA BLA BLA BLA BLA BLA BLA BLA BLA BLA BLA BLA 
BLA BLA BLA BLA BLA BLA BLA BLA BLA BLA BLA BLA BLA BLA BLA BLA BLA BLA BLA BLA 
BLA BLA BLA BLA BLA BLA BLA BLA BLA BLA BLA BLA BLA BLA BLA BLA BLA BLA BLA BLA 
BLA BLA BLA BLA BLA BLA BLA BLA BLA BLA BLA BLA BLA BLA BLA BLA BLA BLA BLA BLA 
BLA BLA BLA BLA BLA BLA BLA BLA BLA BLA BLA BLA BLA BLA BLA BLA BLA BLA BLA BLA 
BLA BLA BLA BLA BLA BLA BLA BLA BLA BLA BLA BLA BLA BLA BLA BLA BLA BLA BLA BLA 
BLA BLA BLA BLA BLA BLA BLA BLA BLA BLA BLA BLA BLA BLA BLA BLA BLA BLA BLA BLA 
BLA BLA BLA BLA BLA BLA BLA BLA BLA BLA BLA BLA BLA BLA BLA BLA BLA BLA BLA BLA 
BLA BLA BLA BLA BLA BLA BLA BLA BLA BLA BLA BLA BLA BLA BLA BLA BLA BLA BLA BLA 
BLA BLA BLA BLA BLA BLA BLA BLA BLA BLA BLA BLA BLA BLA BLA BLA BLA BLA BLA BLA 
BLA BLA BLA BLA BLA BLA BLA BLA BLA BLA BLA BLA BLA BLA BLA BLA BLA BLA BLA BLA 
BLA BLA BLA BLA BLA BLA BLA BLA BLA BLA BLA BLA BLA BLA BLA BLA BLA BLA BLA BLA 
BLA BLA BLA BLA BLA BLA BLA BLA BLA BLA BLA BLA BLA BLA BLA BLA BLA BLA BLA BLA 
BLA BLA BLA BLA BLA BLA BLA BLA BLA BLA BLA BLA BLA BLA BLA BLA BLA BLA BLA BLA 
BLA BLA BLA BLA BLA BLA BLA BLA BLA BLA BLA BLA BLA BLA BLA BLA BLA BLA BLA BLA 
BLA BLA BLA BLA BLA BLA BLA BLA BLA BLA BLA BLA BLA BLA BLA BLA BLA BLA BLA BLA 
BLA BLA BLA BLA BLA BLA BLA BLA BLA BLA BLA BLA BLA BLA BLA BLA BLA BLA BLA BLA 
BLA BLA BLA BLA BLA BLA BLA BLA BLA BLA BLA BLA BLA BLA BLA BLA BLA BLA BLA BLA 
BLA BLA BLA BLA BLA BLA BLA BLA BLA BLA BLA BLA BLA BLA BLA BLA BLA BLA BLA BLA 
BLA BLA BLA BLA BLA BLA BLA BLA BLA BLA BLA BLA BLA BLA BLA BLA BLA BLA BLA BLA 
BLA BLA BLA BLA BLA BLA BLA BLA BLA BLA BLA BLA BLA BLA BLA BLA BLA BLA BLA BLA 
BLA BLA BLA BLA BLA BLA BLA BLA BLA BLA BLA BLA BLA BLA BLA BLA BLA BLA BLA BLA 
BLA BLA BLA BLA BLA BLA BLA BLA BLA BLA BLA BLA BLA BLA BLA BLA BLA BLA BLA BLA 
BLA BLA BLA BLA BLA BLA BLA BLA BLA BLA BLA BLA BLA BLA BLA BLA BLA BLA BLA BLA 
BLA BLA BLA BLA BLA BLA BLA BLA BLA BLA BLA BLA BLA BLA BLA BLA BLA BLA BLA BLA 
BLA BLA BLA BLA BLA BLA BLA BLA BLA BLA BLA BLA BLA BLA BLA BLA BLA BLA BLA BLA 
BLA BLA BLA BLA BLA BLA BLA BLA BLA BLA BLA BLA BLA BLA BLA BLA BLA BLA BLA BLA 
BLA BLA BLA BLA BLA BLA BLA BLA BLA BLA BLA BLA BLA BLA BLA BLA BLA BLA BLA BLA 
BLA BLA BLA BLA BLA BLA BLA BLA BLA BLA BLA BLA BLA BLA BLA BLA BLA BLA BLA BLA 
BLA BLA BLA BLA BLA BLA BLA BLA BLA BLA BLA BLA BLA BLA BLA BLA BLA BLA BLA BLA 
BLA BLA BLA BLA BLA BLA BLA BLA BLA BLA BLA BLA BLA BLA BLA BLA BLA BLA BLA BLA 
BLA BLA BLA BLA BLA BLA BLA BLA BLA BLA BLA BLA BLA BLA BLA BLA BLA BLA BLA BLA 
BLA BLA BLA BLA BLA BLA BLA BLA BLA BLA BLA BLA BLA BLA BLA BLA BLA BLA BLA BLA 
BLA BLA BLA BLA BLA BLA BLA BLA BLA BLA BLA BLA BLA BLA BLA BLA BLA BLA BLA BLA 
BLA BLA BLA BLA BLA BLA BLA BLA BLA BLA BLA BLA BLA BLA BLA BLA BLA BLA BLA BLA 
BLA BLA BLA BLA BLA BLA BLA BLA BLA BLA BLA BLA BLA BLA BLA BLA BLA BLA BLA BLA 
BLA BLA BLA BLA BLA BLA BLA BLA BLA BLA BLA BLA BLA BLA BLA BLA BLA BLA BLA BLA 
BLA BLA BLA BLA BLA BLA BLA BLA BLA BLA BLA BLA BLA BLA BLA BLA BLA BLA BLA BLA 
BLA BLA BLA BLA BLA BLA BLA BLA BLA BLA BLA BLA BLA BLA BLA BLA BLA BLA BLA BLA 
BLA BLA BLA BLA BLA BLA BLA BLA BLA BLA BLA BLA BLA BLA BLA BLA BLA BLA BLA BLA 
BLA BLA BLA BLA BLA BLA BLA BLA BLA BLA BLA BLA BLA BLA BLA BLA BLA BLA BLA BLA 
BLA BLA BLA BLA BLA BLA BLA BLA BLA BLA BLA BLA BLA BLA BLA BLA BLA BLA BLA BLA 
BLA BLA BLA BLA BLA BLA BLA BLA BLA BLA BLA BLA BLA BLA BLA BLA BLA BLA BLA BLA 
BLA BLA BLA BLA BLA BLA BLA BLA BLA BLA BLA BLA BLA BLA BLA BLA BLA BLA BLA BLA 
BLA BLA BLA BLA BLA BLA BLA BLA BLA BLA BLA BLA BLA BLA BLA BLA BLA BLA BLA BLA 
BLA BLA BLA BLA BLA BLA BLA BLA BLA BLA BLA BLA BLA BLA BLA BLA BLA BLA BLA BLA 
BLA BLA BLA BLA BLA BLA BLA BLA BLA BLA BLA BLA BLA BLA BLA BLA BLA BLA BLA BLA 
BLA BLA BLA BLA BLA BLA BLA BLA BLA BLA BLA BLA BLA BLA BLA BLA BLA BLA BLA BLA 
BLA BLA BLA BLA BLA BLA BLA BLA BLA BLA BLA BLA BLA BLA BLA BLA BLA BLA BLA BLA 
BLA BLA BLA BLA BLA BLA BLA BLA BLA BLA BLA BLA BLA BLA BLA BLA BLA BLA BLA BLA 
BLA BLA BLA BLA BLA BLA BLA BLA BLA BLA BLA BLA BLA BLA BLA BLA BLA BLA BLA BLA 
BLA BLA BLA BLA BLA BLA BLA BLA BLA BLA BLA BLA BLA BLA BLA BLA BLA BLA BLA BLA 
BLA BLA BLA BLA BLA BLA BLA BLA BLA BLA BLA BLA BLA BLA BLA BLA BLA BLA BLA BLA 
BLA BLA BLA BLA BLA BLA BLA BLA BLA BLA BLA BLA BLA BLA BLA BLA BLA BLA BLA BLA 
BLA BLA BLA BLA BLA BLA BLA BLA BLA BLA BLA BLA BLA BLA BLA BLA BLA BLA BLA BLA 
BLA BLA BLA BLA BLA BLA BLA BLA BLA BLA BLA BLA BLA BLA BLA BLA BLA BLA BLA BLA 
BLA BLA BLA BLA BLA BLA BLA BLA BLA BLA BLA BLA BLA BLA BLA BLA BLA BLA BLA BLA 
BLA BLA BLA BLA BLA BLA BLA BLA BLA BLA BLA BLA BLA BLA BLA BLA BLA BLA BLA BLA 
BLA BLA BLA BLA BLA BLA BLA BLA BLA BLA BLA BLA BLA BLA BLA BLA BLA BLA BLA BLA 
BLA BLA BLA BLA BLA BLA BLA BLA BLA BLA BLA BLA BLA BLA BLA BLA BLA BLA BLA BLA 
BLA BLA BLA BLA BLA BLA BLA BLA BLA BLA BLA BLA BLA BLA BLA BLA BLA BLA BLA BLA 
BLA BLA BLA BLA BLA BLA BLA BLA BLA BLA BLA BLA BLA BLA BLA BLA BLA BLA BLA BLA 
BLA BLA BLA BLA BLA BLA BLA BLA BLA BLA BLA BLA BLA BLA BLA BLA BLA BLA BLA BLA 
BLA BLA BLA BLA BLA BLA BLA BLA BLA BLA BLA BLA BLA BLA BLA BLA BLA BLA BLA BLA 
BLA BLA BLA BLA BLA BLA BLA BLA BLA BLA BLA BLA BLA BLA BLA BLA BLA BLA BLA BLA 
BLA BLA BLA BLA BLA BLA BLA BLA BLA BLA BLA BLA BLA BLA BLA BLA BLA BLA BLA BLA 
BLA BLA BLA BLA BLA BLA BLA BLA BLA BLA BLA BLA BLA BLA BLA BLA BLA BLA BLA BLA 
BLA BLA BLA BLA BLA BLA BLA BLA BLA BLA BLA BLA BLA BLA BLA BLA BLA BLA BLA BLA 
BLA BLA BLA BLA BLA BLA BLA BLA BLA BLA BLA BLA BLA BLA BLA BLA BLA BLA BLA BLA 
BLA BLA BLA BLA BLA BLA BLA BLA BLA BLA BLA BLA BLA BLA BLA BLA BLA BLA BLA BLA 
BLA BLA BLA BLA BLA BLA BLA BLA BLA BLA BLA BLA BLA BLA BLA BLA BLA BLA BLA BLA 
BLA BLA BLA BLA BLA BLA BLA BLA BLA BLA BLA BLA BLA BLA BLA BLA BLA BLA BLA BLA 
BLA BLA BLA BLA BLA BLA BLA BLA BLA BLA BLA BLA BLA BLA BLA BLA BLA BLA BLA BLA 
BLA BLA BLA BLA BLA BLA BLA BLA BLA BLA BLA BLA BLA BLA BLA BLA BLA BLA BLA BLA 
BLA BLA BLA BLA BLA BLA BLA BLA BLA BLA BLA BLA BLA BLA BLA BLA BLA BLA BLA BLA 
BLA BLA BLA BLA BLA BLA BLA BLA BLA BLA BLA BLA BLA BLA BLA BLA BLA BLA BLA BLA 
BLA BLA BLA BLA BLA BLA BLA BLA BLA BLA BLA BLA BLA BLA BLA BLA BLA BLA BLA BLA 
BLA BLA BLA BLA BLA BLA BLA BLA BLA BLA BLA BLA BLA BLA BLA BLA BLA BLA BLA BLA 
BLA BLA BLA BLA BLA BLA BLA BLA BLA BLA BLA BLA BLA BLA BLA BLA BLA BLA BLA BLA 
BLA BLA BLA BLA BLA BLA BLA BLA BLA BLA BLA BLA BLA BLA BLA BLA BLA BLA BLA BLA 
BLA BLA BLA BLA BLA BLA BLA BLA BLA BLA BLA BLA BLA BLA BLA BLA BLA BLA BLA BLA 
BLA BLA BLA BLA BLA BLA BLA BLA BLA BLA BLA BLA BLA BLA BLA BLA BLA BLA BLA BLA 
BLA BLA BLA BLA BLA BLA BLA BLA BLA BLA BLA BLA BLA BLA BLA BLA BLA BLA BLA BLA 
BLA BLA BLA BLA BLA BLA BLA BLA BLA BLA BLA BLA BLA BLA BLA BLA BLA BLA BLA BLA 
BLA BLA BLA BLA BLA BLA BLA BLA BLA BLA BLA BLA BLA BLA BLA BLA BLA BLA BLA BLA 
BLA BLA BLA BLA BLA BLA BLA BLA BLA BLA BLA BLA BLA BLA BLA BLA BLA BLA BLA BLA 
BLA BLA BLA BLA BLA BLA BLA BLA BLA BLA BLA BLA BLA BLA BLA BLA BLA BLA BLA BLA 
BLA BLA BLA BLA BLA BLA BLA BLA BLA BLA BLA BLA BLA BLA BLA BLA BLA BLA BLA BLA 
BLA BLA BLA BLA BLA BLA BLA BLA BLA BLA BLA BLA BLA BLA BLA BLA BLA BLA BLA BLA 
BLA BLA BLA BLA BLA BLA BLA BLA BLA BLA BLA BLA BLA BLA BLA BLA BLA BLA BLA BLA 
BLA BLA BLA BLA BLA BLA BLA BLA BLA BLA BLA BLA BLA BLA BLA BLA BLA BLA BLA BLA 
BLA BLA BLA BLA BLA BLA BLA BLA BLA BLA BLA BLA BLA BLA BLA BLA BLA BLA BLA BLA 
BLA BLA BLA BLA BLA BLA BLA BLA BLA BLA BLA BLA BLA BLA BLA BLA BLA BLA BLA BLA 
BLA BLA BLA BLA BLA BLA BLA BLA BLA BLA BLA BLA BLA BLA BLA BLA BLA BLA BLA BLA 
BLA BLA BLA BLA BLA BLA BLA BLA BLA BLA BLA BLA BLA BLA BLA BLA BLA BLA BLA BLA 
BLA BLA BLA BLA BLA BLA BLA BLA BLA BLA BLA BLA BLA BLA BLA BLA BLA BLA BLA BLA 
BLA BLA BLA BLA BLA BLA BLA BLA BLA BLA BLA BLA BLA BLA BLA BLA BLA BLA BLA BLA 
BLA BLA BLA BLA BLA BLA BLA BLA BLA BLA BLA BLA BLA BLA BLA BLA BLA BLA BLA BLA 
BLA BLA BLA BLA BLA BLA BLA BLA BLA BLA BLA BLA BLA BLA BLA BLA BLA BLA BLA BLA 
BLA BLA BLA BLA BLA BLA BLA BLA BLA BLA BLA BLA BLA BLA BLA BLA BLA BLA BLA BLA 
BLA BLA BLA BLA BLA BLA BLA BLA BLA BLA BLA BLA BLA BLA BLA BLA BLA BLA BLA BLA 
BLA BLA BLA BLA BLA BLA BLA BLA BLA BLA BLA BLA BLA BLA BLA BLA BLA BLA BLA BLA 
BLA BLA BLA BLA BLA BLA BLA BLA BLA BLA BLA BLA BLA BLA BLA BLA BLA BLA BLA BLA 
BLA BLA BLA BLA BLA BLA BLA BLA BLA BLA BLA BLA BLA BLA BLA BLA BLA BLA BLA BLA 
BLA BLA BLA BLA BLA BLA BLA BLA BLA BLA BLA BLA BLA BLA BLA BLA BLA BLA BLA BLA 
BLA BLA BLA BLA BLA BLA BLA BLA BLA BLA BLA BLA BLA BLA BLA BLA BLA BLA BLA BLA 
BLA BLA BLA BLA BLA BLA BLA BLA BLA BLA BLA BLA BLA BLA BLA BLA BLA BLA BLA BLA 
BLA BLA BLA BLA BLA BLA BLA BLA BLA BLA BLA BLA BLA BLA BLA BLA BLA BLA BLA BLA 
BLA BLA BLA BLA BLA BLA BLA BLA BLA BLA BLA BLA BLA BLA BLA BLA BLA BLA BLA BLA 
BLA BLA BLA BLA BLA BLA BLA BLA BLA BLA BLA BLA BLA BLA BLA BLA BLA BLA BLA BLA 
BLA BLA BLA BLA BLA BLA BLA BLA BLA BLA BLA BLA BLA BLA BLA BLA BLA BLA BLA BLA 
BLA BLA BLA BLA BLA BLA BLA BLA BLA BLA BLA BLA BLA BLA BLA BLA BLA BLA BLA BLA 
BLA BLA BLA BLA BLA BLA BLA BLA BLA BLA BLA BLA BLA BLA BLA BLA BLA BLA BLA BLA 
BLA BLA BLA BLA BLA BLA BLA BLA BLA BLA BLA BLA BLA BLA BLA BLA BLA BLA BLA BLA 
BLA BLA BLA BLA BLA BLA BLA BLA BLA BLA BLA BLA BLA BLA BLA BLA BLA BLA BLA BLA 
BLA BLA BLA BLA BLA BLA BLA BLA BLA BLA BLA BLA BLA BLA BLA BLA BLA BLA BLA BLA 
BLA BLA BLA BLA BLA BLA BLA BLA BLA BLA BLA BLA BLA BLA BLA BLA BLA BLA BLA BLA 
BLA BLA BLA BLA BLA BLA BLA BLA BLA BLA BLA BLA BLA BLA BLA BLA BLA BLA BLA BLA 
BLA BLA BLA BLA BLA BLA BLA BLA BLA BLA BLA BLA BLA BLA BLA BLA BLA BLA BLA BLA 
BLA BLA BLA BLA BLA BLA BLA BLA BLA BLA BLA BLA BLA BLA BLA BLA BLA BLA BLA BLA 
BLA BLA BLA BLA BLA BLA BLA BLA BLA BLA BLA BLA BLA BLA BLA BLA BLA BLA BLA BLA 
BLA BLA BLA BLA BLA BLA BLA BLA BLA BLA BLA BLA BLA BLA BLA BLA BLA BLA BLA BLA 
BLA BLA BLA BLA BLA BLA BLA BLA BLA BLA BLA BLA BLA BLA BLA BLA BLA BLA BLA BLA 
BLA BLA BLA BLA BLA BLA BLA BLA BLA BLA BLA BLA BLA BLA BLA BLA BLA BLA BLA BLA 
BLA BLA BLA BLA BLA BLA BLA BLA BLA BLA BLA BLA BLA BLA BLA BLA BLA BLA BLA BLA 
BLA BLA BLA BLA BLA BLA BLA BLA BLA BLA BLA BLA BLA BLA BLA BLA BLA BLA BLA BLA 
BLA BLA BLA BLA BLA BLA BLA BLA BLA BLA BLA BLA BLA BLA BLA BLA BLA BLA BLA BLA 
BLA BLA BLA BLA BLA BLA BLA BLA BLA BLA BLA BLA BLA BLA BLA BLA BLA BLA BLA BLA 
BLA BLA BLA BLA BLA BLA BLA BLA BLA BLA BLA BLA BLA BLA BLA BLA BLA BLA BLA BLA 
BLA BLA BLA BLA BLA BLA BLA BLA BLA BLA BLA BLA BLA BLA BLA BLA BLA BLA BLA BLA 
BLA BLA BLA BLA BLA BLA BLA BLA BLA BLA BLA BLA BLA BLA BLA BLA BLA BLA BLA BLA 
BLA BLA BLA BLA BLA BLA BLA BLA BLA BLA BLA BLA BLA BLA BLA BLA BLA BLA BLA BLA 
BLA BLA BLA BLA BLA BLA BLA BLA BLA BLA BLA BLA BLA BLA BLA BLA BLA BLA BLA BLA 
BLA BLA BLA BLA BLA BLA BLA BLA BLA BLA BLA BLA BLA BLA BLA BLA BLA BLA BLA BLA 
BLA BLA BLA BLA BLA BLA BLA BLA BLA BLA BLA BLA BLA BLA BLA BLA BLA BLA BLA BLA 
BLA BLA BLA BLA BLA BLA BLA BLA BLA BLA BLA BLA BLA BLA BLA BLA BLA BLA BLA BLA 
BLA BLA BLA BLA BLA BLA BLA BLA BLA BLA BLA BLA BLA BLA BLA BLA BLA BLA BLA BLA 
BLA BLA BLA BLA BLA BLA BLA BLA BLA BLA BLA BLA BLA BLA BLA BLA BLA BLA BLA BLA 
BLA BLA BLA BLA BLA BLA BLA BLA BLA BLA BLA BLA BLA BLA BLA BLA BLA BLA BLA BLA 
BLA BLA BLA BLA BLA BLA BLA BLA BLA BLA BLA BLA BLA BLA BLA BLA BLA BLA BLA BLA 
BLA BLA BLA BLA BLA BLA BLA BLA BLA BLA BLA BLA BLA BLA BLA BLA BLA BLA BLA BLA 
BLA BLA BLA BLA BLA BLA BLA BLA BLA BLA BLA BLA BLA BLA BLA BLA BLA BLA BLA BLA 
BLA BLA BLA BLA BLA BLA BLA BLA BLA BLA BLA BLA BLA BLA BLA BLA BLA BLA BLA BLA 
BLA BLA BLA BLA BLA BLA BLA BLA BLA BLA BLA BLA BLA BLA BLA BLA BLA BLA BLA BLA 
BLA BLA BLA BLA BLA BLA BLA BLA BLA BLA BLA BLA BLA BLA BLA BLA BLA BLA BLA BLA 
BLA BLA BLA BLA BLA BLA BLA BLA BLA BLA BLA BLA BLA BLA BLA BLA BLA BLA BLA BLA 
BLA BLA BLA BLA BLA BLA BLA BLA BLA BLA BLA BLA BLA BLA BLA BLA BLA BLA BLA BLA 
BLA BLA BLA BLA BLA BLA BLA BLA BLA BLA BLA BLA BLA BLA BLA BLA BLA BLA BLA BLA 
BLA BLA BLA BLA BLA BLA BLA BLA BLA BLA BLA BLA BLA BLA BLA BLA BLA BLA BLA BLA 
BLA BLA BLA BLA BLA BLA BLA BLA BLA BLA BLA BLA BLA BLA BLA BLA BLA BLA BLA BLA 
BLA BLA BLA BLA BLA BLA BLA BLA BLA BLA BLA BLA BLA BLA BLA BLA BLA BLA BLA BLA 
BLA BLA BLA BLA BLA BLA BLA BLA BLA BLA BLA BLA BLA BLA BLA BLA BLA BLA BLA BLA 
BLA BLA BLA BLA BLA BLA BLA BLA BLA BLA BLA BLA BLA BLA BLA BLA BLA BLA BLA BLA 
BLA BLA BLA BLA BLA BLA BLA BLA BLA BLA BLA BLA BLA BLA BLA BLA BLA BLA BLA BLA 
BLA BLA BLA BLA BLA BLA BLA BLA BLA BLA BLA BLA BLA BLA BLA BLA BLA BLA BLA BLA 
BLA BLA BLA BLA BLA BLA BLA BLA BLA BLA BLA BLA BLA BLA BLA BLA BLA BLA BLA BLA 
BLA BLA BLA BLA BLA BLA BLA BLA BLA BLA BLA BLA BLA BLA BLA BLA BLA BLA BLA BLA 
BLA BLA BLA BLA BLA BLA BLA BLA BLA BLA BLA BLA BLA BLA BLA BLA BLA BLA BLA BLA 
BLA BLA BLA BLA BLA BLA BLA BLA BLA BLA BLA BLA BLA BLA BLA BLA BLA BLA BLA BLA 
BLA BLA BLA BLA BLA BLA BLA BLA BLA BLA BLA BLA BLA BLA BLA BLA BLA BLA BLA BLA 
BLA BLA BLA BLA BLA BLA BLA BLA BLA BLA BLA BLA BLA BLA BLA BLA BLA BLA BLA BLA 
BLA BLA BLA BLA BLA BLA BLA BLA BLA BLA BLA BLA BLA BLA BLA BLA BLA BLA BLA BLA 
BLA BLA BLA BLA BLA BLA BLA BLA BLA BLA BLA BLA BLA BLA BLA BLA BLA BLA BLA BLA 
BLA BLA BLA BLA BLA BLA BLA BLA BLA BLA BLA BLA BLA BLA BLA BLA BLA BLA BLA BLA 
BLA BLA BLA BLA BLA BLA BLA BLA BLA BLA BLA BLA BLA BLA BLA BLA BLA BLA BLA BLA 
BLA BLA BLA BLA BLA BLA BLA BLA BLA BLA BLA BLA BLA BLA BLA BLA BLA BLA BLA BLA 
BLA BLA BLA BLA BLA BLA BLA BLA BLA BLA BLA BLA BLA BLA BLA BLA BLA BLA BLA BLA 
BLA BLA BLA BLA BLA BLA BLA BLA BLA BLA BLA BLA BLA BLA BLA BLA BLA BLA BLA BLA 
BLA BLA BLA BLA BLA BLA BLA BLA BLA BLA BLA BLA BLA BLA BLA BLA BLA BLA BLA BLA 
BLA BLA BLA BLA BLA BLA BLA BLA BLA BLA BLA BLA BLA BLA BLA BLA BLA BLA BLA BLA 
BLA BLA BLA BLA BLA BLA BLA BLA BLA BLA BLA BLA BLA BLA BLA BLA BLA BLA BLA BLA 
BLA BLA BLA BLA BLA BLA BLA BLA BLA BLA BLA BLA BLA BLA BLA BLA BLA BLA BLA BLA 
BLA BLA BLA BLA BLA BLA BLA BLA BLA BLA BLA BLA BLA BLA BLA BLA BLA BLA BLA BLA 
BLA BLA BLA BLA BLA BLA BLA BLA BLA BLA BLA BLA BLA BLA BLA BLA BLA BLA BLA BLA 
BLA BLA BLA BLA BLA BLA BLA BLA BLA BLA BLA BLA BLA BLA BLA BLA BLA BLA BLA BLA 
BLA BLA BLA BLA BLA BLA BLA BLA BLA BLA BLA BLA BLA BLA BLA BLA BLA BLA BLA BLA 
BLA BLA BLA BLA BLA BLA BLA BLA BLA BLA BLA BLA BLA BLA BLA BLA BLA BLA BLA BLA 
BLA BLA BLA BLA BLA BLA BLA BLA BLA BLA BLA BLA BLA BLA BLA BLA BLA BLA BLA BLA 
BLA BLA BLA BLA BLA BLA BLA BLA BLA BLA BLA BLA BLA BLA BLA BLA BLA BLA BLA BLA 
BLA BLA BLA BLA BLA BLA BLA BLA BLA BLA BLA BLA BLA BLA BLA BLA BLA BLA BLA BLA 
BLA BLA BLA BLA BLA BLA BLA BLA BLA BLA BLA BLA BLA BLA BLA BLA BLA BLA BLA BLA 
BLA BLA BLA BLA BLA BLA BLA BLA BLA BLA BLA BLA BLA BLA BLA BLA BLA BLA BLA BLA 
BLA BLA BLA BLA BLA BLA BLA BLA BLA BLA BLA BLA BLA BLA BLA BLA BLA BLA BLA BLA 
BLA BLA BLA BLA BLA BLA BLA BLA BLA BLA BLA BLA BLA BLA BLA BLA BLA BLA BLA BLA 
BLA BLA BLA BLA BLA BLA BLA BLA BLA BLA BLA BLA BLA BLA BLA BLA BLA BLA BLA BLA 
BLA BLA BLA BLA BLA BLA BLA BLA BLA BLA BLA BLA BLA BLA BLA BLA BLA BLA BLA BLA 
BLA BLA BLA BLA BLA BLA BLA BLA BLA BLA BLA BLA BLA BLA BLA BLA BLA BLA BLA BLA 
BLA BLA BLA BLA BLA BLA BLA BLA BLA BLA BLA BLA BLA BLA BLA BLA BLA BLA BLA BLA 
BLA BLA BLA BLA BLA BLA BLA BLA BLA BLA BLA BLA BLA BLA BLA BLA BLA BLA BLA BLA 
BLA BLA BLA BLA BLA BLA BLA BLA BLA BLA BLA BLA BLA BLA BLA BLA BLA BLA BLA BLA 
BLA BLA BLA BLA BLA BLA BLA BLA BLA BLA BLA BLA BLA BLA BLA BLA BLA BLA BLA BLA 
BLA BLA BLA BLA BLA BLA BLA BLA BLA BLA BLA BLA BLA BLA BLA BLA BLA BLA BLA BLA 
BLA BLA BLA BLA BLA BLA BLA BLA BLA BLA BLA BLA BLA BLA BLA BLA BLA BLA BLA BLA 
BLA BLA BLA BLA BLA BLA BLA BLA BLA BLA BLA BLA BLA BLA BLA BLA BLA BLA BLA BLA 
BLA BLA BLA BLA BLA BLA BLA BLA BLA BLA BLA BLA BLA BLA BLA BLA BLA BLA BLA BLA 
BLA BLA BLA BLA BLA BLA BLA BLA BLA BLA BLA BLA BLA BLA BLA BLA BLA BLA BLA BLA 
BLA BLA BLA BLA BLA BLA BLA BLA BLA BLA BLA BLA BLA BLA BLA BLA BLA BLA BLA BLA 
BLA BLA BLA BLA BLA BLA BLA BLA BLA BLA BLA BLA BLA BLA BLA BLA BLA BLA BLA BLA 
BLA BLA BLA BLA BLA BLA BLA BLA BLA BLA BLA BLA BLA BLA BLA BLA BLA BLA BLA BLA 
BLA BLA BLA BLA BLA BLA BLA BLA BLA BLA BLA BLA BLA BLA BLA BLA BLA BLA BLA BLA 
BLA BLA BLA BLA BLA BLA BLA BLA BLA BLA BLA BLA BLA BLA BLA BLA BLA BLA BLA BLA 
BLA BLA BLA BLA BLA BLA BLA BLA BLA BLA BLA BLA BLA BLA BLA BLA BLA BLA BLA BLA 
BLA BLA BLA BLA BLA BLA BLA BLA BLA BLA BLA BLA BLA BLA BLA BLA BLA BLA BLA BLA 
BLA BLA BLA BLA BLA BLA BLA BLA BLA BLA BLA BLA BLA BLA BLA BLA BLA BLA BLA BLA 
BLA BLA BLA BLA BLA BLA BLA BLA BLA BLA BLA BLA BLA BLA BLA BLA BLA BLA BLA BLA 
BLA BLA BLA BLA BLA BLA BLA BLA BLA BLA BLA BLA BLA BLA BLA BLA BLA BLA BLA BLA 
BLA BLA BLA BLA BLA BLA BLA BLA BLA BLA BLA BLA BLA BLA BLA BLA BLA BLA BLA BLA 
BLA BLA BLA BLA BLA BLA BLA BLA BLA BLA BLA BLA BLA BLA BLA BLA BLA BLA BLA BLA 
BLA BLA BLA BLA BLA BLA BLA BLA BLA BLA BLA BLA BLA BLA BLA BLA BLA BLA BLA BLA 
BLA BLA BLA BLA BLA BLA BLA BLA BLA BLA BLA BLA BLA BLA BLA BLA BLA BLA BLA BLA 
BLA BLA BLA BLA BLA BLA BLA BLA BLA BLA BLA BLA BLA BLA BLA BLA BLA BLA BLA BLA 
BLA BLA BLA BLA BLA BLA BLA BLA BLA BLA BLA BLA BLA BLA BLA BLA BLA BLA BLA BLA 
BLA BLA BLA BLA BLA BLA BLA BLA BLA BLA BLA BLA BLA BLA BLA BLA BLA BLA BLA BLA 
BLA BLA BLA BLA BLA BLA BLA BLA BLA BLA BLA BLA BLA BLA BLA BLA BLA BLA BLA BLA 
BLA BLA BLA BLA BLA BLA BLA BLA BLA BLA BLA BLA BLA BLA BLA BLA BLA BLA BLA BLA 
BLA BLA BLA BLA BLA BLA BLA BLA BLA BLA BLA BLA BLA BLA BLA BLA BLA BLA BLA BLA 
BLA BLA BLA BLA BLA BLA BLA BLA BLA BLA BLA BLA BLA BLA BLA BLA BLA BLA BLA BLA 
BLA BLA BLA BLA BLA BLA BLA BLA BLA BLA BLA BLA BLA BLA BLA BLA BLA BLA BLA BLA 
BLA BLA BLA BLA BLA BLA BLA BLA BLA BLA BLA BLA BLA BLA BLA BLA BLA BLA BLA BLA 
BLA BLA BLA BLA BLA BLA BLA BLA BLA BLA BLA BLA BLA BLA BLA BLA BLA BLA BLA BLA 
BLA BLA BLA BLA BLA BLA BLA BLA BLA BLA BLA BLA BLA BLA BLA BLA BLA BLA BLA BLA 
BLA BLA BLA BLA BLA BLA BLA BLA BLA BLA BLA BLA BLA BLA BLA BLA BLA BLA BLA BLA 
BLA BLA BLA BLA BLA BLA BLA BLA BLA BLA BLA BLA BLA BLA BLA BLA BLA BLA BLA BLA 
%FLAG JOIN_ARRAY
%FORMAT(10I8)
       0       0       0       0       0       0       0       0       0       0
       0       0       0       0       0       0       0       0       0       0
       0       0       0       0       0       0       0       0       0       0
       0       0       0       0       0       0       0       0       0       0
       0       0       0       0       0       0       0       0       0       0
       0       0       0       0       0       0       0       0       0       0
       0       0       0       0       0       0       0       0       0       0
       0       0       0       0       0       0       0       0       0       0
       0       0       0       0       0       0       0       0       0       0
       0       0       0       0       0       0       0       0       0       0
       0       0       0       0       0       0       0       0       0       0
       0       0       0       0       0       0       0       0       0       0
       0       0       0       0       0       0       0       0       0       0
       0       0       0       0       0       0       0       0       0       0
       0       0       0       0       0       0       0       0       0       0
       0       0       0       0       0       0       0       0       0       0
       0       0       0       0       0       0       0       0       0       0
       0       0       0       0       0       0       0       0       0       0
       0       0       0       0       0       0       0       0       0       0
       0       0       0       0       0       0       0       0       0       0
       0       0       0       0       0       0       0       0       0       0
       0       0       0       0       0       0       0       0       0       0
       0       0       0       0       0       0       0       0       0       0
       0       0       0       0       0       0       0       0       0       0
       0       0       0       0       0       0       0       0       0       0
       0       0       0       0       0       0       0       0       0       0
       0       0       0       0       0       0       0       0       0       0
       0       0       0       0       0       0       0       0       0       0
       0       0       0       0       0       0       0       0       0       0
       0       0       0       0       0       0       0       0       0       0
       0       0       0       0       0       0       0       0       0       0
       0       0       0       0       0       0       0       0       0       0
       0       0       0       0       0       0       0       0       0       0
       0       0       0       0       0       0       0       0       0       0
       0       0       0       0       0       0       0       0       0       0
       0       0       0       0       0       0       0       0       0       0
       0       0       0       0       0       0       0       0       0       0
       0       0       0       0       0       0       0       0       0       0
       0       0       0       0       0       0       0       0       0       0
       0       0       0       0       0       0       0       0       0       0
       0       0       0       0       0       0       0       0       0       0
       0       0       0       0       0       0       0       0       0       0
       0       0       0       0       0       0       0       0       0       0
       0       0       0       0       0       0       0       0       0       0
       0       0       0       0       0       0       0       0       0       0
       0       0       0       0       0       0       0       0       0       0
       0       0       0       0       0       0       0       0       0       0
       0       0       0       0       0       0       0       0       0       0
       0       0       0       0       0       0       0       0       0       0
       0       0       0       0       0       0       0       0       0       0
       0       0       0       0       0       0       0       0       0       0
       0       0       0       0       0       0       0       0       0       0
       0       0       0       0       0       0       0       0       0       0
       0       0       0       0       0       0       0       0       0       0
       0       0       0       0       0       0       0       0       0       0
       0       0       0       0       0       0       0       0       0       0
       0       0       0       0       0       0       0       0       0       0
       0       0       0       0       0       0       0       0       0       0
       0       0       0       0       0       0       0       0       0       0
       0       0       0       0       0       0       0       0       0       0
       0       0       0       0       0       0       0       0       0       0
       0       0       0       0       0       0       0       0       0       0
       0       0       0       0       0       0       0       0       0       0
       0       0       0       0       0       0       0       0       0       0
       0       0       0       0       0       0       0       0       0       0
       0       0       0       0       0       0       0       0       0       0
       0       0       0       0       0       0       0       0       0       0
       0       0       0       0       0       0       0       0       0       0
       0       0       0       0       0       0       0       0       0       0
       0       0       0       0       0       0       0       0       0       0
       0       0       0       0       0       0       0       0       0       0
       0       0       0       0       0       0       0       0       0       0
       0       0       0       0       0       0       0       0       0       0
       0       0       0       0       0       0       0       0       0       0
       0       0       0       0       0       0       0       0       0       0
       0       0       0       0       0       0       0       0       0       0
       0       0       0       0       0       0       0       0       0       0
       0       0       0       0       0       0       0       0       0       0
       0       0       0       0       0       0       0       0       0       0
       0       0       0       0       0       0       0       0       0       0
       0       0       0       0       0       0       0       0       0       0
       0       0       0       0       0       0       0       0       0       0
       0       0       0       0       0       0       0       0       0       0
       0       0       0       0       0       0       0       0       0       0
       0       0       0       0       0       0       0       0       0       0
       0       0       0       0       0       0       0       0       0       0
       0       0       0       0       0       0       0       0       0       0
       0       0       0       0       0       0       0       0       0       0
       0       0       0       0       0       0       0       0       0       0
       0       0       0       0       0       0       0       0       0       0
       0       0       0       0       0       0       0       0       0       0
       0       0       0       0       0       0       0       0       0       0
       0       0       0       0       0       0       0       0       0       0
       0       0       0       0       0       0       0       0       0       0
       0       0       0       0       0       0       0       0       0       0
       0       0       0       0       0       0       0       0       0       0
       0       0       0       0       0       0       0       0       0       0
       0       0       0       0       0       0       0       0       0       0
       0       0       0       0       0       0       0       0       0       0
       0       0       0       0       0       0       0       0       0       0
       0       0       0       0       0       0       0       0       0       0
       0       0       0       0       0       0       0       0       0       0
       0       0       0       0       0       0       0       0       0       0
       0       0       0       0       0       0       0       0       0       0
       0       0       0       0       0       0       0       0       0       0
       0       0       0       0       0       0       0       0       0       0
       0       0       0       0       0       0       0       0       0       0
       0       0       0       0       0       0       0       0       0       0
       0       0       0       0       0       0       0       0       0       0
       0       0       0       0       0       0       0       0       0       0
       0       0       0       0       0       0       0       0       0       0
       0       0       0       0       0       0       0       0       0       0
       0       0       0       0       0       0       0       0       0       0
       0       0       0       0       0       0       0       0       0       0
       0       0       0       0       0       0       0       0       0       0
       0       0       0       0       0       0       0       0       0       0
       0       0       0       0       0       0       0       0       0       0
       0       0       0       0       0       0       0       0       0       0
       0       0       0       0       0       0       0       0       0       0
       0       0       0       0       0       0       0       0       0       0
       0       0       0       0       0       0       0       0       0       0
       0       0       0       0       0       0       0       0       0       0
       0       0       0       0       0       0       0       0       0       0
       0       0       0       0       0       0       0       0       0       0
       0       0       0       0       0       0       0       0       0       0
       0       0       0       0       0       0       0       0       0       0
       0       0       0       0       0       0       0       0       0       0
       0       0       0       0       0       0       0       0       0       0
       0       0       0       0       0       0       0       0       0       0
       0       0       0       0       0       0       0       0       0       0
       0       0       0       0       0       0       0       0       0       0
       0       0       0       0       0       0       0       0       0       0
       0       0       0       0       0       0       0       0       0       0
       0       0       0       0       0       0       0       0       0       0
       0       0       0       0       0       0       0       0       0       0
       0       0       0       0       0       0       0       0       0       0
       0       0       0       0       0       0       0       0       0       0
       0       0       0       0       0       0       0       0       0       0
       0       0       0       0       0       0       0       0       0       0
       0       0       0       0       0       0       0       0       0       0
       0       0       0       0       0       0       0       0       0       0
       0       0       0       0       0       0       0       0       0       0
       0       0       0       0       0       0       0       0       0       0
       0       0       0       0       0       0       0       0       0       0
       0       0       0       0       0       0       0       0       0       0
       0       0       0       0       0       0       0       0       0       0
       0       0       0       0       0       0       0       0       0       0
       0       0       0       0       0       0       0       0       0       0
       0       0       0       0       0       0       0       0       0       0
       0       0       0       0       0       0       0       0       0       0
       0       0       0       0       0       0       0       0       0       0
       0       0       0       0       0       0       0       0       0       0
       0       0       0       0       0       0       0       0       0       0
       0       0       0       0       0       0       0       0       0       0
       0       0       0       0       0       0       0       0       0       0
       0       0       0       0       0       0       0       0       0       0
       0       0       0       0       0       0       0       0       0       0
       0       0       0       0       0       0       0       0       0       0
       0       0       0       0       0       0       0       0       0       0
       0       0       0       0       0       0       0       0       0       0
       0       0       0       0       0       0       0       0       0       0
       0       0       0       0       0       0       0       0       0       0
       0       0       0       0       0       0       0       0       0       0
       0       0       0       0       0       0       0       0       0       0
       0       0       0       0       0       0       0       0       0       0
       0       0       0       0       0       0       0       0       0       0
       0       0       0       0       0       0       0       0       0       0
       0       0       0       0       0       0       0       0       0       0
       0       0       0       0       0       0       0       0       0       0
       0       0       0       0       0       0       0       0       0       0
       0       0       0       0       0       0       0       0       0       0
       0       0       0       0       0       0       0       0       0       0
       0       0       0       0       0       0       0       0       0       0
       0       0       0       0       0       0       0       0       0       0
       0       0       0       0       0       0       0       0       0       0
       0       0       0       0       0       0       0       0       0       0
       0       0       0       0       0       0       0       0       0       0
       0       0       0       0       0       0       0       0       0       0
       0       0       0       0       0       0       0       0       0       0
       0       0       0       0       0       0       0       0       0       0
       0       0       0       0       0       0       0       0       0       0
       0       0       0       0       0       0       0       0       0       0
       0       0       0       0       0       0       0       0       0       0
       0       0       0       0       0       0       0       0       0       0
       0       0       0       0       0       0       0       0       0       0
       0       0       0       0       0       0       0       0       0       0
       0       0       0       0       0       0       0       0       0       0
       0       0       0       0       0       0       0       0       0       0
       0       0       0       0       0       0       0       0       0       0
       0       0       0       0       0       0       0       0       0       0
       0       0       0       0       0       0       0       0       0       0
       0       0       0       0       0       0       0       0       0       0
       0       0       0       0       0       0       0       0       0       0
       0       0       0       0       0       0       0       0       0       0
       0       0       0       0       0       0       0       0       0       0
       0       0       0       0       0       0       0       0       0       0
       0       0       0       0       0       0       0       0       0       0
       0       0       0       0       0       0       0       0       0       0
       0       0       0       0       0       0       0       0       0       0
       0       0       0       0       0       0       0       0       0       0
       0       0       0       0       0       0       0       0       0       0
       0       0       0       0       0       0       0       0       0       0
       0       0       0       0       0       0       0       0       0       0
       0       0       0       0       0       0       0       0       0       0
       0       0       0       0       0       0       0       0       0       0
       0       0       0       0       0       0       0       0       0       0
       0       0       0       0       0       0       0       0       0       0
       0       0       0       0       0       0       0       0       0       0
       0       0       0       0       0       0       0       0       0       0
       0       0       0       0       0       0       0       0       0       0
       0       0       0       0       0       0       0       0       0       0
       0       0       0       0       0       0       0       0       0       0
       0       0       0       0       0       0       0       0       0       0
       0       0       0       0       0       0       0       0       0       0
       0       0       0       0       0       0       0       0       0       0
       0       0       0       0       0       0       0       0       0       0
       0       0       0       0       0       0       0       0       0       0
       0       0       0       0       0       0       0       0       0       0
       0       0       0       0       0       0       0       0       0       0
       0       0       0       0       0       0       0       0       0       0
       0       0       0       0       0       0       0       0       0       0
       0       0       0       0       0       0       0       0       0       0
       0       0       0       0       0       0       0       0       0       0
       0       0       0       0       0       0       0       0       0       0
       0       0       0       0       0       0       0       0       0       0
       0       0       0       0       0       0       0       0       0       0
       0       0       0       0       0       0       0       0       0       0
       0       0       0       0       0       0       0       0       0       0
       0       0       0       0       0       0       0       0       0       0
       0       0       0       0       0       0       0       0       0       0
       0       0       0       0       0       0       0       0       0       0
       0       0       0       0       0       0       0       0       0       0
       0       0       0       0       0       0       0       0       0       0
       0       0       0       0       0       0       0       0       0       0
       0       0       0       0       0       0       0       0       0       0
       0       0       0       0       0       0       0       0       0       0
       0       0       0       0       0       0       0       0       0       0
       0       0       0       0       0       0       0       0       0       0
       0       0       0       0       0       0       0       0       0       0
       0       0       0       0       0       0       0       0       0       0
       0       0       0       0       0       0       0       0       0       0
       0       0       0       0       0       0       0       0       0       0
       0       0       0       0       0       0       0       0       0       0
       0       0       0       0       0       0       0       0       0       0
       0       0       0       0       0       0       0       0       0       0
       0       0       0       0       0       0       0       0       0       0
       0       0       0       0       0       0       0       0       0       0
       0       0       0       0       0       0       0       0       0       0
       0       0       0       0       0       0       0       0       0       0
       0       0       0       0       0       0       0       0       0       0
       0       0       0       0       0       0       0       0       0       0
       0       0       0       0       0       0       0       0       0       0
       0       0       0       0       0       0       0       0       0       0
       0       0       0       0       0       0       0       0       0       0
       0       0       0       0       0       0       0       0       0       0
       0       0       0       0       0       0       0       0       0       0
       0       0       0       0       0       0       0       0       0       0
       0       0       0       0       0       0       0       0       0       0
       0       0       0       0       0       0       0       0       0       0
       0       0       0       0       0       0       0       0       0       0
       0       0       0       0       0       0       0       0       0       0
       0       0       0       0       0       0       0       0       0       0
       0       0       0       0       0       0       0       0       0       0
       0       0       0       0       0       0       0       0       0       0
       0       0       0       0       0       0       0       0       0       0
       0       0       0       0       0       0       0       0       0       0
       0       0       0       0       0       0       0       0       0       0
       0       0       0       0       0       0       0       0       0       0
       0       0       0       0       0       0       0       0       0       0
       0       0       0       0       0       0       0       0       0       0
       0       0       0       0       0       0       0       0       0       0
       0       0       0       0       0       0       0       0       0       0
       0       0       0       0       0       0       0       0       0       0
       0       0       0       0       0       0       0       0       0       0
       0       0       0       0       0       0       0       0       0       0
       0       0       0       0       0       0       0       0       0       0
       0       0       0       0       0       0       0       0       0       0
       0       0       0       0       0       0       0       0       0       0
       0       0       0       0       0       0       0       0       0       0
       0       0       0       0       0       0       0       0       0       0
       0       0       0       0       0       0       0       0       0       0
       0       0       0       0       0       0       0       0       0       0
       0       0       0       0       0       0       0       0       0       0
       0       0       0       0       0       0       0       0       0       0
       0       0       0       0       0       0       0       0       0       0
       0       0       0       0       0       0       0       0       0       0
       0       0       0       0       0       0       0       0       0       0
       0       0       0       0       0       0       0       0       0       0
       0       0       0       0       0       0       0       0       0       0
       0       0       0       0       0       0       0       0       0       0
       0       0       0       0       0       0       0       0       0       0
       0       0       0       0       0       0       0       0       0       0
       0       0       0       0       0       0       0       0       0       0
       0       0       0       0       0       0       0       0       0       0
       0       0       0       0       0       0       0       0       0       0
       0       0       0       0       0       0       0       0       0       0
       0       0       0       0       0       0       0       0       0       0
       0       0       0       0       0       0       0       0       0       0
       0       0       0       0       0       0       0       0       0       0
       0       0       0       0       0       0       0       0       0       0
       0       0       0       0       0       0       0       0       0       0
       0       0       0       0       0       0       0       0       0       0
       0       0       0       0       0       0       0       0       0       0
       0       0       0       0       0       0       0       0       0       0
       0       0       0       0       0       0       0       0       0       0
       0       0       0       0       0       0       0       0       0       0
       0       0       0       0       0       0       0       0       0       0
       0       0       0       0       0       0       0       0       0       0
       0       0       0       0       0       0       0       0       0       0
       0       0       0       0       0       0       0       0       0       0
       0       0       0       0       0       0       0       0       0       0
       0       0       0       0       0       0       0       0       0       0
       0       0       0       0       0       0       0       0       0       0
       0       0       0       0       0       0       0       0       0       0
       0       0       0       0       0       0       0       0       0       0
       0       0       0       0       0       0       0       0       0       0
       0       0       0       0       0       0       0       0       0       0
       0       0       0       0       0       0       0       0       0       0
       0       0       0       0       0       0       0       0       0       0
       0       0       0       0       0       0       0       0       0       0
       0       0       0       0       0       0       0       0       0       0
       0       0       0       0       0       0       0       0       0       0
       0       0       0       0       0       0       0       0       0       0
       0       0       0       0       0       0       0       0       0       0
       0       0       0       0       0       0       0       0       0       0
       0       0       0       0       0       0       0       0       0       0
       0       0       0       0       0       0       0       0       0       0
       0       0       0       0       0       0       0       0       0       0
       0       0       0       0       0       0       0       0       0       0
       0       0       0       0       0       0       0       0       0       0
       0       0       0       0       0       0       0       0       0       0
       0       0       0       0       0       0       0       0       0       0
       0       0       0       0       0       0       0       0       0       0
       0       0       0       0       0       0       0       0       0       0
       0       0       0       0       0       0       0       0       0       0
       0       0       0       0       0       0       0       0       0       0
       0       0       0       0       0       0       0       0       0       0
       0       0       0       0       0       0       0       0       0       0
       0       0       0       0       0       0       0       0       0       0
       0       0       0       0       0       0       0       0       0       0
       0       0       0       0       0       0       0       0       0       0
       0       0       0       0       0       0       0       0       0       0
       0       0       0       0       0       0       0       0       0       0
       0       0       0       0       0       0       0       0       0       0
       0       0       0       0       0       0       0       0       0       0
       0       0       0       0       0       0       0       0       0       0
       0       0       0       0       0       0       0       0       0       0
       0       0       0       0       0       0       0       0       0       0
       0       0       0       0       0       0       0       0       0       0
       0       0       0       0       0       0       0       0       0       0
       0       0       0       0       0       0       0       0       0       0
       0       0       0       0       0       0       0       0       0       0
       0       0       0       0       0       0       0       0       0       0
       0       0       0       0       0       0       0       0       0       0
       0       0       0       0       0       0       0       0       0       0
       0       0       0       0       0       0       0       0       0       0
       0       0       0       0       0       0       0       0       0       0
       0       0       0       0       0       0       0       0       0       0
       0       0       0       0       0       0       0       0       0       0
       0       0       0       0       0       0       0       0       0       0
       0       0       0       0       0       0       0       0       0       0
       0       0       0       0       0       0       0       0       0       0
       0       0       0       0       0       0       0       0       0       0
       0       0       0       0       0       0       0       0       0       0
       0       0       0       0       0       0       0       0       0       0
       0       0       0       0       0       0       0       0       0       0
       0       0       0       0       0       0       0       0       0       0
       0       0       0       0       0       0       0       0       0       0
       0       0       0       0       0       0       0       0       0       0
       0       0       0       0       0       0       0       0       0       0
       0       0       0       0       0       0       0       0       0       0
       0       0       0       0       0       0       0       0       0       0
       0       0       0       0       0       0       0       0       0       0
       0       0       0       0       0       0       0       0       0       0
       0       0       0       0       0       0       0       0       0       0
       0       0       0       0       0       0       0       0       0       0
       0       0       0       0       0       0       0       0       0       0
       0       0       0       0       0       0       0       0       0       0
       0       0       0       0       0       0       0       0       0       0
       0       0       0       0       0       0       0       0       0       0
       0       0       0       0       0       0       0       0       0       0
       0       0       0       0       0       0       0       0       0       0
       0       0       0       0       0       0       0       0       0       0
       0       0       0       0       0       0       0       0       0       0
       0       0       0       0       0       0       0       0       0       0
       0       0       0       0       0       0       0       0       0       0
       0       0       0       0       0       0       0       0       0       0
       0       0       0       0       0       0       0       0       0       0
       0       0       0       0       0       0       0       0       0       0
       0       0       0       0       0       0       0       0       0       0
       0       0       0       0       0       0       0       0       0       0
       0       0       0       0       0       0       0       0       0       0
       0       0       0       0       0       0       0       0       0       0
       0       0       0       0       0       0       0       0       0       0
       0       0       0       0       0       0       0       0       0       0
       0       0       0       0       0       0       0       0       0       0
       0       0       0       0       0       0       0       0       0       0
       0       0       0       0       0       0       0       0       0       0
       0       0       0       0       0       0       0       0       0       0
       0       0       0       0       0       0       0       0       0       0
       0       0       0       0       0       0       0       0       0       0
       0       0       0       0       0       0       0       0       0       0
       0       0       0       0       0       0       0       0       0       0
       0       0       0       0       0       0       0       0       0       0
       0       0       0       0       0       0       0       0       0       0
       0       0       0       0       0       0       0       0       0       0
       0       0       0       0       0       0       0       0       0       0
       0       0       0       0       0       0       0       0       0       0
       0       0       0       0       0       0       0       0       0       0
       0       0       0       0       0       0       0       0       0       0
       0       0       0       0       0       0       0       0       0       0
       0       0       0       0       0       0       0       0       0       0
       0       0       0       0       0       0       0       0       0       0
       0       0       0       0       0       0       0       0       0       0
       0       0       0       0       0       0       0       0       0       0
       0       0       0       0       0       0       0       0       0       0
       0       0       0       0       0       0       0       0       0       0
       0       0       0       0       0       0       0       0       0       0
       0       0       0       0       0       0       0       0       0       0
       0       0       0       0       0       0       0       0       0       0
       0       0       0       0       0       0       0       0       0       0
       0       0       0       0       0       0       0       0       0       0
       0       0       0       0       0       0       0       0       0       0
       0       0       0       0       0       0       0       0       0       0
       0       0       0       0       0       0       0       0       0       0
       0       0       0       0       0       0       0       0       0       0
       0       0       0       0       0       0       0       0       0       0
       0       0       0       0       0       0       0       0       0       0
       0       0       0       0       0       0       0       0       0       0
       0       0       0       0       0       0       0       0       0       0
       0       0       0       0       0       0       0       0       0       0
       0       0       0       0       0       0       0       0       0       0
       0       0       0       0       0       0       0       0       0       0
       0       0       0       0       0       0       0       0       0       0
       0       0       0       0       0       0       0       0       0       0
       0       0       0       0       0       0       0       0       0       0
       0       0       0       0       0       0       0       0       0       0
       0       0       0       0       0       0       0       0       0       0
       0       0       0       0       0       0       0       0       0       0
       0       0       0       0       0       0       0       0       0       0
       0       0       0       0       0       0       0       0       0       0
       0       0       0       0       0       0       0       0       0       0
       0       0       0       0       0       0       0       0       0       0
       0       0       0       0       0       0       0       0       0       0
       0       0       0       0       0       0       0       0       0       0
       0       0       0       0       0       0       0       0       0       0
       0       0       0       0       0       0       0       0       0       0
       0       0       0       0       0       0       0       0       0       0
       0       0       0       0       0       0       0       0       0       0
       0       0       0       0       0       0       0       0       0       0
       0       0       0       0       0       0       0       0       0       0
       0       0       0       0       0       0       0       0       0       0
       0       0       0       0       0       0       0       0       0       0
       0       0       0       0       0       0       0       0       0       0
       0       0       0       0       0       0       0       0       0       0
       0       0       0       0       0       0       0       0       0       0
       0       0       0       0       0       0       0       0       0       0
       0       0       0       0       0       0       0       0       0       0
       0       0       0       0       0       0       0       0       0       0
       0       0       0       0       0       0       0       0       0       0
       0       0       0       0       0       0       0       0       0       0
       0       0       0       0       0       0       0       0       0       0
       0       0       0       0       0       0       0       0       0       0
       0       0       0       0       0       0       0       0       0       0
       0       0       0       0       0       0       0       0       0       0
       0       0       0       0       0       0       0       0       0       0
       0       0       0       0       0       0       0       0       0       0
       0       0       0       0       0       0       0       0       0       0
       0       0       0       0       0       0       0       0       0       0
       0       0       0       0       0       0       0       0       0       0
       0       0       0       0       0       0       0       0       0       0
       0       0       0       0       0       0       0       0       0       0
       0       0       0       0       0       0       0       0       0       0
       0       0       0       0       0       0       0       0       0       0
       0       0       0       0       0       0       0       0       0       0
       0       0       0       0       0       0       0       0       0       0
       0       0       0       0       0       0       0       0       0       0
       0       0       0       0       0       0       0       0       0       0
       0       0       0       0       0       0       0       0       0       0
       0       0       0       0       0       0       0       0       0       0
       0       0       0       0       0       0       0       0       0       0
       0       0       0       0       0       0       0       0       0       0
       0       0       0       0       0       0       0       0       0       0
       0       0       0       0       0       0       0       0       0       0
       0       0       0       0       0       0       0       0       0       0
       0       0       0       0       0       0       0       0       0       0
       0       0       0       0       0       0       0       0       0       0
       0       0       0       0       0       0       0       0       0       0
       0       0       0       0       0       0       0       0       0       0
       0       0       0       0       0       0       0       0       0       0
       0       0       0       0       0       0       0       0       0       0
       0       0       0       0       0       0       0       0       0       0
       0       0       0       0       0       0       0       0       0       0
       0       0       0       0       0       0       0       0       0       0
       0       0       0       0       0       0       0       0       0       0
       0       0       0       0       0       0       0       0       0       0
       0       0       0       0       0       0       0       0       0       0
       0       0       0       0       0       0       0       0       0       0
       0       0       0       0       0       0       0       0       0       0
       0       0       0       0       0       0       0       0       0       0
       0       0       0       0       0       0       0       0       0       0
       0       0       0       0       0       0       0       0       0       0
       0       0       0       0       0       0       0       0       0       0
       0       0       0       0       0       0       0       0       0       0
       0       0       0       0       0       0       0       0       0       0
       0       0       0       0       0       0       0       0       0       0
       0       0       0       0       0       0       0       0       0       0
       0       0       0       0       0       0       0       0       0       0
       0       0       0       0       0       0       0       0       0       0
       0       0       0       0       0       0       0       0       0       0
       0       0       0       0       0       0       0       0       0       0
       0       0       0       0       0       0       0       0       0       0
       0       0       0       0       0       0       0       0       0       0
       0       0       0       0       0       0       0       0       0       0
       0       0       0       0       0       0       0       0       0       0
       0       0       0       0       0       0       0       0       0       0
       0       0       0       0       0       0       0       0       0       0
       0       0       0       0       0       0       0       0       0       0
       0       0       0       0       0       0       0       0       0       0
       0       0       0       0       0       0       0       0       0       0
       0       0       0       0       0       0       0       0       0       0
       0       0       0       0       0       0       0       0       0       0
       0       0       0       0       0       0       0       0       0       0
       0       0       0       0       0       0       0       0       0       0
       0       0       0       0       0       0       0       0       0       0
       0       0       0       0       0       0       0       0       0       0
       0       0       0       0       0       0       0       0       0       0
       0       0       0       0       0       0       0       0       0       0
       0       0       0       0       0       0       0       0       0       0
       0       0       0       0       0       0       0       0       0       0
       0       0       0       0       0       0       0       0       0       0
       0       0       0       0       0       0       0       0       0       0
       0       0       0       0       0       0       0       0       0       0
       0       0       0       0       0       0       0       0       0       0
       0       0       0       0       0       0       0       0       0       0
       0       0       0       0       0       0       0       0       0       0
       0       0       0       0       0       0       0       0       0       0
       0       0       0       0       0       0       0       0       0       0
       0       0       0       0       0       0       0       0       0       0
       0       0       0       0       0       0       0       0       0       0
       0       0       0       0       0       0       0       0       0       0
       0       0       0       0       0       0       0       0       0       0
       0       0       0       0       0       0       0       0       0       0
       0       0       0       0       0       0       0       0       0       0
       0       0       0       0       0       0       0       0       0       0
       0       0       0       0       0       0       0       0       0       0
       0       0       0       0       0       0       0       0       0       0
       0       0       0       0       0       0       0       0       0       0
       0       0       0       0       0       0       0       0       0       0
       0       0       0       0       0       0       0       0       0       0
       0       0       0       0       0       0       0       0       0       0
       0       0       0       0       0       0       0       0       0       0
       0       0       0       0       0       0       0       0       0       0
       0       0       0       0       0       0       0       0       0       0
       0       0       0       0       0       0       0       0       0       0
       0       0       0       0       0       0       0       0       0       0
       0       0       0       0       0       0       0       0       0       0
       0       0       0       0       0       0       0       0       0       0
       0       0       0       0       0       0       0       0       0       0
       0       0       0       0       0       0       0       0       0       0
       0       0       0       0       0       0       0       0       0       0
       0       0       0       0       0       0       0       0       0       0
       0       0       0       0       0       0       0       0       0       0
       0       0       0       0       0       0       0       0       0       0
       0       0       0       0       0       0       0       0       0       0
       0       0       0       0       0       0       0       0       0       0
       0       0       0       0       0       0       0       0       0       0
       0       0       0       0       0       0       0       0       0       0
       0       0       0       0       0       0       0       0       0       0
       0       0       0       0       0       0       0       0       0       0
       0       0       0       0       0       0       0       0       0       0
       0       0       0       0       0       0       0       0       0       0
       0       0       0       0       0       0       0       0       0       0
       0       0       0       0       0       0       0       0       0       0
       0       0       0       0       0       0       0       0       0       0
       0       0       0       0       0       0       0       0       0       0
       0       0       0       0       0       0       0       0       0       0
       0       0       0       0       0       0       0       0       0       0
       0       0       0       0       0       0       0       0       0       0
       0       0       0       0       0       0       0       0       0       0
       0       0       0       0       0       0       0       0       0       0
       0       0       0       0       0       0       0       0       0       0
       0       0       0       0       0       0       0       0       0       0
       0       0       0       0       0       0       0       0       0       0
       0       0       0       0       0       0       0       0       0       0
       0       0       0       0       0       0       0       0       0       0
       0       0       0       0       0       0       0       0       0       0
       0       0       0       0       0       0       0       0       0       0
       0       0       0       0       0       0       0       0       0       0
       0       0       0       0       0       0       0       0       0       0
       0       0       0       0       0       0       0       0       0       0
       0       0       0       0       0       0       0       0       0       0
       0       0       0       0       0       0       0       0       0       0
       0       0       0       0       0       0       0       0       0       0
       0       0       0       0       0       0       0       0       0       0
       0       0       0       0       0       0       0       0       0       0
       0       0       0       0       0       0       0       0       0       0
       0       0       0       0       0       0       0       0       0       0
       0       0       0       0       0       0       0       0       0       0
       0       0       0       0       0       0       0       0       0       0
       0       0       0       0       0       0       0       0       0       0
       0       0       0       0       0       0       0       0       0       0
       0       0       0       0       0       0       0       0       0       0
       0       0       0       0       0       0       0       0       0       0
       0       0       0       0       0       0       0       0       0       0
       0       0       0       0       0       0       0       0       0       0
       0       0       0       0       0       0       0       0       0       0
       0       0       0       0       0       0       0       0       0       0
       0       0       0       0       0       0       0       0       0       0
       0       0       0       0       0       0       0       0       0       0
       0       0       0       0       0       0       0       0       0       0
       0       0       0       0       0       0       0       0       0       0
       0       0       0       0       0       0       0       0       0       0
       0       0       0       0       0       0       0       0       0       0
       0       0       0       0       0       0       0       0       0       0
       0       0       0       0       0       0       0       0       0       0
       0       0       0       0       0       0       0       0       0       0
       0       0       0       0       0       0       0       0       0       0
       0       0       0       0       0       0       0       0       0       0
       0       0       0       0       0       0       0       0       0       0
       0       0       0       0       0       0       0       0       0       0
       0       0       0       0       0       0       0       0       0       0
       0       0       0       0       0       0       0       0       0       0
       0       0       0       0       0       0       0       0       0       0
       0       0       0       0       0       0       0       0       0       0
       0       0       0       0       0       0       0       0       0       0
       0       0       0       0       0       0       0       0       0       0
       0       0       0       0       0       0       0       0       0       0
       0       0       0       0       0       0       0       0       0       0
       0       0       0       0       0       0       0       0       0       0
       0       0       0       0       0       0       0       0       0       0
       0       0       0       0       0       0       0       0       0       0
       0       0       0       0       0       0       0       0       0       0
       0       0       0       0       0       0       0       0       0       0
       0       0       0       0       0       0       0       0       0       0
       0       0       0       0       0       0       0       0       0       0
       0       0       0       0       0       0       0       0       0       0
       0       0       0       0       0       0       0       0       0       0
       0       0       0       0       0       0       0       0       0       0
       0       0       0       0       0       0       0       0       0       0
       0       0       0       0       0       0       0       0       0       0
       0       0       0       0       0       0       0       0       0       0
       0       0       0       0       0       0       0       0       0       0
       0       0       0       0       0       0       0       0       0       0
       0       0       0       0       0       0       0       0       0       0
       0       0       0       0       0       0       0       0       0       0
       0       0       0       0       0       0       0       0       0       0
       0       0       0       0       0       0       0       0       0       0
       0       0       0       0       0       0       0       0       0       0
       0       0       0       0       0       0       0       0       0       0
       0       0       0       0       0       0       0       0       0       0
       0       0       0       0       0       0       0       0       0       0
       0       0       0       0       0       0       0       0       0       0
       0       0       0       0       0       0       0       0       0       0
       0       0       0       0       0       0       0       0       0       0
       0       0       0       0       0       0       0       0       0       0
       0       0       0       0       0       0       0       0       0       0
       0       0       0       0       0       0       0       0       0       0
       0       0       0       0       0       0       0       0       0       0
       0       0       0       0       0       0       0       0       0       0
       0       0       0       0       0       0       0       0       0       0
       0       0       0       0       0       0       0       0       0       0
       0       0       0       0       0       0       0       0       0       0
       0       0       0       0       0       0       0       0       0       0
       0       0       0       0       0       0       0       0       0       0
       0       0       0       0       0       0       0       0       0       0
       0       0       0       0       0       0       0       0       0       0
       0       0       0       0       0       0       0       0       0       0
       0       0       0       0       0       0       0       0       0       0
       0       0       0       0       0       0       0       0       0       0
       0       0       0       0       0       0       0       0       0       0
       0       0       0       0       0       0       0       0       0       0
       0       0       0       0       0       0       0       0       0       0
       0       0       0       0       0       0       0       0       0       0
       0       0       0       0       0       0       0       0       0       0
       0       0       0       0       0       0       0       0       0       0
       0       0       0       0       0       0       0       0       0       0
       0       0       0       0       0       0       0       0       0       0
       0       0       0       0       0       0       0       0       0       0
       0       0       0       0       0       0       0       0       0       0
       0       0       0       0       0       0       0       0       0       0
       0       0       0       0       0       0       0       0       0       0
       0       0       0       0       0       0       0       0       0       0
       0       0       0       0       0       0       0       0       0       0
       0       0       0       0       0       0       0       0       0       0
       0       0       0       0       0       0       0       0       0       0
       0       0       0       0       0       0       0       0       0       0
       0       0       0       0       0       0       0       0       0       0
       0       0       0       0       0       0       0       0       0       0
       0       0       0       0       0       0       0       0       0       0
       0       0       0       0       0       0       0       0       0       0
       0       0       0       0       0       0       0       0       0       0
       0       0       0       0       0       0       0       0       0       0
       0       0       0       0       0       0       0       0       0       0
       0       0       0       0       0       0       0       0       0       0
       0       0       0       0       0       0       0       0       0       0
       0       0       0       0       0       0       0       0       0       0
       0       0       0       0       0       0       0       0       0       0
       0       0       0       0       0       0       0       0       0       0
       0       0       0       0       0       0       0       0       0       0
       0       0       0       0       0       0       0       0       0       0
       0       0       0       0       0       0       0       0       0       0
       0       0       0       0       0       0       0       0       0       0
       0       0       0       0       0       0       0       0       0       0
       0       0       0       0       0       0       0       0       0       0
       0       0       0       0       0       0       0       0       0       0
       0       0       0       0       0       0       0       0       0       0
       0       0       0       0       0       0       0       0       0       0
       0       0       0       0       0       0       0       0       0       0
       0       0       0       0       0       0       0       0       0       0
       0       0       0       0       0       0       0       0       0       0
       0       0       0       0       0       0       0       0       0       0
       0       0       0       0       0       0       0       0       0       0
       0       0       0       0       0       0       0       0       0       0
       0       0       0       0       0       0       0       0       0       0
       0       0       0       0       0       0       0       0       0       0
       0       0       0       0       0       0       0       0       0       0
       0       0       0       0       0       0       0       0       0       0
       0       0       0       0       0       0       0       0       0       0
       0       0       0       0       0       0       0       0       0       0
       0       0       0       0       0       0       0       0       0       0
       0       0       0       0       0       0       0       0       0       0
       0       0       0       0       0       0       0       0       0       0
       0       0       0       0       0       0       0       0       0       0
       0       0       0       0       0       0       0       0       0       0
       0       0       0       0       0       0       0       0       0       0
       0       0       0       0       0       0       0       0       0       0
       0       0       0       0       0       0       0       0       0       0
       0       0       0       0       0       0       0       0       0       0
       0       0       0       0       0       0       0       0       0       0
       0       0       0       0       0       0       0       0       0       0
       0       0       0       0       0       0       0       0       0       0
       0       0       0       0       0       0       0       0       0       0
       0       0       0       0       0       0       0       0       0       0
       0       0       0       0       0       0       0       0       0       0
       0       0       0       0       0       0       0       0       0       0
       0       0       0       0       0       0       0       0       0       0
       0       0       0       0       0       0       0       0       0       0
       0       0       0       0       0       0       0       0       0       0
       0       0       0       0       0       0       0       0       0       0
       0       0       0       0       0       0       0       0       0       0
       0       0       0       0       0       0       0       0       0       0
       0       0       0       0       0       0       0       0       0       0
       0       0       0       0       0       0       0       0       0       0
       0       0       0       0       0       0       0       0       0       0
       0       0       0       0       0       0       0       0       0       0
       0       0       0       0       0       0       0       0       0       0
       0       0       0       0       0       0       0       0       0       0
       0       0       0       0       0       0       0       0       0       0
       0       0       0       0       0       0       0       0       0       0
       0       0       0       0       0       0       0       0       0       0
       0       0       0       0       0       0       0       0       0       0
       0       0       0       0       0       0       0       0       0       0
       0       0       0       0       0       0       0       0       0       0
       0       0       0       0       0       0       0       0       0       0
       0       0       0       0       0       0       0       0       0       0
       0       0       0       0       0       0       0       0       0       0
       0       0       0       0       0       0       0       0       0       0
       0       0       0       0       0       0       0       0       0       0
       0       0       0       0       0       0       0       0       0       0
       0       0       0       0       0       0       0       0       0       0
       0       0       0       0       0       0       0       0       0       0
       0       0       0       0       0       0       0       0       0       0
       0       0       0       0       0       0       0       0       0       0
       0       0       0       0       0       0       0       0       0       0
       0       0       0       0       0       0       0       0       0       0
       0       0       0       0       0       0       0       0       0       0
       0       0       0       0       0       0       0       0       0       0
       0       0       0       0       0       0       0       0       0       0
       0       0       0       0       0       0       0       0       0       0
       0       0       0       0       0       0       0       0       0       0
       0       0       0       0       0       0       0       0       0       0
       0       0       0       0       0       0       0       0       0       0
       0       0       0       0       0       0       0       0       0       0
       0       0       0       0       0       0       0       0       0       0
       0       0       0       0       0       0       0       0       0       0
       0       0       0       0       0       0       0       0       0       0
       0       0       0       0       0       0       0       0       0       0
       0       0       0       0       0       0       0       0       0       0
       0       0       0       0       0       0       0       0       0       0
       0       0       0       0       0       0       0       0       0       0
       0       0       0       0       0       0       0       0       0       0
       0       0       0       0       0       0       0       0       0       0
       0       0       0       0       0       0       0       0       0       0
       0       0       0       0       0       0       0       0       0       0
       0       0       0       0       0       0       0       0       0       0
       0       0       0       0       0       0       0       0       0       0
       0       0       0       0       0       0       0       0       0       0
       0       0       0       0       0       0       0       0       0       0
       0       0       0       0       0       0       0       0       0       0
       0       0       0       0       0       0       0       0       0       0
       0       0       0       0       0       0       0       0       0       0
       0       0       0       0       0       0       0       0       0       0
       0       0       0       0       0       0       0       0       0       0
       0       0       0       0       0       0       0       0       0       0
       0       0       0       0       0       0       0       0       0       0
       0       0       0       0       0       0       0       0       0       0
       0       0       0       0       0       0       0       0       0       0
       0       0       0       0       0       0       0       0       0       0
       0       0       0       0       0       0       0       0       0       0
       0       0       0       0       0       0       0       0       0       0
       0       0       0       0       0       0       0       0       0       0
       0       0       0       0       0       0       0       0       0       0
       0       0       0       0       0       0       0       0       0       0
       0       0       0       0       0       0       0       0       0       0
       0       0       0       0       0       0       0       0       0       0
       0       0       0       0       0       0       0       0       0       0
       0       0       0       0       0       0       0       0       0       0
       0       0       0       0       0       0       0       0       0       0
       0       0       0       0       0       0       0       0       0       0
       0       0       0       0       0       0       0       0       0       0
       0       0       0       0       0       0       0       0       0       0
       0       0       0       0       0       0       0       0       0       0
       0       0       0       0       0       0       0       0       0       0
       0       0       0       0       0       0       0       0       0       0
       0       0       0       0       0       0       0       0       0       0
       0       0       0       0       0       0       0       0       0       0
       0       0       0       0       0       0       0       0       0       0
       0       0       0       0       0       0       0       0       0       0
       0       0       0       0       0       0       0       0       0       0
       0       0       0       0       0       0       0       0       0       0
       0       0       0       0       0       0       0       0       0       0
       0       0       0       0       0       0       0       0       0       0
       0       0       0       0       0       0       0       0       0       0
       0       0       0       0       0       0       0       0       0       0
       0       0       0       0       0       0       0       0       0       0
       0       0       0       0       0       0       0       0       0       0
       0       0       0       0       0       0       0       0       0       0
       0       0       0       0       0       0       0       0       0       0
       0       0       0       0       0       0       0       0       0       0
       0       0       0       0       0       0       0       0       0       0
       0       0       0       0       0       0       0       0       0       0
       0       0       0       0       0       0       0       0       0       0
       0       0       0       0       0       0       0       0       0       0
       0       0       0       0       0       0       0       0       0       0
       0       0       0       0       0       0       0       0       0       0
       0       0       0       0       0       0       0       0       0       0
       0       0       0       0       0       0       0       0       0       0
       0       0       0       0       0       0       0       0       0       0
       0       0       0       0       0       0       0       0       0       0
       0       0       0       0       0       0       0       0       0       0
       0       0       0       0       0       0       0       0       0       0
       0       0       0       0       0       0       0       0       0       0
       0       0       0       0       0       0       0       0       0       0
       0       0       0       0       0       0       0       0       0       0
       0       0       0       0       0       0       0       0       0       0
       0       0       0       0       0       0       0       0       0       0
       0       0       0       0       0       0       0       0       0       0
       0       0       0       0       0       0       0       0       0       0
       0       0       0       0       0       0       0       0       0       0
       0       0       0       0       0       0       0       0       0       0
       0       0       0       0       0       0       0       0       0       0
       0       0       0       0       0       0       0       0       0       0
       0       0       0       0       0       0       0       0       0       0
       0       0       0       0       0       0       0       0       0       0
       0       0       0       0       0       0       0       0       0       0
       0       0       0       0       0       0       0       0       0       0
       0       0       0       0       0       0       0       0       0       0
       0       0       0       0       0       0       0       0       0       0
       0       0       0       0       0       0       0       0       0       0
       0       0       0       0       0       0       0       0       0       0
       0       0       0       0       0       0       0       0       0       0
       0       0       0       0       0       0       0       0       0       0
       0       0       0       0       0       0       0       0       0       0
       0       0       0       0       0       0       0       0       0       0
       0       0       0       0       0       0       0       0       0       0
       0       0       0       0       0       0       0       0       0       0
       0       0       0       0       0       0       0       0       0       0
       0       0       0       0       0       0       0       0       0       0
       0       0       0       0       0       0       0       0       0       0
       0       0       0       0       0       0       0       0       0       0
       0       0       0       0       0       0       0       0       0       0
       0       0       0       0       0       0       0       0       0       0
       0       0       0       0       0       0       0       0       0       0
       0       0       0       0       0       0       0       0       0       0
       0       0       0       0       0       0       0       0       0       0
       0       0       0       0       0       0       0       0       0       0
       0       0       0       0       0       0       0       0       0       0
       0       0       0       0       0       0       0       0       0       0
       0       0       0       0       0       0       0       0       0       0
       0       0       0       0       0       0       0       0       0       0
       0       0       0       0       0       0       0       0       0       0
       0       0       0       0       0       0       0       0       0       0
       0       0       0       0       0       0       0       0       0       0
       0       0       0       0       0       0       0       0       0       0
       0       0       0       0       0       0       0       0       0       0
       0       0       0       0       0       0       0       0       0       0
       0       0       0       0       0       0       0       0       0       0
       0       0       0       0       0       0       0       0       0       0
       0       0       0       0       0       0       0       0       0       0
       0       0       0       0       0       0       0       0       0       0
       0       0       0       0       0       0       0       0       0       0
       0       0       0       0       0       0       0       0       0       0
       0       0       0       0       0       0       0       0       0       0
       0       0       0       0       0       0       0       0       0       0
       0       0       0       0       0       0       0       0       0       0
       0       0       0       0       0       0       0       0       0       0
       0       0       0       0       0       0       0       0       0       0
       0       0       0       0       0       0       0       0       0       0
       0       0       0       0       0       0       0       0       0       0
       0       0       0       0       0       0       0       0       0       0
       0       0       0       0       0       0       0       0       0       0
       0       0       0       0       0       0       0       0       0       0
       0       0       0       0       0       0       0       0       0       0
       0       0       0       0       0       0       0       0       0       0
       0       0       0       0       0       0       0       0       0       0
       0       0       0       0       0       0       0       0       0       0
       0       0       0       0       0       0       0       0       0       0
       0       0       0       0       0       0       0       0       0       0
       0       0       0       0       0       0       0       0       0       0
       0       0       0       0       0       0       0       0       0       0
       0       0       0       0       0       0       0       0       0       0
       0       0       0       0       0       0       0       0       0       0
       0       0       0       0       0       0       0       0       0       0
       0       0       0       0       0       0       0       0       0       0
       0       0       0       0       0       0       0       0       0       0
       0       0       0       0       0       0       0       0       0       0
       0       0       0       0       0       0       0       0       0       0
       0       0       0       0       0       0       0       0       0       0
       0       0       0       0       0       0       0       0       0       0
       0       0       0       0       0       0       0       0       0       0
       0       0       0       0       0       0       0       0       0       0
       0       0       0       0       0       0       0       0       0       0
       0       0       0       0       0       0       0       0       0       0
       0       0       0       0       0       0       0       0       0       0
       0       0       0       0       0       0       0       0       0       0
       0       0       0       0       0       0       0       0       0       0
       0       0       0       0       0       0       0       0       0       0
       0       0       0       0       0       0       0       0       0       0
       0       0       0       0       0       0       0       0       0       0
       0       0       0       0       0       0       0       0       0       0
       0       0       0       0       0       0       0       0       0       0
       0       0       0       0       0       0       0       0       0       0
       0       0       0       0       0       0       0       0       0       0
       0       0       0       0       0       0       0       0       0       0
       0       0       0       0       0       0       0       0       0       0
       0       0       0       0       0       0       0       0       0       0
       0       0       0       0       0       0       0       0       0       0
       0       0       0       0       0       0       0       0       0       0
       0       0       0       0       0       0       0       0       0       0
       0       0       0       0       0       0       0       0       0       0
       0       0       0       0       0       0       0       0       0       0
       0       0       0       0       0       0       0       0       0       0
       0       0       0       0       0       0       0       0       0       0
       0       0       0       0       0       0       0       0       0       0
       0       0       0       0       0       0       0       0       0       0
       0       0       0       0       0       0       0       0       0       0
       0       0       0       0       0       0       0       0       0       0
       0       0       0       0       0       0       0       0       0       0
       0       0       0       0       0       0       0       0       0       0
       0       0       0       0       0       0       0       0       0       0
       0       0       0       0       0       0       0       0       0       0
       0       0       0       0       0       0       0       0       0       0
       0       0       0       0       0       0       0       0       0       0
       0       0       0       0       0       0       0       0       0       0
       0       0       0       0       0       0       0       0       0       0
       0       0       0       0       0       0       0       0       0       0
       0       0       0       0       0       0       0       0       0       0
       0       0       0       0       0       0       0       0       0       0
       0       0       0       0       0       0       0       0       0       0
       0       0       0       0       0       0       0       0       0       0
       0       0       0       0       0       0       0       0       0       0
       0       0       0       0       0       0       0       0       0       0
       0       0       0       0       0       0       0       0       0       0
       0       0       0       0       0       0       0       0       0       0
       0       0       0       0       0       0       0       0       0       0
       0       0       0       0       0       0       0       0       0       0
       0       0       0       0       0       0       0       0       0       0
       0       0       0       0       0       0       0       0       0       0
       0       0       0       0       0       0       0       0       0       0
       0       0       0       0       0       0       0       0       0       0
       0       0       0       0       0       0       0       0       0       0
       0       0       0       0       0       0       0       0       0       0
       0       0       0       0       0       0       0       0       0       0
       0       0       0       0       0       0       0       0       0       0
       0       0       0       0       0       0       0       0       0       0
       0       0       0       0       0       0       0       0       0       0
       0       0       0       0       0       0       0       0       0       0
       0       0       0       0       0       0       0       0       0       0
       0       0       0       0       0       0       0       0       0       0
       0       0       0       0       0       0       0       0       0       0
       0       0       0       0       0       0       0       0       0       0
       0       0       0       0       0       0       0       0       0       0
       0       0       0       0       0       0       0       0       0       0
       0       0       0       0       0       0       0       0       0       0
       0       0       0       0       0       0       0       0       0       0
       0       0       0       0       0       0       0       0       0       0
       0       0       0       0       0       0       0       0       0       0
       0       0       0       0       0       0       0       0       0       0
       0       0       0       0       0       0       0       0       0       0
       0       0       0       0       0       0       0       0       0       0
       0       0       0       0       0       0       0       0       0       0
       0       0       0       0       0       0       0       0       0       0
       0       0       0       0       0       0       0       0       0       0
       0       0       0       0       0       0       0       0       0       0
       0       0       0       0       0       0       0       0       0       0
       0       0       0       0       0       0       0       0       0       0
       0       0       0       0       0       0       0       0       0       0
       0       0       0       0       0       0       0       0       0       0
       0       0       0       0       0       0       0       0       0       0
       0       0       0       0       0       0       0       0       0       0
       0       0       0       0       0       0       0       0       0       0
       0       0       0       0       0       0       0       0       0       0
       0       0       0       0       0       0       0       0       0       0
       0       0       0       0       0       0       0       0       0       0
       0       0       0       0       0       0       0       0       0       0
       0       0       0       0       0       0       0       0       0       0
       0       0       0       0       0       0       0       0       0       0
       0       0       0       0       0       0       0       0       0       0
       0       0       0       0       0       0       0       0       0       0
       0       0       0       0       0       0       0       0       0       0
       0       0       0       0       0       0       0       0       0       0
       0       0       0       0       0       0       0       0       0       0
       0       0       0       0       0       0       0       0       0       0
       0       0       0       0       0       0       0       0       0       0
       0       0       0       0       0       0       0       0       0       0
       0       0       0       0       0       0       0       0       0       0
       0       0       0       0       0       0       0       0       0       0
       0       0       0       0       0       0       0       0       0       0
       0       0       0       0       0       0       0       0       0       0
       0       0       0       0       0       0       0       0       0       0
       0       0       0       0       0       0       0       0       0       0
       0       0       0       0       0       0       0       0       0       0
       0       0       0       0       0       0       0       0       0       0
       0       0       0       0       0       0       0       0       0       0
       0       0       0       0       0       0       0       0       0       0
       0       0       0       0       0       0       0       0       0       0
       0       0       0       0       0       0       0       0       0       0
       0       0       0       0       0       0       0       0       0       0
       0       0       0       0       0       0       0       0       0       0
       0       0       0       0       0       0       0       0       0       0
       0       0       0       0       0       0       0       0       0       0
       0       0       0       0       0       0       0       0       0       0
       0       0       0       0       0       0       0       0       0       0
       0       0       0       0       0       0       0       0       0       0
       0       0       0       0       0       0       0       0       0       0
       0       0       0       0       0       0       0       0       0       0
       0       0       0       0       0       0       0       0       0       0
       0       0       0       0       0       0       0       0       0       0
       0       0       0       0       0       0       0       0       0       0
       0       0       0       0       0       0       0       0       0       0
       0       0       0       0       0       0       0       0       0       0
       0       0       0       0       0       0       0       0       0       0
       0       0       0       0       0       0       0       0       0       0
       0       0       0       0       0       0       0       0       0       0
       0       0       0       0       0       0       0       0       0       0
       0       0       0       0       0       0       0       0       0       0
       0       0       0       0       0       0       0       0       0       0
       0       0       0       0       0       0       0       0       0       0
       0       0       0       0       0       0       0       0       0       0
       0       0       0       0       0       0       0       0       0       0
       0       0       0       0       0       0       0       0       0       0
       0       0       0       0       0       0       0       0       0       0
       0       0       0       0       0       0       0       0       0       0
       0       0       0       0       0       0       0       0       0       0
       0       0       0       0       0       0       0       0       0       0
       0       0       0       0       0       0       0       0       0       0
       0       0       0       0       0       0       0       0       0       0
       0       0       0       0       0       0       0       0       0       0
       0       0       0       0       0       0       0       0       0       0
       0       0       0       0       0       0       0       0       0       0
       0       0       0       0       0       0       0       0       0       0
       0       0       0       0       0       0       0       0       0       0
       0       0       0       0       0       0       0       0       0       0
       0       0       0       0       0       0       0       0       0       0
       0       0       0       0       0       0       0       0       0       0
       0       0       0       0       0       0       0       0       0       0
       0       0       0       0       0       0       0       0       0       0
       0       0       0       0       0       0       0       0       0       0
       0       0       0       0       0       0       0       0       0       0
       0       0       0       0       0       0       0       0       0       0
       0       0       0       0       0       0       0       0       0       0
       0       0       0       0       0       0       0       0       0       0
       0       0       0       0       0       0       0       0       0       0
       0       0       0       0       0       0       0       0       0       0
       0       0       0       0       0       0       0       0       0       0
       0       0       0       0       0       0       0       0       0       0
       0       0       0       0       0       0       0       0       0       0
       0       0       0       0       0       0       0       0       0       0
       0       0       0       0       0       0       0       0       0       0
       0       0       0       0       0       0       0       0       0       0
       0       0       0       0       0       0       0       0       0       0
       0       0       0       0       0       0       0       0       0       0
       0       0       0       0       0       0       0       0       0       0
       0       0       0       0       0       0       0       0       0       0
       0       0       0       0       0       0       0       0       0       0
       0       0       0       0       0       0       0       0       0       0
       0       0       0       0       0       0       0       0       0       0
       0       0       0       0       0       0       0       0       0       0
       0       0       0       0       0       0       0       0       0       0
       0       0       0       0       0       0       0       0       0       0
       0       0       0       0       0       0       0       0       0       0
       0       0       0       0       0       0       0       0       0       0
       0       0       0       0       0       0       0       0       0       0
       0       0       0       0       0       0       0       0       0       0
       0       0       0       0       0       0       0       0       0       0
       0       0       0       0       0       0       0       0       0       0
       0       0       0       0       0       0       0       0       0       0
       0       0       0       0       0       0       0       0       0       0
       0       0       0       0       0       0       0       0       0       0
       0       0       0       0       0       0       0       0       0       0
       0       0       0       0       0       0       0       0       0       0
       0       0       0       0       0       0       0       0       0       0
       0       0       0       0       0       0       0       0       0       0
       0       0       0       0       0       0       0       0       0       0
       0       0       0       0       0       0       0       0       0       0
       0       0       0       0       0       0       0       0       0       0
       0       0       0       0       0       0       0       0       0       0
       0       0       0       0       0       0       0       0       0       0
       0       0       0       0       0       0       0       0       0       0
       0       0       0       0       0       0       0       0       0       0
       0       0       0       0       0       0       0       0       0       0
       0       0       0       0       0       0       0       0       0       0
       0       0       0       0       0       0       0       0       0       0
       0       0       0       0       0       0       0       0       0       0
       0       0       0       0       0       0       0       0       0       0
       0       0       0       0       0       0       0       0       0       0
       0       0       0       0       0       0       0       0       0       0
       0       0       0       0       0       0       0       0       0       0
       0       0       0       0       0       0       0       0       0       0
       0       0       0       0       0       0       0       0       0       0
       0       0       0       0       0       0       0       0       0       0
       0       0       0       0       0       0       0       0       0       0
       0       0       0       0       0       0       0       0       0       0
       0       0       0       0       0       0       0       0       0       0
       0       0       0       0       0       0       0       0       0       0
       0       0       0       0       0       0       0       0       0       0
       0       0       0       0       0       0       0       0       0       0
       0       0       0       0       0       0       0       0       0       0
       0       0       0       0       0       0       0       0       0       0
       0       0       0       0       0       0       0       0       0       0
       0       0       0       0       0       0       0       0       0       0
       0       0       0       0       0       0       0       0       0       0
       0       0       0       0       0       0       0       0       0       0
       0       0       0       0       0       0       0       0       0       0
       0       0       0       0       0       0       0       0       0       0
       0       0       0       0       0       0       0       0       0       0
       0       0       0       0       0       0       0       0       0       0
       0       0       0       0       0       0       0       0       0       0
       0       0       0       0       0       0       0       0       0       0
       0       0       0       0       0       0       0       0       0       0
       0       0       0       0       0       0       0       0       0       0
       0       0       0       0       0       0       0       0       0       0
       0       0       0       0       0       0       0       0       0       0
       0       0       0       0       0       0       0       0       0       0
       0       0       0       0       0       0       0       0       0       0
       0       0       0       0       0       0       0       0       0       0
       0       0       0       0       0       0       0       0       0       0
       0       0       0       0       0       0       0       0       0       0
       0       0       0       0       0       0       0       0       0       0
       0       0       0       0       0       0       0       0       0       0
       0       0       0       0       0       0       0       0       0       0
       0       0       0       0       0       0       0       0       0       0
       0       0       0       0       0       0       0       0       0       0
       0       0       0       0       0       0       0       0       0       0
       0       0       0       0       0       0       0       0       0       0
       0       0       0       0       0       0       0       0       0       0
       0       0       0       0       0       0       0       0       0       0
       0       0       0       0       0       0       0       0       0       0
       0       0       0       0       0       0       0       0       0       0
       0       0       0       0       0       0       0       0       0       0
       0       0       0       0       0       0       0       0       0       0
       0       0       0       0       0       0       0       0       0       0
       0       0       0       0       0       0       0       0       0       0
       0       0       0       0       0       0       0       0       0       0
       0       0       0       0       0       0       0       0       0       0
       0       0       0       0       0       0       0       0       0       0
       0       0       0       0       0       0       0       0       0       0
       0       0       0       0       0       0       0       0       0       0
       0       0       0       0       0       0       0       0       0       0
       0       0       0       0       0       0       0       0       0       0
       0       0       0       0       0       0       0       0       0       0
       0       0       0       0       0       0       0       0       0       0
       0       0       0       0       0       0       0       0       0       0
       0       0       0       0       0       0       0       0       0       0
       0       0       0       0       0       0       0       0       0       0
       0       0       0       0       0       0       0       0       0       0
       0       0       0       0       0       0       0       0       0       0
       0       0       0       0       0       0       0       0       0       0
       0       0       0       0       0       0       0       0       0       0
       0       0       0       0       0       0       0       0       0       0
       0       0       0       0       0       0       0       0       0       0
       0       0       0       0       0       0       0       0       0       0
       0       0       0       0       0       0       0       0       0       0
       0       0       0       0       0       0       0       0       0       0
       0       0       0       0       0       0       0       0       0       0
       0       0       0       0       0       0       0       0       0       0
       0       0       0       0       0       0       0       0       0       0
       0       0       0       0       0       0       0       0       0       0
       0       0       0       0       0       0       0       0       0       0
       0       0       0       0       0       0       0       0       0       0
       0       0       0       0       0       0       0       0       0       0
       0       0       0       0       0       0       0       0       0       0
       0       0       0       0       0       0       0       0       0       0
       0       0       0       0       0       0       0       0       0       0
       0       0       0       0       0       0       0       0       0       0
       0       0       0       0       0       0       0       0       0       0
       0       0       0       0       0       0       0       0       0       0
       0       0       0       0       0       0       0       0       0       0
       0       0       0       0       0       0       0       0       0       0
       0       0       0       0       0       0       0       0       0       0
       0       0       0       0       0       0       0       0       0       0
       0       0       0       0       0       0       0       0       0       0
       0       0       0       0       0       0       0       0       0       0
       0       0       0       0       0       0       0       0       0       0
       0       0       0       0       0       0       0       0       0       0
       0       0       0       0       0       0       0       0       0       0
       0       0       0       0       0       0       0       0       0       0
       0       0       0       0       0       0       0       0       0       0
       0       0       0       0       0       0       0       0       0       0
       0       0       0       0       0       0       0       0       0       0
       0       0       0       0       0       0       0       0       0       0
       0       0       0       0       0       0       0       0       0       0
       0       0       0       0       0       0       0       0       0       0
       0       0       0       0       0       0       0       0       0       0
       0       0       0       0       0       0       0       0       0       0
       0       0       0       0       0       0       0       0       0       0
       0       0       0       0       0       0       0       0       0       0
       0       0       0       0       0       0       0       0       0       0
       0       0       0       0       0       0       0       0       0       0
       0       0       0       0       0       0       0       0       0       0
       0       0       0       0       0       0       0       0       0       0
       0       0       0       0       0       0       0       0       0       0
       0       0       0       0       0       0       0       0       0       0
       0       0       0       0       0       0       0       0       0       0
       0       0       0       0       0       0       0       0       0       0
       0       0       0       0       0       0       0       0       0       0
       0       0       0       0       0       0       0       0       0       0
       0       0       0       0       0       0       0       0       0       0
       0       0       0       0       0       0       0       0       0       0
       0       0       0       0       0       0       0       0       0       0
       0       0       0       0       0       0       0       0       0       0
       0       0       0       0       0       0       0       0       0       0
       0       0       0       0       0       0       0       0       0       0
       0       0       0       0       0       0       0       0       0       0
       0       0       0       0       0       0       0       0       0       0
       0       0       0       0       0       0       0       0       0       0
       0       0       0       0       0       0       0       0       0       0
       0       0       0       0       0       0       0       0       0       0
       0       0       0       0       0       0       0       0       0       0
       0       0       0       0       0       0       0       0       0       0
       0       0       0       0       0       0       0       0       0       0
       0       0       0       0       0       0       0       0       0       0
       0       0       0       0       0       0       0       0       0       0
       0       0       0       0       0       0       0       0       0       0
       0       0       0       0       0       0       0       0       0       0
       0       0       0       0       0       0       0       0       0       0
       0       0       0       0       0       0       0       0       0       0
       0       0       0       0       0       0       0       0       0       0
       0       0       0       0       0       0       0       0       0       0
       0       0       0       0       0       0       0       0       0       0
       0       0       0       0       0       0       0       0       0       0
       0       0       0       0       0       0       0       0       0       0
       0       0       0       0       0       0       0       0       0       0
       0       0       0       0       0       0       0       0       0       0
       0       0       0       0       0       0       0       0       0       0
       0       0       0       0       0       0       0       0       0       0
       0       0       0       0       0       0       0       0       0       0
       0       0       0       0       0       0       0       0       0       0
       0       0       0       0       0       0       0       0       0       0
       0       0       0       0       0       0       0       0       0       0
       0       0       0       0       0       0       0       0       0       0
       0       0       0       0       0       0       0       0       0       0
       0       0       0       0       0       0       0       0       0       0
       0       0       0       0       0       0       0       0       0       0
       0       0       0       0       0       0       0       0       0       0
       0       0       0       0       0       0       0       0       0       0
       0       0       0       0       0       0       0       0       0       0
       0       0       0       0       0       0       0       0       0       0
       0       0       0       0       0       0       0       0       0       0
       0       0       0       0       0       0       0       0       0       0
       0       0       0       0       0       0       0       0       0       0
       0       0       0       0       0       0       0       0       0       0
       0       0       0       0       0       0       0       0       0       0
       0       0       0       0       0       0       0       0       0       0
       0       0       0       0       0       0       0       0       0       0
       0       0       0       0       0       0       0       0       0       0
       0       0       0       0       0       0       0       0       0       0
       0       0       0       0       0       0       0       0       0       0
       0       0       0       0       0       0       0       0       0       0
       0       0       0       0       0       0       0       0       0       0
       0       0       0       0       0       0       0       0       0       0
       0       0       0       0       0       0       0       0       0       0
       0       0       0       0       0       0       0       0       0       0
       0       0       0       0       0       0       0       0       0       0
       0       0       0       0       0       0       0       0       0       0
       0       0       0       0       0       0       0       0       0       0
       0       0       0       0       0       0       0       0       0       0
       0       0       0       0       0       0       0       0       0       0
       0       0       0       0       0       0       0       0       0       0
       0       0       0       0       0       0       0       0       0       0
       0       0       0       0       0       0       0       0       0       0
       0       0       0       0       0       0       0       0       0       0
       0       0       0       0       0       0       0       0       0       0
       0       0       0       0       0       0       0       0       0       0
       0       0       0       0       0       0       0       0       0       0
       0       0       0       0       0       0       0       0       0       0
       0       0       0       0       0       0       0       0       0       0
       0       0       0       0       0       0       0       0       0       0
       0       0       0       0       0       0       0       0       0       0
       0       0       0       0       0       0       0       0       0       0
       0       0       0       0       0       0       0       0       0       0
       0       0       0       0       0       0       0       0       0       0
       0       0       0       0       0       0       0       0       0       0
       0       0       0       0       0       0       0       0       0       0
       0       0       0       0       0       0       0       0       0       0
       0       0       0       0       0       0       0       0       0       0
       0       0       0       0       0       0       0       0       0       0
       0       0       0       0       0       0       0       0       0       0
       0       0       0       0       0       0       0       0       0       0
       0       0       0       0       0       0       0       0       0       0
       0       0       0       0       0       0       0       0       0       0
       0       0       0       0       0       0       0       0       0       0
       0       0       0       0       0       0       0       0       0       0
       0       0       0       0       0       0       0       0       0       0
       0       0       0       0       0       0       0       0       0       0
       0       0       0       0       0       0       0       0       0       0
       0       0       0       0       0       0       0       0       0       0
       0       0       0       0       0       0       0       0       0       0
       0       0       0       0       0       0       0       0       0       0
       0       0       0       0       0       0       0       0       0       0
       0       0       0       0       0       0       0       0       0       0
       0       0       0       0       0       0       0       0       0       0
       0       0       0       0       0       0       0       0       0       0
       0       0       0       0       0       0       0       0       0       0
       0       0       0       0       0       0       0       0       0       0
       0       0       0       0       0       0       0       0       0       0
       0       0       0       0       0       0       0       0       0       0
       0       0       0       0       0       0       0       0       0       0
       0       0       0       0       0       0       0       0       0       0
       0       0       0       0       0       0       0       0       0       0
       0       0       0       0       0       0       0       0       0       0
       0       0       0       0       0       0       0       0       0       0
       0       0       0       0       0       0       0       0       0       0
       0       0       0       0       0       0       0       0       0       0
       0       0       0       0       0       0       0       0       0       0
       0       0       0       0       0       0       0       0       0       0
       0       0       0       0       0       0       0       0       0       0
       0       0       0       0       0       0       0       0       0       0
       0       0       0       0       0       0       0       0       0       0
       0       0       0       0       0       0       0       0       0       0
       0       0       0       0       0       0       0       0       0       0
       0       0       0       0       0       0       0       0       0       0
       0       0       0       0       0       0       0       0       0       0
       0       0       0       0       0       0       0       0       0       0
       0       0       0       0       0       0       0       0       0       0
       0       0       0       0       0       0       0       0       0       0
       0       0       0       0       0       0       0       0       0       0
       0       0       0       0       0       0       0       0       0       0
       0       0       0       0       0       0       0       0       0       0
       0       0       0       0       0       0       0       0       0       0
       0       0       0       0       0       0       0       0       0       0
       0       0       0       0       0       0       0       0       0       0
       0       0       0       0       0       0       0       0       0       0
       0       0       0       0       0       0       0       0       0       0
       0       0       0       0       0       0       0       0       0       0
       0       0       0       0       0       0       0       0       0       0
       0       0       0       0       0       0       0       0       0       0
       0       0       0       0       0       0       0       0       0       0
       0       0       0       0       0       0       0       0       0       0
       0       0       0       0       0       0       0       0       0       0
       0       0       0       0       0       0       0       0       0       0
       0       0       0       0       0       0       0       0       0       0
       0       0       0       0       0       0       0       0       0       0
       0       0       0       0       0       0       0       0       0       0
       0       0       0       0       0       0       0       0       0       0
       0       0       0       0       0       0       0       0       0       0
       0       0       0       0       0       0       0       0       0       0
       0       0       0       0       0       0       0       0       0       0
       0       0       0       0       0       0       0       0       0       0
       0       0       0       0       0       0       0       0       0       0
       0       0       0       0       0       0       0       0       0       0
       0       0       0       0       0       0       0       0       0       0
       0       0       0       0       0       0       0       0       0       0
       0       0       0       0       0       0       0       0       0       0
       0       0       0       0       0       0       0       0       0       0
       0       0       0       0       0       0       0       0       0       0
       0       0       0       0       0       0       0       0       0       0
       0       0       0       0       0       0       0       0       0       0
       0       0       0       0       0       0       0       0       0       0
       0       0       0       0       0       0       0       0       0       0
       0       0       0       0       0       0       0       0       0       0
       0       0       0       0       0       0       0       0       0       0
       0       0       0       0       0       0       0       0       0       0
       0       0       0       0       0       0       0       0       0       0
       0       0       0       0       0       0       0       0       0       0
       0       0       0       0       0       0       0       0       0       0
       0       0       0       0       0       0       0       0       0       0
       0       0       0       0       0       0       0       0       0       0
       0       0       0       0       0       0       0       0       0       0
       0       0       0       0       0       0       0       0       0       0
       0       0       0       0       0       0       0       0       0       0
       0       0       0       0       0       0       0       0       0       0
       0       0       0       0       0       0       0       0       0       0
       0       0       0       0       0       0       0       0       0       0
       0       0       0       0       0       0       0       0       0       0
       0       0       0       0       0       0       0       0       0       0
       0       0       0       0       0       0       0       0       0       0
       0       0       0       0       0       0       0       0       0       0
       0       0       0       0       0       0       0       0       0       0
       0       0       0       0       0       0       0       0       0       0
       0       0       0       0       0       0       0       0       0       0
       0       0       0       0       0       0       0       0       0       0
       0       0       0       0       0       0       0       0       0       0
       0       0       0       0       0       0       0       0       0       0
       0       0       0       0       0       0       0       0       0       0
       0       0       0       0       0       0       0       0       0       0
       0       0       0       0       0       0       0       0       0       0
       0       0       0       0       0       0       0       0       0       0
       0       0       0       0       0       0       0       0       0       0
       0       0       0       0       0       0       0       0       0       0
       0       0       0       0       0       0       0       0       0       0
       0       0       0       0       0       0       0       0       0       0
       0       0       0       0       0       0       0       0       0       0
       0       0       0       0       0       0       0       0       0       0
       0       0       0       0       0       0       0       0       0       0
       0       0       0       0       0       0       0       0       0       0
       0       0       0       0       0       0       0       0       0       0
       0       0       0       0       0       0       0       0       0       0
       0       0       0       0       0       0       0       0       0       0
       0       0       0       0       0       0       0       0       0       0
       0       0       0       0       0       0       0       0       0       0
       0       0       0       0       0       0       0       0       0       0
       0       0       0       0       0       0       0       0       0       0
       0       0       0       0       0       0       0       0       0       0
       0       0       0       0       0       0       0       0       0       0
       0       0       0       0       0       0       0       0       0       0
       0       0       0       0       0       0       0       0       0       0
       0       0       0       0       0       0       0       0       0       0
       0       0       0       0       0       0       0       0       0       0
       0       0       0       0       0       0       0       0       0       0
       0       0       0       0       0       0       0       0       0       0
       0       0       0       0       0       0       0       0       0       0
       0       0       0       0       0       0       0       0       0       0
       0       0       0       0       0       0       0       0       0       0
       0       0       0       0       0       0       0       0       0       0
       0       0       0       0       0       0       0       0       0       0
       0       0       0       0       0       0       0       0       0       0
       0       0       0       0       0       0       0       0       0       0
       0       0       0       0       0       0       0       0       0       0
       0       0       0       0       0       0       0       0       0       0
       0       0       0       0       0       0       0       0       0       0
       0       0       0       0       0       0       0       0       0       0
       0       0       0       0       0       0       0       0       0       0
       0       0       0       0       0       0       0       0       0       0
       0       0       0       0       0       0       0       0       0       0
       0       0       0       0       0       0       0       0       0       0
       0       0       0       0       0       0       0       0       0       0
       0       0       0       0       0       0       0       0       0       0
       0       0       0       0       0       0       0       0       0       0
       0       0       0       0       0       0       0       0       0       0
       0       0       0       0       0       0       0       0       0       0
       0       0       0       0       0       0       0       0       0       0
       0       0       0       0       0       0       0       0       0       0
       0       0       0       0       0       0       0       0       0       0
       0       0       0       0       0       0       0       0       0       0
       0       0       0       0       0       0       0       0       0       0
       0       0       0       0       0       0       0       0       0       0
       0       0       0       0       0       0       0       0       0       0
       0       0       0       0       0       0       0       0       0       0
       0       0       0       0       0       0       0       0       0       0
       0       0       0       0       0       0       0       0       0       0
       0       0       0       0       0       0       0       0       0       0
       0       0       0       0       0       0       0       0       0       0
       0       0       0       0       0       0       0       0       0       0
       0       0       0       0       0       0       0       0       0       0
       0       0       0       0       0       0       0       0       0       0
       0       0       0       0       0       0       0       0       0       0
       0       0       0       0       0       0       0       0       0       0
       0       0       0       0       0       0       0       0       0       0
       0       0       0       0       0       0       0       0       0       0
       0       0       0       0       0       0       0       0       0       0
       0       0       0       0       0       0       0       0       0       0
       0       0       0       0       0       0       0       0       0       0
       0       0       0       0       0       0       0       0       0       0
       0       0       0       0       0       0       0       0       0       0
       0       0       0       0       0       0       0       0       0       0
       0       0       0       0       0       0       0       0       0       0
       0       0       0       0       0       0       0       0       0       0
       0       0       0       0       0       0       0       0       0       0
       0       0       0       0       0       0       0       0       0       0
       0       0       0       0       0       0       0       0       0       0
       0       0       0       0       0       0       0       0       0       0
       0       0       0       0       0       0       0       0       0       0
       0       0       0       0       0       0       0       0       0       0
       0       0       0       0       0       0       0       0       0       0
       0       0       0       0       0       0       0       0       0       0
       0       0       0       0       0       0       0       0       0       0
       0       0       0       0       0       0       0       0       0       0
       0       0       0       0       0       0       0       0       0       0
       0       0       0       0       0       0       0       0       0       0
       0       0       0       0       0       0       0       0       0       0
       0       0       0       0       0       0       0       0       0       0
       0       0       0       0       0       0       0       0       0       0
       0       0       0       0       0       0       0       0       0       0
       0       0       0       0       0       0       0       0       0       0
       0       0       0       0       0       0       0       0       0       0
       0       0       0       0       0       0       0       0       0       0
       0       0       0       0       0       0       0       0       0       0
       0       0       0       0       0       0       0       0       0       0
       0       0       0       0       0       0       0       0       0       0
       0       0       0       0       0       0       0       0       0       0
       0       0       0       0       0       0       0       0       0       0
       0       0       0       0       0       0       0       0       0       0
       0       0       0       0       0       0       0       0       0       0
       0       0       0       0       0       0       0       0       0       0
       0       0       0       0       0       0       0       0       0       0
       0       0       0       0       0       0       0       0       0       0
       0       0       0       0       0       0       0       0       0       0
       0       0       0       0       0       0       0       0       0       0
       0       0       0       0       0       0       0       0       0       0
       0       0       0       0       0       0       0       0       0       0
       0       0       0       0       0       0       0       0       0       0
       0       0       0       0       0       0       0       0       0       0
       0       0       0       0       0       0       0       0       0       0
       0       0       0       0       0       0       0       0       0       0
       0       0       0       0       0       0       0       0       0       0
       0       0       0       0       0       0       0       0       0       0
       0       0       0       0       0       0       0       0       0       0
       0       0       0       0       0       0       0       0       0       0
       0       0       0       0       0       0       0       0       0       0
       0       0       0       0       0       0       0       0       0       0
       0       0       0       0       0       0       0       0       0       0
       0       0       0       0       0       0       0       0       0       0
       0       0       0       0       0       0       0       0       0       0
       0       0       0       0       0       0       0       0       0       0
       0       0       0       0       0       0       0       0       0       0
       0       0       0       0       0       0       0       0       0       0
       0       0       0       0       0       0       0       0       0       0
       0       0       0       0       0       0       0       0       0       0
       0       0       0       0       0       0       0       0       0       0
       0       0       0       0       0       0       0       0       0       0
       0       0       0       0       0       0       0       0       0       0
       0       0       0       0       0       0       0       0       0       0
       0       0       0       0       0       0       0       0       0       0
       0       0       0       0       0       0       0       0       0       0
       0       0       0       0       0       0       0       0       0       0
       0       0       0       0       0       0       0       0       0       0
       0       0       0       0       0       0       0       0       0       0
       0       0       0       0       0       0       0       0       0       0
       0       0       0       0       0       0       0       0       0       0
       0       0       0       0       0       0       0       0       0       0
       0       0       0       0       0       0       0       0       0       0
       0       0       0       0       0       0       0       0       0       0
       0       0       0       0       0       0       0       0       0       0
       0       0       0       0       0       0       0       0       0       0
       0       0       0       0       0       0       0       0       0       0
       0       0       0       0       0       0       0       0       0       0
       0       0       0       0       0       0       0       0       0       0
       0       0       0       0       0       0       0       0       0       0
       0       0       0       0       0       0       0       0       0       0
       0       0       0       0       0       0       0       0       0       0
       0       0       0       0       0       0       0       0       0       0
       0       0       0       0       0       0       0       0       0       0
       0       0       0       0       0       0       0       0       0       0
       0       0       0       0       0       0       0       0       0       0
       0       0       0       0       0       0       0       0       0       0
       0       0       0       0       0       0       0       0       0       0
       0       0       0       0       0       0       0       0       0       0
       0       0       0       0       0       0       0       0       0       0
       0       0       0       0       0       0       0       0       0       0
       0       0       0       0       0       0       0       0       0       0
       0       0       0       0       0       0       0       0       0       0
       0       0       0       0       0       0       0       0       0       0
       0       0       0       0       0       0       0       0       0       0
       0       0       0       0       0       0       0       0       0       0
       0       0       0       0       0       0       0       0       0       0
       0       0       0       0       0       0       0       0       0       0
       0       0       0       0       0       0       0       0       0       0
       0       0       0       0       0       0       0       0       0       0
       0       0       0       0       0       0       0       0       0       0
       0       0       0       0       0       0       0       0       0       0
       0       0       0       0       0       0       0       0       0       0
       0       0       0       0       0       0       0       0       0       0
       0       0       0       0       0       0       0       0       0       0
       0       0       0       0       0       0       0       0       0       0
       0       0       0       0       0       0       0       0       0       0
       0       0       0       0       0       0       0       0       0       0
       0       0       0       0       0       0       0       0       0       0
       0       0       0       0       0       0       0       0       0       0
       0       0       0       0       0       0       0       0       0       0
       0       0       0       0       0       0       0       0       0       0
       0       0       0       0       0       0       0       0       0       0
       0       0       0       0       0       0       0       0       0       0
       0       0       0       0       0       0       0       0       0       0
       0       0       0       0       0       0       0       0       0       0
       0       0       0       0       0       0       0       0       0       0
       0       0       0       0       0       0       0       0       0       0
       0       0       0       0       0       0       0       0       0       0
       0       0       0       0       0       0       0       0       0       0
       0       0       0       0       0       0       0       0       0       0
       0       0       0       0       0       0       0       0       0       0
       0       0       0       0       0       0       0       0       0       0
       0       0       0       0       0       0       0       0       0       0
       0       0       0       0       0       0       0       0       0       0
       0       0       0       0       0       0       0       0       0       0
       0       0       0       0       0       0       0       0       0       0
       0       0       0       0       0       0       0       0       0       0
       0       0       0       0       0       0       0       0       0       0
       0       0       0       0       0       0       0       0       0       0
       0       0       0       0       0       0       0       0       0       0
       0       0       0       0       0       0       0       0       0       0
       0       0       0       0       0       0       0       0       0       0
       0       0       0       0       0       0       0       0       0       0
       0       0       0       0       0       0       0       0       0       0
       0       0       0       0       0       0       0       0       0       0
       0       0       0       0       0       0       0       0       0       0
       0       0       0       0       0       0       0       0       0       0
       0       0       0       0       0       0       0       0       0       0
       0       0       0       0       0       0       0       0       0       0
       0       0       0       0       0       0       0       0       0       0
       0       0       0       0       0       0       0       0       0       0
       0       0       0       0       0       0       0       0       0       0
       0       0       0       0       0       0       0       0       0       0
       0       0       0       0       0       0       0       0       0       0
       0       0       0       0       0       0       0       0       0       0
       0       0       0       0       0       0       0       0       0       0
       0       0       0       0       0       0       0       0       0       0
       0       0       0       0       0       0       0       0       0       0
       0       0       0       0       0       0       0       0       0       0
       0       0       0       0       0       0       0       0       0       0
       0       0       0       0       0       0       0       0       0       0
       0       0       0       0       0       0       0       0       0       0
       0       0       0       0       0       0       0       0       0       0
       0       0       0       0       0       0       0       0       0       0
       0       0       0       0       0       0       0       0       0       0
       0       0       0       0       0       0       0       0       0       0
       0       0       0       0       0       0       0       0       0       0
       0       0       0       0       0       0       0       0       0       0
       0       0       0       0       0       0       0       0       0       0
       0       0       0       0       0       0       0       0       0       0
       0       0       0       0       0       0       0       0       0       0
       0       0       0       0       0       0       0       0       0       0
       0       0       0       0       0       0       0       0       0       0
       0       0       0       0       0       0       0       0       0       0
       0       0       0       0       0       0       0       0       0       0
       0       0       0       0       0       0       0       0       0       0
       0       0       0       0       0       0       0       0       0       0
       0       0       0       0       0       0       0       0       0       0
       0       0       0       0       0       0       0       0       0       0
       0       0       0       0       0       0       0       0       0       0
       0       0       0       0       0       0       0       0       0       0
       0       0       0       0       0       0       0       0       0       0
       0       0       0       0       0       0       0       0       0       0
       0       0       0       0       0       0       0       0       0       0
       0       0       0       0       0       0       0       0       0       0
       0       0       0       0       0       0       0       0       0       0
       0       0       0       0       0       0       0       0       0       0
       0       0       0       0       0       0       0       0       0       0
       0       0       0       0       0       0       0       0       0       0
       0       0       0       0       0       0       0       0       0       0
       0       0       0       0       0       0       0       0       0       0
       0       0       0       0       0       0       0       0       0       0
       0       0       0       0       0       0       0       0       0       0
       0       0       0       0       0       0       0       0       0       0
       0       0       0       0       0       0       0       0       0       0
       0       0       0       0       0       0       0       0       0       0
       0       0       0       0       0       0       0       0       0       0
       0       0       0       0       0       0       0       0       0       0
       0       0       0       0       0       0       0       0       0       0
       0       0       0       0       0       0       0       0       0       0
       0       0       0       0       0       0       0       0       0       0
       0       0       0       0       0       0       0       0       0       0
       0       0       0       0       0       0       0       0       0       0
       0       0       0       0       0       0       0       0       0       0
       0       0       0       0       0       0       0       0       0       0
       0       0       0       0       0       0       0       0       0       0
       0       0       0       0       0       0       0       0       0       0
       0       0       0       0       0       0       0       0       0       0
       0       0       0       0       0       0       0       0       0       0
       0       0       0       0       0       0       0       0       0       0
       0       0       0       0       0       0       0       0       0       0
       0       0       0       0       0       0       0       0       0       0
       0       0       0       0       0       0       0       0       0       0
       0       0       0       0       0       0       0       0       0       0
       0       0       0       0       0       0       0       0       0       0
       0       0       0       0       0       0       0       0       0       0
       0       0       0       0       0       0       0       0       0       0
       0       0       0       0       0       0       0       0       0       0
       0       0       0       0       0       0       0       0       0       0
       0       0       0       0       0       0       0       0       0       0
       0       0       0       0       0       0       0       0       0       0
       0       0       0       0       0       0       0       0       0       0
       0       0       0       0       0       0       0       0       0       0
       0       0       0       0       0       0       0       0       0       0
       0       0       0       0       0       0       0       0       0       0
       0       0       0       0       0       0       0       0       0       0
       0       0       0       0       0       0       0       0       0       0
       0       0       0       0       0       0       0       0       0       0
       0       0       0       0       0       0       0       0       0       0
       0       0       0       0       0       0       0       0       0       0
       0       0       0       0       0       0       0       0       0       0
       0       0       0       0       0       0       0       0       0       0
       0       0       0       0       0       0       0       0       0       0
       0       0       0       0       0       0       0       0       0       0
       0       0       0       0       0       0       0       0       0       0
       0       0       0       0       0       0       0       0       0       0
       0       0       0       0       0       0       0       0       0       0
       0       0       0       0       0       0       0       0       0       0
       0       0       0       0       0       0       0       0       0       0
       0       0       0       0       0       0       0       0       0       0
       0       0       0       0       0       0       0       0       0       0
       0       0       0       0       0       0       0       0       0       0
       0       0       0       0       0       0       0       0       0       0
       0       0       0       0       0       0       0       0       0       0
       0       0       0       0       0       0       0       0       0       0
       0       0       0       0       0       0       0       0       0       0
       0       0       0       0       0       0       0       0       0       0
       0       0       0       0       0       0       0       0       0       0
       0       0       0       0       0       0       0       0       0       0
       0       0       0       0       0       0       0       0       0       0
       0       0       0       0       0       0       0       0       0       0
       0       0       0       0       0       0       0       0       0       0
       0       0       0       0       0       0       0       0       0       0
       0       0       0       0       0       0       0       0       0       0
       0       0       0       0       0       0       0       0       0       0
       0       0       0       0       0       0       0       0       0       0
       0       0       0       0       0       0       0       0       0       0
       0       0       0       0       0       0       0       0       0       0
       0       0       0       0       0       0       0       0       0       0
       0       0       0       0       0       0       0       0       0       0
       0       0       0       0       0       0       0       0       0       0
       0       0       0       0       0       0       0       0       0       0
       0       0       0       0       0       0       0       0       0       0
       0       0       0       0       0       0       0       0       0       0
       0       0       0       0       0       0       0       0       0       0
       0       0       0       0       0       0       0       0       0       0
       0       0       0       0       0       0       0       0       0       0
       0       0       0       0       0       0       0       0       0       0
       0       0       0       0       0       0       0       0       0       0
       0       0       0       0       0       0       0       0       0       0
       0       0       0       0       0       0       0       0       0       0
       0       0       0       0       0       0       0       0       0       0
       0       0       0       0       0       0       0       0       0       0
       0       0       0       0       0       0       0       0       0       0
       0       0       0       0       0       0       0       0       0       0
       0       0       0       0       0       0       0       0       0       0
       0       0       0       0       0       0       0       0       0       0
       0       0       0       0       0       0       0       0       0       0
       0       0       0       0       0       0       0       0       0       0
       0       0       0       0       0       0       0       0       0       0
       0       0       0       0       0       0       0       0       0       0
       0       0       0       0       0       0       0       0       0       0
       0       0       0       0       0       0       0       0       0       0
       0       0       0       0       0       0       0       0       0       0
       0       0       0       0       0       0       0       0       0       0
       0       0       0       0       0       0       0       0       0       0
       0       0       0       0       0       0       0       0       0       0
       0       0       0       0       0       0       0       0       0       0
       0       0       0       0       0       0       0       0       0       0
       0       0       0       0       0       0       0       0       0       0
       0       0       0       0       0       0       0       0       0       0
       0       0       0       0       0       0       0       0       0       0
       0       0       0       0       0       0       0       0       0       0
       0       0       0       0       0       0       0       0       0       0
       0       0       0       0       0       0       0       0       0       0
       0       0       0       0       0       0       0       0       0       0
       0       0       0       0       0       0       0       0       0       0
       0       0       0       0       0       0       0       0       0       0
       0       0       0       0       0       0       0       0       0       0
       0       0       0       0       0       0       0       0       0       0
       0       0       0       0       0       0       0       0       0       0
       0       0       0       0       0       0       0       0       0       0
       0       0       0       0       0       0       0       0       0       0
       0       0       0       0       0       0       0       0       0       0
       0       0       0       0       0       0       0       0       0       0
       0       0       0       0       0       0       0       0       0       0
       0       0       0       0       0       0       0       0       0       0
       0       0       0       0       0       0       0       0       0       0
       0       0       0       0       0       0       0       0       0       0
       0       0       0       0       0       0       0       0       0       0
       0       0       0       0       0       0       0       0       0       0
       0       0       0       0       0       0       0       0       0       0
       0       0       0       0       0       0       0       0       0       0
       0       0       0       0       0       0       0       0       0       0
       0       0       0       0       0       0       0       0       0       0
       0       0       0       0       0       0       0       0       0       0
       0       0       0       0       0       0       0       0       0       0
       0       0       0       0       0       0       0       0       0       0
       0       0       0       0       0       0       0       0       0       0
       0       0       0       0       0       0       0       0       0       0
       0       0       0       0       0       0       0       0       0       0
       0       0       0       0       0       0       0       0       0       0
       0       0       0       0       0       0       0       0       0       0
       0       0       0       0       0       0       0       0       0       0
       0       0       0       0       0       0       0       0       0       0
       0       0       0       0       0       0       0       0       0       0
       0       0       0       0       0       0       0       0       0       0
       0       0       0       0       0       0       0       0       0       0
       0       0       0       0       0       0       0       0       0       0
       0       0       0       0       0       0       0       0       0       0
       0       0       0       0       0       0       0       0       0       0
       0       0       0       0       0       0       0       0       0       0
       0       0       0       0       0       0       0       0       0       0
       0       0       0       0       0       0       0       0       0       0
       0       0       0       0       0       0       0       0       0       0
       0       0       0       0       0       0       0       0       0       0
       0       0       0       0       0       0       0       0       0       0
       0       0       0       0       0       0       0       0       0       0
       0       0       0       0       0       0       0       0       0       0
       0       0       0       0       0       0       0       0       0       0
       0       0       0       0       0       0       0       0       0       0
       0       0       0       0       0       0       0       0       0       0
       0       0       0       0       0       0       0       0       0       0
       0       0       0       0       0       0       0       0       0       0
       0       0       0       0       0       0       0       0       0       0
       0       0       0       0       0       0       0       0       0       0
       0       0       0       0       0       0       0       0       0       0
       0       0       0       0       0       0       0       0       0       0
       0       0       0       0       0       0       0       0       0       0
       0       0       0       0       0       0       0       0       0       0
       0       0       0       0       0       0       0       0       0       0
       0       0       0       0       0       0       0       0       0       0
       0       0       0       0       0       0       0       0       0       0
       0       0       0       0       0       0       0       0       0       0
       0       0       0       0       0       0       0       0       0       0
       0       0       0       0       0       0       0       0       0       0
       0       0       0       0       0       0       0       0       0       0
       0       0       0       0       0       0       0       0       0       0
       0       0       0       0       0       0       0       0       0       0
       0       0       0       0       0       0       0       0       0       0
       0       0       0       0       0       0       0       0       0       0
       0       0       0       0       0       0       0       0       0       0
       0       0       0       0       0       0       0       0       0       0
       0       0       0       0       0       0       0       0       0       0
       0       0       0       0       0       0       0       0       0       0
       0       0       0       0       0       0       0       0       0       0
       0       0       0       0       0       0       0       0       0       0
       0       0       0       0       0       0       0       0       0       0
       0       0       0       0       0       0       0       0       0       0
       0       0       0       0       0       0       0       0       0       0
       0       0       0       0       0       0       0       0       0       0
       0       0       0       0       0       0       0       0       0       0
       0       0       0       0       0       0       0       0       0       0
       0       0       0       0       0       0       0       0       0       0
       0       0       0       0       0       0       0       0       0       0
       0       0       0       0       0       0       0       0       0       0
       0       0       0       0       0       0       0       0       0       0
       0       0       0       0       0       0       0       0       0       0
       0       0       0       0       0       0       0       0       0       0
       0       0       0       0       0       0       0       0       0       0
       0       0       0       0       0       0       0       0       0       0
       0       0       0       0       0       0       0       0       0       0
       0       0       0       0       0       0       0       0       0       0
       0       0       0       0       0       0       0       0       0       0
       0       0       0       0       0       0       0       0       0       0
       0       0       0       0       0       0       0       0       0       0
       0       0       0       0       0       0       0       0       0       0
       0       0       0       0       0       0       0       0       0       0
       0       0       0       0       0       0       0       0       0       0
       0       0       0       0       0       0       0       0       0       0
       0       0       0       0       0       0       0       0       0       0
       0       0       0       0       0       0       0       0       0       0
       0       0       0       0       0       0       0       0       0       0
       0       0       0       0       0       0       0       0       0       0
       0       0       0       0       0       0       0       0       0       0
       0       0       0       0       0       0       0       0       0       0
       0       0       0       0       0       0       0       0       0       0
       0       0       0       0       0       0       0       0       0       0
       0       0       0       0       0       0       0       0       0       0
       0       0       0       0       0       0       0       0       0       0
       0       0       0       0       0       0       0       0       0       0
       0       0       0       0       0       0       0       0       0       0
       0       0       0       0       0       0       0       0       0       0
       0       0       0       0       0       0       0       0       0       0
       0       0       0       0       0       0       0       0       0       0
       0       0       0       0       0       0       0       0       0       0
       0       0       0       0       0       0       0       0       0       0
       0       0       0       0       0       0       0       0       0       0
       0       0       0       0       0       0       0       0       0       0
       0       0       0       0       0       0       0       0       0       0
       0       0       0       0       0       0       0       0       0       0
       0       0       0       0       0       0       0       0       0       0
       0       0       0       0       0       0       0       0       0       0
       0       0       0       0       0       0       0       0       0       0
       0       0       0       0       0       0       0       0       0       0
       0       0       0       0       0       0       0       0       0       0
       0       0       0       0       0       0       0       0       0       0
       0       0       0       0       0       0       0       0       0       0
       0       0       0       0       0       0       0       0       0       0
       0       0       0       0       0       0       0       0       0       0
       0       0       0       0       0       0       0       0       0       0
       0       0       0       0       0       0       0       0       0       0
       0       0       0       0       0       0       0       0       0       0
       0       0       0       0       0       0       0       0       0       0
       0       0       0       0       0       0       0       0       0       0
       0       0       0       0       0       0       0       0       0       0
       0       0       0       0       0       0       0       0       0       0
       0       0       0       0       0       0       0       0       0       0
       0       0       0       0       0       0       0       0       0       0
       0       0       0       0       0       0       0       0       0       0
       0       0       0       0       0       0       0       0       0       0
       0       0       0       0       0       0       0       0       0       0
       0       0       0       0       0       0       0       0       0       0
       0       0       0       0       0       0       0       0       0       0
       0       0       0       0       0       0       0       0       0       0
       0       0       0       0       0       0       0       0       0       0
       0       0       0       0       0       0       0       0       0       0
       0       0       0       0       0       0       0       0       0       0
       0       0       0       0       0       0       0       0       0       0
       0       0       0       0       0       0       0       0       0       0
       0       0       0       0       0       0       0       0       0       0
       0       0       0       0       0       0       0       0       0       0
       0       0       0       0       0       0       0       0       0       0
       0       0       0       0       0       0       0       0       0       0
       0       0       0       0       0       0       0       0       0       0
       0       0       0       0       0       0       0       0       0       0
       0       0       0       0       0       0       0       0       0       0
       0       0       0       0       0       0       0       0       0       0
       0       0       0       0       0       0       0       0       0       0
       0       0       0       0       0       0       0       0       0       0
       0       0       0       0       0       0       0       0       0       0
       0       0       0       0       0       0       0       0       0       0
       0       0       0       0       0       0       0       0       0       0
       0       0       0       0       0       0       0       0       0       0
       0       0       0       0       0       0       0       0       0       0
       0       0       0       0       0       0       0       0       0       0
       0       0       0       0       0       0       0       0       0       0
       0       0       0       0       0       0       0       0       0       0
       0       0       0       0       0       0       0       0       0       0
       0       0       0       0       0       0       0       0       0       0
       0       0       0       0       0       0       0       0       0       0
       0       0       0       0       0       0       0       0       0       0
       0       0       0       0       0       0       0       0       0       0
       0       0       0       0       0       0       0       0       0       0
       0       0       0       0       0       0       0       0       0       0
       0       0       0       0       0       0       0       0       0       0
       0       0       0       0       0       0       0       0       0       0
       0       0       0       0       0       0       0       0       0       0
       0       0       0       0       0       0       0       0       0       0
       0       0       0       0       0       0       0       0       0       0
       0       0       0       0       0       0       0       0       0       0
       0       0       0       0       0       0       0       0       0       0
       0       0       0       0       0       0       0       0       0       0
       0       0       0       0       0       0       0       0       0       0
       0       0       0       0       0       0       0       0       0       0
       0       0       0       0       0       0       0       0       0       0
       0       0       0       0       0       0       0       0       0       0
       0       0       0       0       0       0       0       0       0       0
       0       0       0       0       0       0       0       0       0       0
       0       0       0       0       0       0       0       0       0       0
       0       0       0       0       0       0       0       0       0       0
       0       0       0       0       0       0       0       0       0       0
       0       0       0       0       0       0       0       0       0       0
       0       0       0       0       0       0       0       0       0       0
       0       0       0       0       0       0       0       0       0       0
       0       0       0       0       0       0       0       0       0       0
       0       0       0       0       0       0       0       0       0       0
       0       0       0       0       0       0       0       0       0       0
       0       0       0       0       0       0       0       0       0       0
       0       0       0       0       0       0       0       0       0       0
       0       0       0       0       0       0       0       0       0       0
       0       0       0       0       0       0       0       0       0       0
       0       0       0       0       0       0       0       0       0       0
       0       0       0       0       0       0       0       0       0       0
       0       0       0       0       0       0       0       0       0       0
       0       0       0       0       0       0       0       0       0       0
       0       0       0       0       0       0       0       0       0       0
       0       0       0       0       0       0       0       0       0       0
       0       0       0       0       0       0       0       0       0       0
       0       0       0       0       0       0       0       0       0       0
       0       0       0       0       0       0       0       0       0       0
       0       0       0       0       0       0       0       0       0       0
       0       0       0       0       0       0       0       0       0       0
       0       0       0       0       0       0       0       0       0       0
       0       0       0       0       0       0       0       0       0       0
       0       0       0       0       0       0       0       0       0       0
       0       0       0       0       0       0       0       0       0       0
       0       0       0       0       0       0       0       0       0       0
       0       0       0       0       0       0       0       0       0       0
       0       0       0       0       0       0       0       0       0       0
       0       0       0       0       0       0       0       0       0       0
       0       0       0       0       0       0       0       0       0       0
       0       0       0       0       0       0       0       0       0       0
       0       0       0       0       0       0       0       0       0       0
       0       0       0       0       0       0       0       0       0       0
       0       0       0       0       0       0       0       0       0       0
       0       0       0       0       0       0       0       0       0       0
       0       0       0       0       0       0       0       0       0       0
       0       0       0       0       0       0       0       0       0       0
       0       0       0       0       0       0       0       0       0       0
       0       0       0       0       0       0       0       0       0       0
       0       0       0       0       0       0       0       0       0       0
       0       0       0       0       0       0       0       0       0       0
       0       0       0       0       0       0       0       0       0       0
       0       0       0       0       0       0       0       0       0       0
       0       0       0       0       0       0       0       0       0       0
       0       0       0       0       0       0       0       0       0       0
       0       0       0       0       0       0       0       0       0       0
       0       0       0       0       0       0       0       0       0       0
       0       0       0       0       0       0       0       0       0       0
       0       0       0       0       0       0       0       0       0       0
       0       0       0       0       0       0       0       0       0       0
       0       0       0       0       0       0       0       0       0       0
       0       0       0       0       0       0       0       0       0       0
       0       0       0       0       0       0       0       0       0       0
       0       0       0       0       0       0       0       0       0       0
       0       0       0       0       0       0       0       0       0       0
       0       0       0       0       0       0       0       0       0       0
       0       0       0       0       0       0       0       0       0       0
       0       0       0       0       0       0       0       0       0       0
       0       0       0       0       0       0       0       0       0       0
       0       0       0       0       0       0       0       0       0       0
       0       0       0       0       0       0       0       0       0       0
       0       0       0       0       0       0       0       0       0       0
       0       0       0       0       0       0       0       0       0       0
       0       0       0       0       0       0       0       0       0       0
       0       0       0       0       0       0       0       0       0       0
       0       0       0       0       0       0       0       0       0       0
       0       0       0       0       0       0       0       0       0       0
       0       0       0       0       0       0       0       0       0       0
       0       0       0       0       0       0       0       0       0       0
       0       0       0       0       0       0       0       0       0       0
       0       0       0       0       0       0       0       0       0       0
       0       0       0       0       0       0       0       0       0       0
       0       0       0       0       0       0       0       0       0       0
       0       0       0       0       0       0       0       0       0       0
       0       0       0       0       0       0       0       0       0       0
       0       0       0       0       0       0       0       0       0       0
       0       0       0       0       0       0       0       0       0       0
       0       0       0       0       0       0       0       0       0       0
       0       0       0       0       0       0       0       0       0       0
       0       0       0       0       0       0       0       0       0       0
       0       0       0       0       0       0       0       0       0       0
       0       0       0       0       0       0       0       0       0       0
       0       0       0       0       0       0       0       0       0       0
       0       0       0       0       0       0       0       0       0       0
       0       0       0       0       0       0       0       0       0       0
       0       0       0       0       0       0       0       0       0       0
       0       0       0       0       0       0       0       0       0       0
       0       0       0       0       0       0       0       0       0       0
       0       0       0       0       0       0       0       0       0       0
       0       0       0       0       0       0       0       0       0       0
       0       0       0       0       0       0       0       0       0       0
       0       0       0       0       0       0       0       0       0       0
       0       0       0       0       0       0       0       0       0       0
       0       0       0       0       0       0       0       0       0       0
       0       0       0       0       0       0       0       0       0       0
       0       0       0       0       0       0       0       0       0       0
       0       0       0       0       0       0       0       0       0       0
       0       0       0       0       0       0       0       0       0       0
       0       0       0       0       0       0       0       0       0       0
       0       0       0       0       0       0       0       0       0       0
       0       0       0       0       0       0       0       0       0       0
       0       0       0       0       0       0       0       0       0       0
       0       0       0       0       0       0       0       0       0       0
       0       0       0       0       0       0       0       0       0       0
       0       0       0       0       0       0       0       0       0       0
       0       0       0       0       0       0       0       0       0       0
       0       0       0       0       0       0       0       0       0       0
       0       0       0       0       0       0       0       0       0       0
       0       0       0       0       0       0       0       0       0       0
       0       0       0       0       0       0       0       0       0       0
       0       0       0       0       0       0       0       0       0       0
       0       0       0       0       0       0       0       0       0       0
       0       0       0       0       0       0       0       0       0       0
       0       0       0       0       0       0       0       0       0       0
       0       0       0       0       0       0       0       0       0       0
       0       0       0       0       0       0       0       0       0       0
       0       0       0       0       0       0       0       0       0       0
       0       0       0       0       0       0       0       0       0       0
       0       0       0       0       0       0       0       0       0       0
       0       0       0       0       0       0       0       0       0       0
       0       0       0       0       0       0       0       0       0       0
       0       0       0       0       0       0       0       0       0       0
       0       0       0       0       0       0       0       0       0       0
       0       0       0       0       0       0       0       0       0       0
       0       0       0       0       0       0       0       0       0       0
       0       0       0       0       0       0       0       0       0       0
       0       0       0       0       0       0       0       0       0       0
       0       0       0       0       0       0       0       0       0       0
       0       0       0       0       0       0       0       0       0       0
       0       0       0       0       0       0       0       0       0       0
       0       0       0       0       0       0       0       0       0       0
       0       0       0       0       0       0       0       0       0       0
       0       0       0       0       0       0       0       0       0       0
       0       0       0       0       0       0       0       0       0       0
       0       0       0       0       0       0       0       0       0       0
       0       0       0       0       0       0       0       0       0       0
       0       0       0       0       0       0       0       0       0       0
       0       0       0       0       0       0       0       0       0       0
       0       0       0       0       0       0       0       0       0       0
       0       0       0       0       0       0       0       0       0       0
       0       0       0       0       0       0       0       0       0       0
       0       0       0       0       0       0       0       0       0       0
       0       0       0       0       0       0       0       0       0       0
       0       0       0       0       0       0       0       0       0       0
       0       0       0       0       0       0       0       0       0       0
       0       0       0       0       0       0       0       0       0       0
       0       0       0       0       0       0       0       0       0       0
       0       0       0       0       0       0       0       0       0       0
       0       0       0       0       0       0       0       0       0       0
       0       0       0       0       0       0       0       0       0       0
       0       0       0       0       0       0       0       0       0       0
       0       0       0       0       0       0       0       0       0       0
       0       0       0       0       0       0       0       0       0       0
       0       0       0       0       0       0       0       0       0       0
       0       0       0       0       0       0       0       0       0       0
       0       0       0       0       0       0       0       0       0       0
       0       0       0       0       0       0       0       0       0       0
       0       0       0       0       0       0       0       0       0       0
       0       0       0       0       0       0       0       0       0       0
       0       0       0       0       0       0       0       0       0       0
       0       0       0       0       0       0       0       0       0       0
       0       0       0       0       0       0       0       0       0       0
       0       0       0       0       0       0       0       0       0       0
       0       0       0       0       0       0       0       0       0       0
       0       0       0       0       0       0       0       0       0       0
       0       0       0       0       0       0       0       0       0       0
       0       0       0       0       0       0       0       0       0       0
       0       0       0       0       0       0       0       0       0       0
       0       0       0       0       0       0       0       0       0       0
       0       0       0       0       0       0       0       0       0       0
       0       0       0       0       0       0       0       0       0       0
       0       0       0       0       0       0       0       0       0       0
       0       0       0       0       0       0       0       0       0       0
       0       0       0       0       0       0       0       0       0       0
       0       0       0       0       0       0       0       0       0       0
       0       0       0       0       0       0       0       0       0       0
       0       0       0       0       0       0       0       0       0       0
       0       0       0       0       0       0       0       0       0       0
       0       0       0       0       0       0       0       0       0       0
       0       0       0       0       0       0       0       0       0       0
       0       0       0       0       0       0       0       0       0       0
       0       0       0       0       0       0       0       0       0       0
       0       0       0       0       0       0       0       0       0       0
       0       0       0       0       0       0       0       0       0       0
       0       0       0       0       0       0       0       0       0       0
       0       0       0       0       0       0       0       0       0       0
       0       0       0       0       0       0       0       0       0       0
       0       0       0       0       0       0       0       0       0       0
       0       0       0       0       0       0       0       0       0       0
       0       0       0       0       0       0       0       0       0       0
       0       0       0       0       0       0       0       0       0       0
       0       0       0       0       0       0       0       0       0       0
       0       0       0       0       0       0       0       0       0       0
       0       0       0       0       0       0       0       0       0       0
       0       0       0       0       0       0       0       0       0       0
       0       0       0       0       0       0       0       0       0       0
       0       0       0       0       0       0       0       0       0       0
       0       0       0       0       0       0       0       0       0       0
       0       0       0       0       0       0       0       0       0       0
       0       0       0       0       0       0       0       0       0       0
       0       0       0       0       0       0       0       0       0       0
       0       0       0       0       0       0       0       0       0       0
       0       0       0       0       0       0       0       0       0       0
       0       0       0       0       0       0       0       0       0       0
       0       0       0       0       0       0       0       0       0       0
       0       0       0       0       0       0       0       0       0       0
       0       0       0       0       0       0       0       0       0       0
       0       0       0       0       0       0       0       0       0       0
       0       0       0       0       0       0       0       0       0       0
       0       0       0       0       0       0       0       0       0       0
       0       0       0       0       0       0       0       0       0       0
       0       0       0       0       0       0       0       0       0       0
       0       0       0       0       0       0       0       0       0       0
       0       0       0       0       0       0       0       0       0       0
       0       0       0       0       0       0       0       0       0       0
       0       0       0       0       0       0       0       0       0       0
       0       0       0       0       0       0       0       0       0       0
       0       0       0       0       0       0       0       0       0       0
       0       0       0       0       0       0       0       0       0       0
       0       0       0       0       0       0       0       0       0       0
       0       0       0       0       0       0       0       0       0       0
       0       0       0       0       0       0       0       0       0       0
       0       0       0       0       0       0       0       0       0       0
       0       0       0       0       0       0       0       0       0       0
       0       0       0       0       0       0       0       0       0       0
       0       0       0       0       0       0       0       0       0       0
       0       0       0       0       0       0       0       0       0       0
       0       0       0       0       0       0       0       0       0       0
       0       0       0       0       0       0       0       0       0       0
       0       0       0       0       0       0       0       0       0       0
       0       0       0       0       0       0       0       0       0       0
       0       0       0       0       0       0       0       0       0       0
       0       0       0       0       0       0       0       0       0       0
       0       0       0       0       0       0       0       0       0       0
       0       0       0       0       0       0       0       0       0       0
       0       0       0       0       0       0       0       0       0       0
       0       0       0       0       0       0       0       0       0       0
       0       0       0       0       0       0       0       0       0       0
       0       0       0       0       0       0       0       0       0       0
       0       0       0       0       0       0       0       0       0       0
       0       0       0       0       0       0       0       0       0       0
       0       0       0       0       0       0       0       0       0       0
       0       0       0       0       0       0       0       0       0       0
       0       0       0       0       0       0       0       0       0       0
       0       0       0       0       0       0       0       0       0       0
       0       0       0       0       0       0       0       0       0       0
       0       0       0       0       0       0       0       0       0       0
       0       0       0       0       0       0       0       0       0       0
       0       0       0       0       0       0       0       0       0       0
       0       0       0       0       0       0       0       0       0       0
       0       0       0       0       0       0       0       0       0       0
       0       0       0       0       0       0       0       0       0       0
       0       0       0       0       0       0       0       0       0       0
       0       0       0       0       0       0       0       0       0       0
       0       0       0       0       0       0       0       0       0       0
       0       0       0       0       0       0       0       0       0       0
       0       0       0       0       0       0       0       0       0       0
       0       0       0       0       0       0       0       0       0       0
       0       0       0       0       0       0       0       0       0       0
       0       0       0       0       0       0       0       0       0       0
       0       0       0       0       0       0       0       0       0       0
       0       0       0       0       0       0       0       0       0       0
       0       0       0       0       0       0       0       0       0       0
       0       0       0       0       0       0       0       0       0       0
       0       0       0       0       0       0       0       0       0       0
       0       0       0       0       0       0       0       0       0       0
       0       0       0       0       0       0       0       0       0       0
       0       0       0       0       0       0       0       0       0       0
       0       0       0       0       0       0       0       0       0       0
       0       0       0       0       0       0       0       0       0       0
       0       0       0       0       0       0       0       0       0       0
       0       0       0       0       0       0       0       0       0       0
       0       0       0       0       0       0       0       0       0       0
       0       0       0       0       0       0       0       0       0       0
       0       0       0       0       0       0       0       0       0       0
       0       0       0       0       0       0       0       0       0       0
       0       0       0       0       0       0       0       0       0       0
       0       0       0       0       0       0       0       0       0       0
       0       0       0       0       0       0       0       0       0       0
       0       0       0       0       0       0       0       0       0       0
       0       0       0       0       0       0       0       0       0       0
       0       0       0       0       0       0       0       0       0       0
       0       0       0       0       0       0       0       0       0       0
       0       0       0       0       0       0       0       0       0       0
       0       0       0       0       0       0       0       0       0       0
       0       0       0       0       0       0       0       0       0       0
       0       0       0       0       0       0       0       0       0       0
       0       0       0       0       0       0       0       0       0       0
       0       0       0       0       0       0       0       0       0       0
       0       0       0       0       0       0       0       0       0       0
       0       0       0       0       0       0       0       0       0       0
       0       0       0       0       0       0       0       0       0       0
       0       0       0       0       0       0       0       0       0       0
       0       0       0       0       0       0       0       0       0       0
       0       0       0       0       0       0       0       0       0       0
       0       0       0       0       0       0       0       0       0       0
       0       0       0       0       0       0       0       0       0       0
       0       0       0       0       0       0       0       0       0       0
       0       0       0       0       0       0       0       0       0       0
       0       0       0       0       0       0       0       0       0       0
       0       0       0       0       0       0       0       0       0       0
       0       0       0       0       0       0       0       0       0       0
       0       0       0       0       0       0       0       0       0       0
       0       0       0       0       0       0       0       0       0       0
       0       0       0       0       0       0       0       0       0       0
       0       0       0       0       0       0       0       0       0       0
       0       0       0       0       0       0       0       0       0       0
       0       0       0       0       0       0       0       0       0       0
       0       0       0       0       0       0       0       0       0       0
       0       0       0       0       0       0       0       0       0       0
       0       0       0       0       0       0       0       0       0       0
       0       0       0       0       0       0       0       0       0       0
       0       0       0       0       0       0       0       0       0       0
       0       0       0       0       0       0       0       0       0       0
       0       0       0       0       0       0       0       0       0       0
       0       0       0       0       0       0       0       0       0       0
       0       0       0       0       0       0       0       0       0       0
       0       0       0       0       0       0       0       0       0       0
       0       0       0       0       0       0       0       0       0       0
       0       0       0       0       0       0       0       0       0       0
       0       0       0       0       0       0       0       0       0       0
       0       0       0       0       0       0       0       0       0       0
       0       0       0       0       0       0       0       0       0       0
       0       0       0       0       0       0       0       0       0       0
       0       0       0       0       0       0       0       0       0       0
       0       0       0       0       0       0       0       0       0       0
       0       0       0       0       0       0       0       0       0       0
       0       0       0       0       0       0       0       0       0       0
       0       0       0       0       0       0       0       0       0       0
       0       0       0       0       0       0       0       0       0       0
       0       0       0       0       0       0       0       0       0       0
       0       0       0       0       0       0       0       0       0       0
       0       0       0       0       0       0       0       0       0       0
       0       0       0       0       0       0       0       0       0       0
       0       0       0       0       0       0       0       0       0       0
       0       0       0       0       0       0       0       0       0       0
       0       0       0       0       0       0       0       0       0       0
       0       0       0       0       0       0       0       0       0       0
       0       0       0       0       0       0       0       0       0       0
       0       0       0       0       0       0       0       0       0       0
       0       0       0       0       0       0       0       0       0       0
       0       0       0       0       0       0       0       0       0       0
       0       0       0       0       0       0       0       0       0       0
       0       0       0       0       0       0       0       0       0       0
       0       0       0       0       0       0       0       0       0       0
       0       0       0       0       0       0       0       0       0       0
       0       0       0       0       0       0       0       0       0       0
       0       0       0       0       0       0       0       0       0       0
       0       0       0       0       0       0       0       0       0       0
       0       0       0       0       0       0       0       0       0       0
       0       0       0       0       0       0       0       0       0       0
       0       0       0       0       0       0       0       0       0       0
       0       0       0       0       0       0       0       0       0       0
       0       0       0       0       0       0       0       0       0       0
       0       0       0       0       0       0       0       0       0       0
       0       0       0       0       0       0       0       0       0       0
       0       0       0       0       0       0       0       0       0       0
       0       0       0       0       0       0       0       0       0       0
       0       0       0       0       0       0       0       0       0       0
       0       0       0       0       0       0       0       0       0       0
       0       0       0       0       0       0       0       0       0       0
       0       0       0       0       0       0       0       0       0       0
       0       0       0       0       0       0       0       0       0       0
       0       0       0       0       0       0       0       0       0       0
       0       0       0       0       0       0       0       0       0       0
       0       0       0       0       0       0       0       0       0       0
       0       0       0       0       0       0       0       0       0       0
       0       0       0       0       0       0       0       0       0       0
       0       0       0       0       0       0       0       0       0       0
       0       0       0       0       0       0       0       0       0       0
       0       0       0       0       0       0       0       0       0       0
       0       0       0       0       0       0       0       0       0       0
       0       0       0       0       0       0       0       0       0       0
       0       0       0       0       0       0       0       0       0       0
       0       0       0       0       0       0       0       0       0       0
       0       0       0       0       0       0       0       0       0       0
       0       0       0       0       0       0       0       0       0       0
       0       0       0       0       0       0       0       0       0       0
       0       0       0       0       0       0       0       0       0       0
       0       0       0       0       0       0       0       0       0       0
       0       0       0       0       0       0       0       0       0       0
       0       0       0       0       0       0       0       0       0       0
       0       0       0       0       0       0       0       0       0       0
       0       0       0       0       0       0       0       0       0       0
       0       0       0       0       0       0       0       0       0       0
       0       0       0       0       0       0       0       0       0       0
       0       0       0       0       0       0       0       0       0       0
       0       0       0       0       0       0       0       0       0       0
       0       0       0       0       0       0       0       0       0       0
       0       0       0       0       0       0       0       0       0       0
       0       0       0       0       0       0       0       0       0       0
       0       0       0       0       0       0       0       0       0       0
       0       0       0       0       0       0       0       0       0       0
       0       0       0       0       0       0       0       0       0       0
       0       0       0       0       0       0       0       0       0       0
       0       0       0       0       0       0       0       0       0       0
       0       0       0       0       0       0       0       0       0       0
       0       0       0       0       0       0       0       0       0       0
       0       0       0       0       0       0       0       0       0       0
       0       0       0       0       0       0       0       0       0       0
       0       0       0       0       0       0       0       0       0       0
       0       0       0       0       0       0       0       0       0       0
       0       0       0       0       0       0       0       0       0       0
       0       0       0       0       0       0       0       0       0       0
       0       0       0       0       0       0       0       0       0       0
       0       0       0       0       0       0       0       0       0       0
       0       0       0       0       0       0       0       0       0       0
       0       0       0       0       0       0       0       0       0       0
       0       0       0       0       0       0       0       0       0       0
       0       0       0       0       0       0       0       0       0       0
       0       0       0       0       0       0       0       0       0       0
       0       0       0       0       0       0       0       0       0       0
       0       0       0       0       0       0       0       0       0       0
       0       0       0       0       0       0       0       0       0       0
       0       0       0       0       0       0       0       0       0       0
       0       0       0       0       0       0       0       0       0       0
       0       0       0       0       0       0       0       0       0       0
       0       0       0       0       0       0       0       0       0       0
       0       0       0       0       0       0       0       0       0       0
       0       0       0       0       0       0       0       0       0       0
       0       0       0       0       0       0       0       0       0       0
       0       0       0       0       0       0       0       0       0       0
       0       0       0       0       0       0       0       0       0       0
       0       0       0       0       0       0       0       0       0       0
       0       0       0       0       0       0       0       0       0       0
       0       0       0       0       0       0       0       0       0       0
       0       0       0       0       0       0       0       0       0       0
       0       0       0       0       0       0       0       0       0       0
       0       0       0       0       0       0       0       0       0       0
       0       0       0       0       0       0       0       0       0       0
       0       0       0       0       0       0       0       0       0       0
       0       0       0       0       0       0       0       0       0       0
       0       0       0       0       0       0       0       0       0       0
       0       0       0       0       0       0       0       0       0       0
       0       0       0       0       0       0       0       0       0       0
       0       0       0       0       0       0       0       0       0       0
       0       0       0       0       0       0       0       0       0       0
       0       0       0       0       0       0       0       0       0       0
       0       0       0       0       0       0       0       0       0       0
       0       0       0       0       0       0       0       0       0       0
       0       0       0       0       0       0       0       0       0       0
       0       0       0       0       0       0       0       0       0       0
       0       0       0       0       0       0       0       0       0       0
       0       0       0       0       0       0       0       0       0       0
       0       0       0       0       0       0       0       0       0       0
       0       0       0       0       0       0       0       0       0       0
       0       0       0       0       0       0       0       0       0       0
       0       0       0       0       0       0       0       0       0       0
       0       0       0       0       0       0       0       0       0       0
       0       0       0       0       0       0       0       0       0       0
       0       0       0       0       0       0       0       0       0       0
       0       0       0       0       0       0       0       0       0       0
       0       0       0       0       0       0       0       0       0       0
       0       0       0       0       0       0       0       0       0       0
       0       0       0       0       0       0       0       0       0       0
       0       0       0       0       0       0       0       0       0       0
       0       0       0       0       0       0       0       0       0       0
       0       0       0       0       0       0       0       0       0       0
       0       0       0       0       0       0       0       0       0       0
       0       0       0       0       0       0       0       0       0       0
       0       0       0       0       0       0       0       0       0       0
       0       0       0       0       0       0       0       0       0       0
       0       0       0       0       0       0       0       0       0       0
       0       0       0       0       0       0       0       0       0       0
       0       0       0       0       0       0       0       0       0       0
       0       0       0       0       0       0       0       0       0       0
       0       0       0       0       0       0       0       0       0       0
       0       0       0       0       0       0       0       0       0       0
       0       0       0       0       0       0       0       0       0       0
       0       0       0       0       0       0       0       0       0       0
       0       0       0       0       0       0       0       0       0       0
       0       0       0       0       0       0       0       0       0       0
       0       0       0       0       0       0       0       0       0       0
       0       0       0       0       0       0       0       0       0       0
       0       0       0       0       0       0       0       0       0       0
       0       0       0       0       0       0       0       0       0       0
       0       0       0       0       0       0       0       0       0       0
       0       0       0       0       0       0       0       0       0       0
       0       0       0       0       0       0       0       0       0       0
       0       0       0       0       0       0       0       0       0       0
       0       0       0       0       0       0       0       0       0       0
       0       0       0       0       0       0       0       0       0       0
       0       0       0       0       0       0       0       0       0       0
       0       0       0       0       0       0       0       0       0       0
       0       0       0       0       0       0       0       0       0       0
       0       0       0       0       0       0       0       0       0       0
       0       0       0       0       0       0       0       0       0       0
       0       0       0       0       0       0       0       0       0       0
       0       0       0       0       0       0       0       0       0       0
       0       0       0       0       0       0       0       0       0       0
       0       0       0       0       0       0       0       0       0       0
       0       0       0       0       0       0       0       0       0       0
       0       0       0       0       0       0       0       0       0       0
       0       0       0       0       0       0       0       0       0       0
       0       0       0       0       0       0       0       0       0       0
       0       0       0       0       0       0       0       0       0       0
       0       0       0       0       0       0       0       0       0       0
       0       0       0       0       0       0       0       0       0       0
       0       0       0       0       0       0       0       0       0       0
       0       0       0       0       0       0       0       0       0       0
       0       0       0       0       0       0       0       0       0       0
       0       0       0       0       0       0       0       0       0       0
       0       0       0       0       0       0       0       0       0       0
       0       0       0       0       0       0       0       0       0       0
       0       0       0       0       0       0       0       0       0       0
       0       0       0       0       0       0       0       0       0       0
       0       0       0       0       0       0       0       0       0       0
       0       0       0       0       0       0       0       0       0       0
       0       0       0       0       0       0       0       0       0       0
       0       0       0       0       0       0       0       0       0       0
       0       0       0       0       0       0       0       0       0       0
       0       0       0       0       0       0       0       0       0       0
       0       0       0       0       0       0       0       0       0       0
       0       0       0       0       0       0       0       0       0       0
       0       0       0       0       0       0       0       0       0       0
       0       0       0       0       0       0       0       0       0       0
       0       0       0       0       0       0       0       0       0       0
       0       0       0       0       0       0       0       0       0       0
       0       0       0       0       0       0       0       0       0       0
       0       0       0       0       0       0       0       0       0       0
       0       0       0       0       0       0       0       0       0       0
       0       0       0       0       0       0       0       0       0       0
       0       0       0       0       0       0       0       0       0       0
       0       0       0       0       0       0       0       0       0       0
       0       0       0       0       0       0       0       0       0       0
       0       0       0       0       0       0       0       0       0       0
       0       0       0       0       0       0       0       0       0       0
       0       0       0       0       0       0       0       0       0       0
       0       0       0       0       0       0       0       0       0       0
       0       0       0       0       0       0       0       0       0       0
       0       0       0       0       0       0       0       0       0       0
       0       0       0       0       0       0       0       0       0       0
       0       0       0       0       0       0       0       0       0       0
       0       0       0       0       0       0       0       0       0       0
       0       0       0       0       0       0       0       0       0       0
       0       0       0       0       0       0       0       0       0       0
       0       0       0       0       0       0       0       0       0       0
       0       0       0       0       0       0       0       0       0       0
       0       0       0       0       0       0       0       0       0       0
       0       0       0       0       0       0       0       0       0       0
       0       0       0       0       0       0       0       0       0       0
       0       0       0       0       0       0       0       0       0       0
       0       0       0       0       0       0       0       0       0       0
       0       0       0       0       0       0       0       0       0       0
       0       0       0       0       0       0       0       0       0       0
       0       0       0       0       0       0       0       0       0       0
       0       0       0       0       0       0       0       0       0       0
       0       0       0       0       0       0       0       0       0       0
       0       0       0       0       0       0       0       0       0       0
       0       0       0       0       0       0       0       0       0       0
       0       0       0       0       0       0       0       0       0       0
       0       0       0       0       0       0       0       0       0       0
       0       0       0       0       0       0       0       0       0       0
       0       0       0       0       0       0       0       0       0       0
       0       0       0       0       0       0       0       0       0       0
       0       0       0       0       0       0       0       0       0       0
       0       0       0       0       0       0       0       0       0       0
       0       0       0       0       0       0       0       0       0       0
       0       0       0       0       0       0       0       0       0       0
       0       0       0       0       0       0       0       0       0       0
       0       0       0       0       0       0       0       0       0       0
       0       0       0       0       0       0       0       0       0       0
       0       0       0       0       0       0       0       0       0       0
       0       0       0       0       0       0       0       0       0       0
       0       0       0       0       0       0       0       0       0       0
       0       0       0       0       0       0       0       0       0       0
       0       0       0       0       0       0       0       0       0       0
       0       0       0       0       0       0       0       0       0       0
       0       0       0       0       0       0       0       0       0       0
       0       0       0       0       0       0       0       0       0       0
       0       0       0       0       0       0       0       0       0       0
       0       0       0       0       0       0       0       0       0       0
       0       0       0       0       0       0       0       0       0       0
       0       0       0       0       0       0       0       0       0       0
       0       0       0       0       0       0       0       0       0       0
       0       0       0       0       0       0       0       0       0       0
       0       0       0       0       0       0       0       0       0       0
       0       0       0       0       0       0       0       0       0       0
       0       0       0       0       0       0       0       0       0       0
       0       0       0       0       0       0       0       0       0       0
       0       0       0       0       0       0       0       0       0       0
       0       0       0       0       0       0       0       0       0       0
       0       0       0       0       0       0       0       0       0       0
       0       0       0       0       0       0       0       0       0       0
       0       0       0       0       0       0       0       0       0       0
       0       0       0       0       0       0       0       0       0       0
       0       0       0       0       0       0       0       0       0       0
       0       0       0       0       0       0       0       0       0       0
       0       0       0       0       0       0       0       0       0       0
       0       0       0       0       0       0       0       0       0       0
       0       0       0       0       0       0       0       0       0       0
       0       0       0       0       0       0       0       0       0       0
       0       0       0       0       0       0       0       0       0       0
       0       0       0       0       0       0       0       0       0       0
       0       0       0       0       0       0       0       0       0       0
       0       0       0       0       0       0       0       0       0       0
       0       0       0       0       0       0       0       0       0       0
       0       0       0       0       0       0       0       0       0       0
       0       0       0       0       0       0       0       0       0       0
       0       0       0       0       0       0       0       0       0       0
       0       0       0       0       0       0       0       0       0       0
       0       0       0       0       0       0       0       0       0       0
       0       0       0       0       0       0       0       0       0       0
       0       0       0       0       0       0       0       0       0       0
       0       0       0       0       0       0       0       0       0       0
       0       0       0       0       0       0       0       0       0       0
       0       0       0       0       0       0       0       0       0       0
       0       0       0       0       0       0       0       0       0       0
       0       0       0       0       0       0       0       0       0       0
       0       0       0       0       0       0       0       0       0       0
       0       0       0       0       0       0       0       0       0       0
       0       0       0       0       0       0       0       0       0       0
       0       0       0       0       0       0       0       0       0       0
       0       0       0       0       0       0       0       0       0       0
       0       0       0       0       0       0       0       0       0       0
       0       0       0       0       0       0       0       0       0       0
       0       0       0       0       0       0       0       0       0       0
       0       0       0       0       0       0       0       0       0       0
       0       0       0       0       0       0       0       0       0       0
       0       0       0       0       0       0       0       0       0       0
       0       0       0       0       0       0       0       0       0       0
       0       0       0       0       0       0       0       0       0       0
       0       0       0       0       0       0       0       0       0       0
       0       0       0       0       0       0       0       0       0       0
       0       0       0       0       0       0       0       0       0       0
       0       0       0       0       0       0       0       0       0       0
       0       0       0       0       0       0       0       0       0       0
       0       0       0       0       0       0       0       0       0       0
       0       0       0       0       0       0       0       0       0       0
       0       0       0       0       0       0       0       0       0       0
       0       0       0       0       0       0       0       0       0       0
       0       0       0       0       0       0       0       0       0       0
       0       0       0       0       0       0       0       0       0       0
       0       0       0       0       0       0       0       0       0       0
       0       0       0       0       0       0       0       0       0       0
       0       0       0       0       0       0       0       0       0       0
       0       0       0       0       0       0       0       0       0       0
       0       0       0       0       0       0       0       0       0       0
       0       0       0       0       0       0       0       0       0       0
       0       0       0       0       0       0       0       0       0       0
       0       0       0       0       0       0       0       0       0       0
       0       0       0       0       0       0       0       0       0       0
       0       0       0       0       0       0       0       0       0       0
       0       0       0       0       0       0       0       0       0       0
       0       0       0       0       0       0       0       0       0       0
       0       0       0       0       0       0       0       0       0       0
       0       0       0       0       0       0       0       0       0       0
       0       0       0       0       0       0       0       0       0       0
       0       0       0       0       0       0       0       0       0       0
       0       0       0       0       0       0       0       0       0       0
       0       0       0       0       0       0       0       0       0       0
       0       0       0       0       0       0       0       0       0       0
       0       0       0       0       0       0       0       0       0       0
       0       0       0       0       0       0       0       0       0       0
       0       0       0       0       0       0       0       0       0       0
       0       0       0       0       0       0       0       0       0       0
       0       0       0       0       0       0       0       0       0       0
       0       0       0       0       0       0       0       0       0       0
       0       0       0       0       0       0       0       0       0       0
       0       0       0       0       0       0       0       0       0       0
       0       0       0       0       0       0       0       0       0       0
       0       0       0       0       0       0       0       0       0       0
       0       0       0       0       0       0       0       0       0       0
       0       0       0       0       0       0       0       0       0       0
       0       0       0       0       0       0       0       0       0       0
       0       0       0       0       0       0       0       0       0       0
       0       0       0       0       0       0       0       0       0       0
       0       0       0       0       0       0       0       0       0       0
       0       0       0       0       0       0       0       0       0       0
       0       0       0       0       0       0       0       0       0       0
       0       0       0       0       0       0       0       0       0       0
       0       0       0       0       0       0       0       0       0       0
       0       0       0       0       0       0       0       0       0       0
       0       0       0       0       0       0       0       0       0       0
       0       0       0       0       0       0       0       0       0       0
       0       0       0       0       0       0       0       0       0       0
       0       0       0       0       0       0       0       0       0       0
       0       0       0       0       0       0       0       0       0       0
       0       0       0       0       0       0       0       0       0       0
       0       0       0       0       0       0       0       0       0       0
       0       0       0       0       0       0       0       0       0       0
       0       0       0       0       0       0       0       0       0       0
       0       0       0       0       0       0       0       0       0       0
       0       0       0       0       0       0       0       0       0       0
       0       0       0       0       0       0       0       0       0       0
       0       0       0       0       0       0       0       0       0       0
       0       0       0       0       0       0       0       0       0       0
       0       0       0       0       0       0       0       0       0       0
       0       0       0       0       0       0       0       0       0       0
       0       0       0       0       0       0       0       0       0       0
       0       0       0       0       0       0       0       0       0       0
       0       0       0       0       0       0       0       0       0       0
       0       0       0       0       0       0       0       0       0       0
       0       0       0       0       0       0       0       0       0       0
       0       0       0       0       0       0       0       0       0       0
       0       0       0       0       0       0       0       0       0       0
       0       0       0       0       0       0       0       0       0       0
       0       0       0       0       0       0       0       0       0       0
       0       0       0       0       0       0       0       0       0       0
       0       0       0       0       0       0       0       0       0       0
       0       0       0       0       0       0       0       0       0       0
       0       0       0       0       0       0       0       0       0       0
       0       0       0       0       0       0       0       0       0       0
       0       0       0       0       0       0       0       0       0       0
       0       0       0       0       0       0       0       0       0       0
       0       0       0       0       0       0       0       0       0       0
       0       0       0       0       0       0       0       0       0       0
       0       0       0       0       0       0       0       0       0       0
       0       0       0       0       0       0       0       0       0       0
       0       0       0       0       0       0       0       0       0       0
       0       0       0       0       0       0       0       0       0       0
       0       0       0       0       0       0       0       0       0       0
       0       0       0       0       0       0       0       0       0       0
       0       0       0       0       0       0       0       0       0       0
       0       0       0       0       0       0       0       0       0       0
       0       0       0       0       0       0       0       0       0       0
       0       0       0       0       0       0       0       0       0       0
       0       0       0       0       0       0       0       0       0       0
       0       0       0       0       0       0       0       0       0       0
       0       0       0       0       0       0       0       0       0       0
       0       0       0       0       0       0       0       0       0       0
       0       0       0       0       0       0       0       0       0       0
       0       0       0       0       0       0       0       0       0       0
       0       0       0       0       0       0       0       0       0       0
       0       0       0       0       0       0       0       0       0       0
       0       0       0       0       0       0       0       0       0       0
       0       0       0       0       0       0       0       0       0       0
       0       0       0       0       0       0       0       0       0       0
       0       0       0       0       0       0       0       0       0       0
       0       0       0       0       0       0       0       0       0       0
       0       0       0       0       0       0       0       0       0       0
       0       0       0       0       0       0       0       0       0       0
       0       0       0       0       0       0       0       0       0       0
       0       0       0       0       0       0       0       0       0       0
       0       0       0       0       0       0       0       0       0       0
       0       0       0       0       0       0       0       0       0       0
       0       0       0       0       0       0       0       0       0       0
       0       0       0       0       0       0       0       0       0       0
       0       0       0       0       0       0       0       0       0       0
       0       0       0       0       0       0       0       0       0       0
       0       0       0       0       0       0       0       0       0       0
       0       0       0       0       0       0       0       0       0       0
       0       0       0       0       0       0       0       0       0       0
       0       0       0       0       0       0       0       0       0       0
       0       0       0       0       0       0       0       0       0       0
       0       0       0       0       0       0       0       0       0       0
       0       0       0       0       0       0       0       0       0       0
       0       0       0       0       0       0       0       0       0       0
       0       0       0       0       0       0       0       0       0       0
       0       0       0       0       0       0       0       0       0       0
       0       0       0       0       0       0       0       0       0       0
       0       0       0       0       0       0       0       0       0       0
       0       0       0       0       0       0       0       0       0       0
       0       0       0       0       0       0       0       0       0       0
       0       0       0       0       0       0       0       0       0       0
       0       0       0       0       0       0       0       0       0       0
       0       0       0       0       0       0       0       0       0       0
       0       0       0       0       0       0       0       0       0       0
       0       0       0       0       0       0       0       0       0       0
       0       0       0       0       0       0       0       0       0       0
       0       0       0       0       0       0       0       0       0       0
       0       0       0       0       0       0       0       0       0       0
       0       0       0       0       0       0       0       0       0       0
       0       0       0       0       0       0       0       0       0       0
       0       0       0       0       0       0       0       0       0       0
       0       0       0       0       0       0       0       0       0       0
       0       0       0       0       0       0       0       0       0       0
       0       0       0       0       0       0       0       0       0       0
       0       0       0       0       0       0       0       0       0       0
       0       0       0       0       0       0       0       0       0       0
       0       0       0       0       0       0       0       0       0       0
       0       0       0       0       0       0       0       0       0       0
       0       0       0       0       0       0       0       0       0       0
       0       0       0       0       0       0       0       0       0       0
       0       0       0       0       0       0       0       0       0       0
       0       0       0       0       0       0       0       0       0       0
       0       0       0       0       0       0       0       0       0       0
       0       0       0       0       0       0       0       0       0       0
       0       0       0       0       0       0       0       0       0       0
       0       0       0       0       0       0       0       0       0       0
       0       0       0       0       0       0       0       0       0       0
       0       0       0       0       0       0       0       0       0       0
       0       0       0       0       0       0       0       0       0       0
       0       0       0       0       0       0       0       0       0       0
       0       0       0       0       0       0       0       0       0       0
       0       0       0       0       0       0       0       0       0       0
       0       0       0       0       0       0       0       0       0       0
       0       0       0       0       0       0       0       0       0       0
       0       0       0       0       0       0       0       0       0       0
       0       0       0       0       0       0       0       0       0       0
       0       0       0       0       0       0       0       0       0       0
       0       0       0       0       0       0       0       0       0       0
       0       0       0       0       0       0       0       0       0       0
       0       0       0       0       0       0       0       0       0       0
       0       0       0       0       0       0       0       0       0       0
       0       0       0       0       0       0       0       0       0       0
       0       0       0       0       0       0       0       0       0       0
       0       0       0       0       0       0       0       0       0       0
       0       0       0       0       0       0       0       0       0       0
       0       0       0       0       0       0       0       0       0       0
       0       0       0       0       0       0       0       0       0       0
       0       0       0       0       0       0       0       0       0       0
       0       0       0       0       0       0       0       0       0       0
       0       0       0       0       0       0       0       0       0       0
       0       0       0       0       0       0       0       0       0       0
       0       0       0       0       0       0       0       0       0       0
       0       0       0       0       0       0       0       0       0       0
       0       0       0       0       0       0       0       0       0       0
       0       0       0       0       0       0       0       0       0       0
       0       0       0       0       0       0       0       0       0       0
       0       0       0       0       0       0       0       0       0       0
       0       0       0       0       0       0       0       0       0       0
       0       0       0       0       0       0       0       0       0       0
       0       0       0       0       0       0       0       0       0       0
       0       0       0       0       0       0       0       0       0       0
       0       0       0       0       0       0       0       0       0       0
       0       0       0       0       0       0       0       0       0       0
       0       0       0       0       0       0       0       0       0       0
       0       0       0       0       0       0       0       0       0       0
       0       0       0       0       0       0       0       0       0       0
       0       0       0       0       0       0       0       0       0       0
       0       0       0       0       0       0       0       0       0       0
       0       0       0       0       0       0       0       0       0       0
       0       0       0       0       0       0       0       0       0       0
       0       0       0       0       0       0       0       0       0       0
       0       0       0       0       0       0       0       0       0       0
       0       0       0       0       0       0       0       0       0       0
       0       0       0       0       0       0       0       0       0       0
       0       0       0       0       0       0       0       0       0       0
       0       0       0       0       0       0       0       0       0       0
       0       0       0       0       0       0       0       0       0       0
       0       0       0       0       0       0       0       0       0       0
       0       0       0       0       0       0       0       0       0       0
       0       0       0       0       0       0       0       0       0       0
       0       0       0       0       0       0       0       0       0       0
       0       0       0       0       0       0       0       0       0       0
       0       0       0       0       0       0       0       0       0       0
       0       0       0       0       0       0       0       0       0       0
       0       0       0       0       0       0       0       0       0       0
       0       0       0       0       0       0       0       0       0       0
       0       0       0       0       0       0       0       0       0       0
       0       0       0       0       0       0       0       0       0       0
       0       0       0       0       0       0       0       0       0       0
       0       0       0       0       0       0       0       0       0       0
       0       0       0       0       0       0       0       0       0       0
       0       0       0       0       0       0       0       0       0       0
       0       0       0       0       0       0       0       0       0       0
       0       0       0       0       0       0       0       0       0       0
       0       0       0       0       0       0       0       0       0       0
       0       0       0       0       0       0       0       0       0       0
       0       0       0       0       0       0       0       0       0       0
       0       0       0       0       0       0       0       0       0       0
       0       0       0       0       0       0       0       0       0       0
       0       0       0       0       0       0       0       0       0       0
       0       0       0       0       0       0       0       0       0       0
       0       0       0       0       0       0       0       0       0       0
       0       0       0       0       0       0       0       0       0       0
       0       0       0       0       0       0       0       0       0       0
       0       0       0       0       0       0       0       0       0       0
       0       0       0       0       0       0       0       0       0       0
       0       0       0       0       0       0       0       0       0       0
       0       0       0       0       0       0       0       0       0       0
       0       0       0       0       0       0       0       0       0       0
       0       0       0       0       0       0       0       0       0       0
       0       0       0       0       0       0       0       0       0       0
       0       0       0       0       0       0       0       0       0       0
       0       0       0       0       0       0       0       0       0       0
       0       0       0       0       0       0       0       0       0       0
       0       0       0       0       0       0       0       0       0       0
       0       0       0       0       0       0       0       0       0       0
       0       0       0       0       0       0       0       0       0       0
       0       0       0       0       0       0       0       0       0       0
       0       0       0       0       0       0       0       0       0       0
       0       0       0       0       0       0       0       0       0       0
       0       0       0       0       0       0       0       0       0       0
       0       0       0       0       0       0       0       0       0       0
       0       0       0       0       0       0       0       0       0       0
       0       0       0       0       0       0       0       0       0       0
       0       0       0       0       0       0       0       0       0       0
       0       0       0       0       0       0       0       0       0       0
       0       0       0       0       0       0       0       0       0       0
       0       0       0       0       0       0       0       0       0       0
       0       0       0       0       0       0       0       0       0       0
       0       0       0       0       0       0       0       0       0       0
       0       0       0       0       0       0       0       0       0       0
       0       0       0       0       0       0       0       0       0       0
       0       0       0       0       0       0       0       0       0       0
       0       0       0       0       0       0       0       0       0       0
       0       0       0       0       0       0       0       0       0       0
       0       0       0       0       0       0       0       0       0       0
       0       0       0       0       0       0       0       0       0       0
       0       0       0       0       0       0       0       0       0       0
       0       0       0       0       0       0       0       0       0       0
       0       0       0       0       0       0       0       0       0       0
       0       0       0       0       0       0       0       0       0       0
       0       0       0       0       0       0       0       0       0       0
       0       0       0       0       0       0       0       0       0       0
       0       0       0       0       0       0       0       0       0       0
       0       0       0       0       0       0       0       0       0       0
       0       0       0       0       0       0       0       0       0       0
       0       0       0       0       0       0       0       0       0       0
       0       0       0       0       0       0       0       0       0       0
       0       0       0       0       0       0       0       0       0       0
       0       0       0       0       0       0       0       0       0       0
       0       0       0       0       0       0       0       0       0       0
       0       0       0       0       0       0       0       0       0       0
       0       0       0       0       0       0       0       0       0       0
       0       0       0       0       0       0       0       0       0       0
       0       0       0       0       0       0       0       0       0       0
       0       0       0       0       0       0       0       0       0       0
       0       0       0       0       0       0       0       0       0       0
       0       0       0       0       0       0       0       0       0       0
       0       0       0       0       0       0       0       0       0       0
       0       0       0       0       0       0       0       0       0       0
       0       0       0       0       0       0       0       0       0       0
       0       0       0       0       0       0       0       0       0       0
       0       0       0       0       0       0       0       0       0       0
       0       0       0       0       0       0       0       0       0       0
       0       0       0       0       0       0       0       0       0       0
       0       0       0       0       0       0       0       0       0       0
       0       0       0       0       0       0       0       0       0       0
       0       0       0       0       0       0       0       0       0       0
       0       0       0       0       0       0       0       0       0       0
       0       0       0       0       0       0       0       0       0       0
       0       0       0       0       0       0       0       0       0       0
       0       0       0       0       0       0       0       0       0       0
       0       0       0       0       0       0       0       0       0       0
       0       0       0       0       0       0       0       0       0       0
       0       0       0       0       0       0       0       0       0       0
       0       0       0       0       0       0       0       0       0       0
       0       0       0       0       0       0       0       0       0       0
       0       0       0       0       0       0       0       0       0       0
       0       0       0       0       0       0       0       0       0       0
       0       0       0       0       0       0       0       0       0       0
       0       0       0       0       0       0       0       0       0       0
       0       0       0       0       0       0       0       0       0       0
       0       0       0       0       0       0       0       0       0       0
       0       0       0       0       0       0       0       0       0       0
       0       0       0       0       0       0       0       0       0       0
       0       0       0       0       0       0       0       0       0       0
       0       0       0       0       0       0       0       0       0       0
       0       0       0       0       0       0       0       0       0       0
       0       0       0       0       0       0       0       0       0       0
       0       0       0       0       0       0       0       0       0       0
       0       0       0       0       0       0       0       0       0       0
       0       0       0       0       0       0       0       0       0       0
       0       0       0       0       0       0       0       0       0       0
       0       0       0       0       0       0       0       0       0       0
       0       0       0       0       0       0       0       0       0       0
       0       0       0       0       0       0       0       0       0       0
       0       0       0       0       0       0       0       0       0       0
       0       0       0       0       0       0       0       0       0       0
       0       0       0       0       0       0       0       0       0       0
       0       0       0       0       0       0       0       0       0       0
       0       0       0       0       0       0       0       0       0       0
       0       0       0       0       0       0       0       0       0       0
       0       0       0       0       0       0       0       0       0       0
       0       0       0       0       0       0       0       0       0       0
       0       0       0       0       0       0       0       0       0       0
       0       0       0       0       0       0       0       0       0       0
       0       0       0       0       0       0       0       0       0       0
       0       0       0       0       0       0       0       0       0       0
       0       0       0       0       0       0       0       0       0       0
       0       0       0       0       0       0       0       0       0       0
       0       0       0       0       0       0       0       0       0       0
       0       0       0       0       0       0       0       0       0       0
       0       0       0       0       0       0       0       0       0       0
       0       0       0       0       0       0       0       0       0       0
       0       0       0       0       0       0       0       0       0       0
       0       0       0       0       0       0       0       0       0       0
       0       0       0       0       0       0       0       0       0       0
       0       0       0       0       0       0       0       0       0       0
       0       0       0       0       0       0       0       0       0       0
       0       0       0       0       0       0       0       0       0       0
       0       0       0       0       0       0       0       0       0       0
       0       0       0       0       0       0       0       0       0       0
       0       0       0       0       0       0       0       0       0       0
       0       0       0       0       0       0       0       0       0       0
       0       0       0       0       0       0       0       0       0       0
       0       0       0       0       0       0       0       0       0       0
       0       0       0       0       0       0       0       0       0       0
       0       0       0       0       0       0       0       0       0       0
       0       0       0       0       0       0       0       0       0       0
       0       0       0       0       0       0       0       0       0       0
       0       0       0       0       0       0       0       0       0       0
       0       0       0       0       0       0       0       0       0       0
       0       0       0       0       0       0       0       0       0       0
       0       0       0       0       0       0       0       0       0       0
       0       0       0       0       0       0       0       0       0       0
       0       0       0       0       0       0       0       0       0       0
       0       0       0       0       0       0       0       0       0       0
       0       0       0       0       0       0       0       0       0       0
       0       0       0       0       0       0       0       0       0       0
       0       0       0       0       0       0       0       0       0       0
       0       0       0       0       0       0       0       0       0       0
       0       0       0       0       0       0       0       0       0       0
       0       0       0       0       0       0       0       0       0       0
       0       0       0       0       0       0       0       0       0       0
       0       0       0       0       0       0       0       0       0       0
       0       0       0       0       0       0       0       0       0       0
       0       0       0       0       0       0       0       0       0       0
       0       0       0       0       0       0       0       0       0       0
       0       0       0       0       0       0       0       0       0       0
       0       0       0       0       0       0       0       0       0       0
       0       0       0       0       0       0       0       0       0       0
       0       0       0       0       0       0       0       0       0       0
       0       0       0       0       0       0       0       0       0       0
       0       0       0       0       0       0       0       0       0       0
       0       0       0       0       0       0       0       0       0       0
       0       0       0       0       0       0       0       0       0       0
       0       0       0       0       0       0       0       0       0       0
       0       0       0       0       0       0       0       0       0       0
       0       0       0       0       0       0       0       0       0       0
       0       0       0       0       0       0       0       0       0       0
       0       0       0       0       0       0       0       0       0       0
       0       0       0       0       0       0       0       0       0       0
       0       0       0       0       0       0       0       0       0       0
       0       0       0       0       0       0       0       0       0       0
       0       0       0       0       0       0       0       0       0       0
       0       0       0       0       0       0       0       0       0       0
       0       0       0       0       0       0       0       0       0       0
       0       0       0       0       0       0       0       0       0       0
       0       0       0       0       0       0       0       0       0       0
       0       0       0       0       0       0       0       0       0       0
       0       0       0       0       0       0       0       0       0       0
       0       0       0       0       0       0       0       0       0       0
       0       0       0       0       0       0       0       0       0       0
       0       0       0       0       0       0       0       0       0       0
       0       0       0       0       0       0       0       0       0       0
       0       0       0       0       0       0       0       0       0       0
       0       0       0       0       0       0       0       0       0       0
       0       0       0       0       0       0       0       0       0       0
       0       0       0       0       0       0       0       0       0       0
       0       0       0       0       0       0       0       0       0       0
       0       0       0       0       0       0       0       0       0       0
       0       0       0       0       0       0       0       0       0       0
       0       0       0       0       0       0       0       0       0       0
       0       0       0       0       0       0       0       0       0       0
       0       0       0       0       0       0       0       0       0       0
       0       0       0       0       0       0       0       0       0       0
       0       0       0       0       0       0       0       0       0       0
       0       0       0       0       0       0       0       0       0       0
       0       0       0       0       0       0       0       0       0       0
       0       0       0       0       0       0       0       0       0       0
       0       0       0       0       0       0       0       0       0       0
       0       0       0       0       0       0       0       0       0       0
       0       0       0       0       0       0       0       0       0       0
       0       0       0       0       0       0       0       0       0       0
       0       0       0       0       0       0       0       0       0       0
       0       0       0       0       0       0       0       0       0       0
       0       0       0       0       0       0       0       0       0       0
       0       0       0       0       0       0       0       0       0       0
       0       0       0       0       0       0       0       0       0       0
       0       0       0       0       0       0       0       0       0       0
       0       0       0       0       0       0       0       0       0       0
       0       0       0       0       0       0       0       0       0       0
       0       0       0       0       0       0       0       0       0       0
       0       0       0       0       0       0       0       0       0       0
       0       0       0       0       0       0       0       0       0       0
       0       0       0       0       0       0       0       0       0       0
       0       0       0       0       0       0       0       0       0       0
       0       0       0       0       0       0       0       0       0       0
       0       0       0       0       0       0       0       0       0       0
       0       0       0       0       0       0       0       0       0       0
       0       0       0       0       0       0       0       0       0       0
       0       0       0       0       0       0       0       0       0       0
       0       0       0       0       0       0       0       0       0       0
       0       0       0       0       0       0       0       0       0       0
       0       0       0       0       0       0       0       0       0       0
       0       0       0       0       0       0       0       0       0       0
       0       0       0       0       0       0       0       0       0       0
       0       0       0       0       0       0       0       0       0       0
       0       0       0       0       0       0       0       0       0       0
       0       0       0       0       0       0       0       0       0       0
       0       0       0       0       0       0       0       0       0       0
       0       0       0       0       0       0       0       0       0       0
       0       0       0       0       0       0       0       0       0       0
       0       0       0       0       0       0       0       0       0       0
       0       0       0       0       0       0       0       0       0       0
       0       0       0       0       0       0       0       0       0       0
       0       0       0       0       0       0       0       0       0       0
       0       0       0       0       0       0       0       0       0       0
       0       0       0       0       0       0       0       0       0       0
       0       0       0       0       0       0       0       0       0       0
       0       0       0       0       0       0       0       0       0       0
       0       0       0       0       0       0       0       0       0       0
       0       0       0       0       0       0       0       0       0       0
       0       0       0       0       0       0       0       0       0       0
       0       0       0       0       0       0       0       0       0       0
       0       0       0       0       0       0       0       0       0       0
       0       0       0       0       0       0       0       0       0       0
       0       0       0       0       0       0       0       0       0       0
       0       0       0       0       0       0       0       0       0       0
       0       0       0       0       0       0       0       0       0       0
       0       0       0       0       0       0       0       0       0       0
       0       0       0       0       0       0       0       0       0       0
       0       0       0       0       0       0       0       0       0       0
       0       0       0       0       0       0       0       0       0       0
       0       0       0       0       0       0       0       0       0       0
       0       0       0       0       0       0       0       0       0       0
       0       0       0       0       0       0       0       0       0       0
       0       0       0       0       0       0       0       0       0       0
       0       0       0       0       0       0       0       0       0       0
       0       0       0       0       0       0       0       0       0       0
       0       0       0       0       0       0       0       0       0       0
       0       0       0       0       0       0       0       0       0       0
       0       0       0       0       0       0       0       0       0       0
       0       0       0       0       0       0       0       0       0       0
       0       0       0       0       0       0       0       0       0       0
       0       0       0       0       0       0       0       0       0       0
       0       0       0       0       0       0       0       0       0       0
       0       0       0       0       0       0       0       0       0       0
       0       0       0       0       0       0       0       0       0       0
       0       0       0       0       0       0       0       0       0       0
       0       0       0       0       0       0       0       0       0       0
       0       0       0       0       0       0       0       0       0       0
       0       0       0       0       0       0       0       0       0       0
       0       0       0       0       0       0       0       0       0       0
       0       0       0       0       0       0       0       0       0       0
       0       0       0       0       0       0       0       0       0       0
       0       0       0       0       0       0       0       0       0       0
       0       0       0       0       0       0       0       0       0       0
       0       0       0       0       0       0       0       0       0       0
       0       0       0       0       0       0       0       0       0       0
       0       0       0       0       0       0       0       0       0       0
%FLAG IROTAT
%FORMAT(10I8)
       0       0       0       0       0       0       0       0       0       0
       0       0       0       0       0       0       0       0       0       0
       0       0       0       0       0       0       0       0       0       0
       0       0       0       0       0       0       0       0       0       0
       0       0       0       0       0       0       0       0       0       0
       0       0       0       0       0       0       0       0       0       0
       0       0       0       0       0       0       0       0       0       0
       0       0       0       0       0       0       0       0       0       0
       0       0       0       0       0       0       0       0       0       0
       0       0       0       0       0       0       0       0       0       0
       0       0       0       0       0       0       0       0       0       0
       0       0       0       0       0       0       0       0       0       0
       0       0       0       0       0       0       0       0       0       0
       0       0       0       0       0       0       0       0       0       0
       0       0       0       0       0       0       0       0       0       0
       0       0       0       0       0       0       0       0       0       0
       0       0       0       0       0       0       0       0       0       0
       0       0       0       0       0       0       0       0       0       0
       0       0       0       0       0       0       0       0       0       0
       0       0       0       0       0       0       0       0       0       0
       0       0       0       0       0       0       0       0       0       0
       0       0       0       0       0       0       0       0       0       0
       0       0       0       0       0       0       0       0       0       0
       0       0       0       0       0       0       0       0       0       0
       0       0       0       0       0       0       0       0       0       0
       0       0       0       0       0       0       0       0       0       0
       0       0       0       0       0       0       0       0       0       0
       0       0       0       0       0       0       0       0       0       0
       0       0       0       0       0       0       0       0       0       0
       0       0       0       0       0       0       0       0       0       0
       0       0       0       0       0       0       0       0       0       0
       0       0       0       0       0       0       0       0       0       0
       0       0       0       0       0       0       0       0       0       0
       0       0       0       0       0       0       0       0       0       0
       0       0       0       0       0       0       0       0       0       0
       0       0       0       0       0       0       0       0       0       0
       0       0       0       0       0       0       0       0       0       0
       0       0       0       0       0       0       0       0       0       0
       0       0       0       0       0       0       0       0       0       0
       0       0       0       0       0       0       0       0       0       0
       0       0       0       0       0       0       0       0       0       0
       0       0       0       0       0       0       0       0       0       0
       0       0       0       0       0       0       0       0       0       0
       0       0       0       0       0       0       0       0       0       0
       0       0       0       0       0       0       0       0       0       0
       0       0       0       0       0       0       0       0       0       0
       0       0       0       0       0       0       0       0       0       0
       0       0       0       0       0       0       0       0       0       0
       0       0       0       0       0       0       0       0       0       0
       0       0       0       0       0       0       0       0       0       0
       0       0       0       0       0       0       0       0       0       0
       0       0       0       0       0       0       0       0       0       0
       0       0       0       0       0       0       0       0       0       0
       0       0       0       0       0       0       0       0       0       0
       0       0       0       0       0       0       0       0       0       0
       0       0       0       0       0       0       0       0       0       0
       0       0       0       0       0       0       0       0       0       0
       0       0       0       0       0       0       0       0       0       0
       0       0       0       0       0       0       0       0       0       0
       0       0       0       0       0       0       0       0       0       0
       0       0       0       0       0       0       0       0       0       0
       0       0       0       0       0       0       0       0       0       0
       0       0       0       0       0       0       0       0       0       0
       0       0       0       0       0       0       0       0       0       0
       0       0       0       0       0       0       0       0       0       0
       0       0       0       0       0       0       0       0       0       0
       0       0       0       0       0       0       0       0       0       0
       0       0       0       0       0       0       0       0       0       0
       0       0       0       0       0       0       0       0       0       0
       0       0       0       0       0       0       0       0       0       0
       0       0       0       0       0       0       0       0       0       0
       0       0       0       0       0       0       0       0       0       0
       0       0       0       0       0       0       0       0       0       0
       0       0       0       0       0       0       0       0       0       0
       0       0       0       0       0       0       0       0       0       0
       0       0       0       0       0       0       0       0       0       0
       0       0       0       0       0       0       0       0       0       0
       0       0       0       0       0       0       0       0       0       0
       0       0       0       0       0       0       0       0       0       0
       0       0       0       0       0       0       0       0       0       0
       0       0       0       0       0       0       0       0       0       0
       0       0       0       0       0       0       0       0       0       0
       0       0       0       0       0       0       0       0       0       0
       0       0       0       0       0       0       0       0       0       0
       0       0       0       0       0       0       0       0       0       0
       0       0       0       0       0       0       0       0       0       0
       0       0       0       0       0       0       0       0       0       0
       0       0       0       0       0       0       0       0       0       0
       0       0       0       0       0       0       0       0       0       0
       0       0       0       0       0       0       0       0       0       0
       0       0       0       0       0       0       0       0       0       0
       0       0       0       0       0       0       0       0       0       0
       0       0       0       0       0       0       0       0       0       0
       0       0       0       0       0       0       0       0       0       0
       0       0       0       0       0       0       0       0       0       0
       0       0       0       0       0       0       0       0       0       0
       0       0       0       0       0       0       0       0       0       0
       0       0       0       0       0       0       0       0       0       0
       0       0       0       0       0       0       0       0       0       0
       0       0       0       0       0       0       0       0       0       0
       0       0       0       0       0       0       0       0       0       0
       0       0       0       0       0       0       0       0       0       0
       0       0       0       0       0       0       0       0       0       0
       0       0       0       0       0       0       0       0       0       0
       0       0       0       0       0       0       0       0       0       0
       0       0       0       0       0       0       0       0       0       0
       0       0       0       0       0       0       0       0       0       0
       0       0       0       0       0       0       0       0       0       0
       0       0       0       0       0       0       0       0       0       0
       0       0       0       0       0       0       0       0       0       0
       0       0       0       0       0       0       0       0       0       0
       0       0       0       0       0       0       0       0       0       0
       0       0       0       0       0       0       0       0       0       0
       0       0       0       0       0       0       0       0       0       0
       0       0       0       0       0       0       0       0       0       0
       0       0       0       0       0       0       0       0       0       0
       0       0       0       0       0       0       0       0       0       0
       0       0       0       0       0       0       0       0       0       0
       0       0       0       0       0       0       0       0       0       0
       0       0       0       0       0       0       0       0       0       0
       0       0       0       0       0       0       0       0       0       0
       0       0       0       0       0       0       0       0       0       0
       0       0       0       0       0       0       0       0       0       0
       0       0       0       0       0       0       0       0       0       0
       0       0       0       0       0       0       0       0       0       0
       0       0       0       0       0       0       0       0       0       0
       0       0       0       0       0       0       0       0       0       0
       0       0       0       0       0       0       0       0       0       0
       0       0       0       0       0       0       0       0       0       0
       0       0       0       0       0       0       0       0       0       0
       0       0       0       0       0       0       0       0       0       0
       0       0       0       0       0       0       0       0       0       0
       0       0       0       0       0       0       0       0       0       0
       0       0       0       0       0       0       0       0       0       0
       0       0       0       0       0       0       0       0       0       0
       0       0       0       0       0       0       0       0       0       0
       0       0       0       0       0       0       0       0       0       0
       0       0       0       0       0       0       0       0       0       0
       0       0       0       0       0       0       0       0       0       0
       0       0       0       0       0       0       0       0       0       0
       0       0       0       0       0       0       0       0       0       0
       0       0       0       0       0       0       0       0       0       0
       0       0       0       0       0       0       0       0       0       0
       0       0       0       0       0       0       0       0       0       0
       0       0       0       0       0       0       0       0       0       0
       0       0       0       0       0       0       0       0       0       0
       0       0       0       0       0       0       0       0       0       0
       0       0       0       0       0       0       0       0       0       0
       0       0       0       0       0       0       0       0       0       0
       0       0       0       0       0       0       0       0       0       0
       0       0       0       0       0       0       0       0       0       0
       0       0       0       0       0       0       0       0       0       0
       0       0       0       0       0       0       0       0       0       0
       0       0       0       0       0       0       0       0       0       0
       0       0       0       0       0       0       0       0       0       0
       0       0       0       0       0       0       0       0       0       0
       0       0       0       0       0       0       0       0       0       0
       0       0       0       0       0       0       0       0       0       0
       0       0       0       0       0       0       0       0       0       0
       0       0       0       0       0       0       0       0       0       0
       0       0       0       0       0       0       0       0       0       0
       0       0       0       0       0       0       0       0       0       0
       0       0       0       0       0       0       0       0       0       0
       0       0       0       0       0       0       0       0       0       0
       0       0       0       0       0       0       0       0       0       0
       0       0       0       0       0       0       0       0       0       0
       0       0       0       0       0       0       0       0       0       0
       0       0       0       0       0       0       0       0       0       0
       0       0       0       0       0       0       0       0       0       0
       0       0       0       0       0       0       0       0       0       0
       0       0       0       0       0       0       0       0       0       0
       0       0       0       0       0       0       0       0       0       0
       0       0       0       0       0       0       0       0       0       0
       0       0       0       0       0       0       0       0       0       0
       0       0       0       0       0       0       0       0       0       0
       0       0       0       0       0       0       0       0       0       0
       0       0       0       0       0       0       0       0       0       0
       0       0       0       0       0       0       0       0       0       0
       0       0       0       0       0       0       0       0       0       0
       0       0       0       0       0       0       0       0       0       0
       0       0       0       0       0       0       0       0       0       0
       0       0       0       0       0       0       0       0       0       0
       0       0       0       0       0       0       0       0       0       0
       0       0       0       0       0       0       0       0       0       0
       0       0       0       0       0       0       0       0       0       0
       0       0       0       0       0       0       0       0       0       0
       0       0       0       0       0       0       0       0       0       0
       0       0       0       0       0       0       0       0       0       0
       0       0       0       0       0       0       0       0       0       0
       0       0       0       0       0       0       0       0       0       0
       0       0       0       0       0       0       0       0       0       0
       0       0       0       0       0       0       0       0       0       0
       0       0       0       0       0       0       0       0       0       0
       0       0       0       0       0       0       0       0       0       0
       0       0       0       0       0       0       0       0       0       0
       0       0       0       0       0       0       0       0       0       0
       0       0       0       0       0       0       0       0       0       0
       0       0       0       0       0       0       0       0       0       0
       0       0       0       0       0       0       0       0       0       0
       0       0       0       0       0       0       0       0       0       0
       0       0       0       0       0       0       0       0       0       0
       0       0       0       0       0       0       0       0       0       0
       0       0       0       0       0       0       0       0       0       0
       0       0       0       0       0       0       0       0       0       0
       0       0       0       0       0       0       0       0       0       0
       0       0       0       0       0       0       0       0       0       0
       0       0       0       0       0       0       0       0       0       0
       0       0       0       0       0       0       0       0       0       0
       0       0       0       0       0       0       0       0       0       0
       0       0       0       0       0       0       0       0       0       0
       0       0       0       0       0       0       0       0       0       0
       0       0       0       0       0       0       0       0       0       0
       0       0       0       0       0       0       0       0       0       0
       0       0       0       0       0       0       0       0       0       0
       0       0       0       0       0       0       0       0       0       0
       0       0       0       0       0       0       0       0       0       0
       0       0       0       0       0       0       0       0       0       0
       0       0       0       0       0       0       0       0       0       0
       0       0       0       0       0       0       0       0       0       0
       0       0       0       0       0       0       0       0       0       0
       0       0       0       0       0       0       0       0       0       0
       0       0       0       0       0       0       0       0       0       0
       0       0       0       0       0       0       0       0       0       0
       0       0       0       0       0       0       0       0       0       0
       0       0       0       0       0       0       0       0       0       0
       0       0       0       0       0       0       0       0       0       0
       0       0       0       0       0       0       0       0       0       0
       0       0       0       0       0       0       0       0       0       0
       0       0       0       0       0       0       0       0       0       0
       0       0       0       0       0       0       0       0       0       0
       0       0       0       0       0       0       0       0       0       0
       0       0       0       0       0       0       0       0       0       0
       0       0       0       0       0       0       0       0       0       0
       0       0       0       0       0       0       0       0       0       0
       0       0       0       0       0       0       0       0       0       0
       0       0       0       0       0       0       0       0       0       0
       0       0       0       0       0       0       0       0       0       0
       0       0       0       0       0       0       0       0       0       0
       0       0       0       0       0       0       0       0       0       0
       0       0       0       0       0       0       0       0       0       0
       0       0       0       0       0       0       0       0       0       0
       0       0       0       0       0       0       0       0       0       0
       0       0       0       0       0       0       0       0       0       0
       0       0       0       0       0       0       0       0       0       0
       0       0       0       0       0       0       0       0       0       0
       0       0       0       0       0       0       0       0       0       0
       0       0       0       0       0       0       0       0       0       0
       0       0       0       0       0       0       0       0       0       0
       0       0       0       0       0       0       0       0       0       0
       0       0       0       0       0       0       0       0       0       0
       0       0       0       0       0       0       0       0       0       0
       0       0       0       0       0       0       0       0       0       0
       0       0       0       0       0       0       0       0       0       0
       0       0       0       0       0       0       0       0       0       0
       0       0       0       0       0       0       0       0       0       0
       0       0       0       0       0       0       0       0       0       0
       0       0       0       0       0       0       0       0       0       0
       0       0       0       0       0       0       0       0       0       0
       0       0       0       0       0       0       0       0       0       0
       0       0       0       0       0       0       0       0       0       0
       0       0       0       0       0       0       0       0       0       0
       0       0       0       0       0       0       0       0       0       0
       0       0       0       0       0       0       0       0       0       0
       0       0       0       0       0       0       0       0       0       0
       0       0       0       0       0       0       0       0       0       0
       0       0       0       0       0       0       0       0       0       0
       0       0       0       0       0       0       0       0       0       0
       0       0       0       0       0       0       0       0       0       0
       0       0       0       0       0       0       0       0       0       0
       0       0       0       0       0       0       0       0       0       0
       0       0       0       0       0       0       0       0       0       0
       0       0       0       0       0       0       0       0       0       0
       0       0       0       0       0       0       0       0       0       0
       0       0       0       0       0       0       0       0       0       0
       0       0       0       0       0       0       0       0       0       0
       0       0       0       0       0       0       0       0       0       0
       0       0       0       0       0       0       0       0       0       0
       0       0       0       0       0       0       0       0       0       0
       0       0       0       0       0       0       0       0       0       0
       0       0       0       0       0       0       0       0       0       0
       0       0       0       0       0       0       0       0       0       0
       0       0       0       0       0       0       0       0       0       0
       0       0       0       0       0       0       0       0       0       0
       0       0       0       0       0       0       0       0       0       0
       0       0       0       0       0       0       0       0       0       0
       0       0       0       0       0       0       0       0       0       0
       0       0       0       0       0       0       0       0       0       0
       0       0       0       0       0       0       0       0       0       0
       0       0       0       0       0       0       0       0       0       0
       0       0       0       0       0       0       0       0       0       0
       0       0       0       0       0       0       0       0       0       0
       0       0       0       0       0       0       0       0       0       0
       0       0       0       0       0       0       0       0       0       0
       0       0       0       0       0       0       0       0       0       0
       0       0       0       0       0       0       0       0       0       0
       0       0       0       0       0       0       0       0       0       0
       0       0       0       0       0       0       0       0       0       0
       0       0       0       0       0       0       0       0       0       0
       0       0       0       0       0       0       0       0       0       0
       0       0       0       0       0       0       0       0       0       0
       0       0       0       0       0       0       0       0       0       0
       0       0       0       0       0       0       0       0       0       0
       0       0       0       0       0       0       0       0       0       0
       0       0       0       0       0       0       0       0       0       0
       0       0       0       0       0       0       0       0       0       0
       0       0       0       0       0       0       0       0       0       0
       0       0       0       0       0       0       0       0       0       0
       0       0       0       0       0       0       0       0       0       0
       0       0       0       0       0       0       0       0       0       0
       0       0       0       0       0       0       0       0       0       0
       0       0       0       0       0       0       0       0       0       0
       0       0       0       0       0       0       0       0       0       0
       0       0       0       0       0       0       0       0       0       0
       0       0       0       0       0       0       0       0       0       0
       0       0       0       0       0       0       0       0       0       0
       0       0       0       0       0       0       0       0       0       0
       0       0       0       0       0       0       0       0       0       0
       0       0       0       0       0       0       0       0       0       0
       0       0       0       0       0       0       0       0       0       0
       0       0       0       0       0       0       0       0       0       0
       0       0       0       0       0       0       0       0       0       0
       0       0       0       0       0       0       0       0       0       0
       0       0       0       0       0       0       0       0       0       0
       0       0       0       0       0       0       0       0       0       0
       0       0       0       0       0       0       0       0       0       0
       0       0       0       0       0       0       0       0       0       0
       0       0       0       0       0       0       0       0       0       0
       0       0       0       0       0       0       0       0       0       0
       0       0       0       0       0       0       0       0       0       0
       0       0       0       0       0       0       0       0       0       0
       0       0       0       0       0       0       0       0       0       0
       0       0       0       0       0       0       0       0       0       0
       0       0       0       0       0       0       0       0       0       0
       0       0       0       0       0       0       0       0       0       0
       0       0       0       0       0       0       0       0       0       0
       0       0       0       0       0       0       0       0       0       0
       0       0       0       0       0       0       0       0       0       0
       0       0       0       0       0       0       0       0       0       0
       0       0       0       0       0       0       0       0       0       0
       0       0       0       0       0       0       0       0       0       0
       0       0       0       0       0       0       0       0       0       0
       0       0       0       0       0       0       0       0       0       0
       0       0       0       0       0       0       0       0       0       0
       0       0       0       0       0       0       0       0       0       0
       0       0       0       0       0       0       0       0       0       0
       0       0       0       0       0       0       0       0       0       0
       0       0       0       0       0       0       0       0       0       0
       0       0       0       0       0       0       0       0       0       0
       0       0       0       0       0       0       0       0       0       0
       0       0       0       0       0       0       0       0       0       0
       0       0       0       0       0       0       0       0       0       0
       0       0       0       0       0       0       0       0       0       0
       0       0       0       0       0       0       0       0       0       0
       0       0       0       0       0       0       0       0       0       0
       0       0       0       0       0       0       0       0       0       0
       0       0       0       0       0       0       0       0       0       0
       0       0       0       0       0       0       0       0       0       0
       0       0       0       0       0       0       0       0       0       0
       0       0       0       0       0       0       0       0       0       0
       0       0       0       0       0       0       0       0       0       0
       0       0       0       0       0       0       0       0       0       0
       0       0       0       0       0       0       0       0       0       0
       0       0       0       0       0       0       0       0       0       0
       0       0       0       0       0       0       0       0       0       0
       0       0       0       0       0       0       0       0       0       0
       0       0       0       0       0       0       0       0       0       0
       0       0       0       0       0       0       0       0       0       0
       0       0       0       0       0       0       0       0       0       0
       0       0       0       0       0       0       0       0       0       0
       0       0       0       0       0       0       0       0       0       0
       0       0       0       0       0       0       0       0       0       0
       0       0       0       0       0       0       0       0       0       0
       0       0       0       0       0       0       0       0       0       0
       0       0       0       0       0       0       0       0       0       0
       0       0       0       0       0       0       0       0       0       0
       0       0       0       0       0       0       0       0       0       0
       0       0       0       0       0       0       0       0       0       0
       0       0       0       0       0       0       0       0       0       0
       0       0       0       0       0       0       0       0       0       0
       0       0       0       0       0       0       0       0       0       0
       0       0       0       0       0       0       0       0       0       0
       0       0       0       0       0       0       0       0       0       0
       0       0       0       0       0       0       0       0       0       0
       0       0       0       0       0       0       0       0       0       0
       0       0       0       0       0       0       0       0       0       0
       0       0       0       0       0       0       0       0       0       0
       0       0       0       0       0       0       0       0       0       0
       0       0       0       0       0       0       0       0       0       0
       0       0       0       0       0       0       0       0       0       0
       0       0       0       0       0       0       0       0       0       0
       0       0       0       0       0       0       0       0       0       0
       0       0       0       0       0       0       0       0       0       0
       0       0       0       0       0       0       0       0       0       0
       0       0       0       0       0       0       0       0       0       0
       0       0       0       0       0       0       0       0       0       0
       0       0       0       0       0       0       0       0       0       0
       0       0       0       0       0       0       0       0       0       0
       0       0       0       0       0       0       0       0       0       0
       0       0       0       0       0       0       0       0       0       0
       0       0       0       0       0       0       0       0       0       0
       0       0       0       0       0       0       0       0       0       0
       0       0       0       0       0       0       0       0       0       0
       0       0       0       0       0       0       0       0       0       0
       0       0       0       0       0       0       0       0       0       0
       0       0       0       0       0       0       0       0       0       0
       0       0       0       0       0       0       0       0       0       0
       0       0       0       0       0       0       0       0       0       0
       0       0       0       0       0       0       0       0       0       0
       0       0       0       0       0       0       0       0       0       0
       0       0       0       0       0       0       0       0       0       0
       0       0       0       0       0       0       0       0       0       0
       0       0       0       0       0       0       0       0       0       0
       0       0       0       0       0       0       0       0       0       0
       0       0       0       0       0       0       0       0       0       0
       0       0       0       0       0       0       0       0       0       0
       0       0       0       0       0       0       0       0       0       0
       0       0       0       0       0       0       0       0       0       0
       0       0       0       0       0       0       0       0       0       0
       0       0       0       0       0       0       0       0       0       0
       0       0       0       0       0       0       0       0       0       0
       0       0       0       0       0       0       0       0       0       0
       0       0       0       0       0       0       0       0       0       0
       0       0       0       0       0       0       0       0       0       0
       0       0       0       0       0       0       0       0       0       0
       0       0       0       0       0       0       0       0       0       0
       0       0       0       0       0       0       0       0       0       0
       0       0       0       0       0       0       0       0       0       0
       0       0       0       0       0       0       0       0       0       0
       0       0       0       0       0       0       0       0       0       0
       0       0       0       0       0       0       0       0       0       0
       0       0       0       0       0       0       0       0       0       0
       0       0       0       0       0       0       0       0       0       0
       0       0       0       0       0       0       0       0       0       0
       0       0       0       0       0       0       0       0       0       0
       0       0       0       0       0       0       0       0       0       0
       0       0       0       0       0       0       0       0       0       0
       0       0       0       0       0       0       0       0       0       0
       0       0       0       0       0       0       0       0       0       0
       0       0       0       0       0       0       0       0       0       0
       0       0       0       0       0       0       0       0       0       0
       0       0       0       0       0       0       0       0       0       0
       0       0       0       0       0       0       0       0       0       0
       0       0       0       0       0       0       0       0       0       0
       0       0       0       0       0       0       0       0       0       0
       0       0       0       0       0       0       0       0       0       0
       0       0       0       0       0       0       0       0       0       0
       0       0       0       0       0       0       0       0       0       0
       0       0       0       0       0       0       0       0       0       0
       0       0       0       0       0       0       0       0       0       0
       0       0       0       0       0       0       0       0       0       0
       0       0       0       0       0       0       0       0       0       0
       0       0       0       0       0       0       0       0       0       0
       0       0       0       0       0       0       0       0       0       0
       0       0       0       0       0       0       0       0       0       0
       0       0       0       0       0       0       0       0       0       0
       0       0       0       0       0       0       0       0       0       0
       0       0       0       0       0       0       0       0       0       0
       0       0       0       0       0       0       0       0       0       0
       0       0       0       0       0       0       0       0       0       0
       0       0       0       0       0       0       0       0       0       0
       0       0       0       0       0       0       0       0       0       0
       0       0       0       0       0       0       0       0       0       0
       0       0       0       0       0       0       0       0       0       0
       0       0       0       0       0       0       0       0       0       0
       0       0       0       0       0       0       0       0       0       0
       0       0       0       0       0       0       0       0       0       0
       0       0       0       0       0       0       0       0       0       0
       0       0       0       0       0       0       0       0       0       0
       0       0       0       0       0       0       0       0       0       0
       0       0       0       0       0       0       0       0       0       0
       0       0       0       0       0       0       0       0       0       0
       0       0       0       0       0       0       0       0       0       0
       0       0       0       0       0       0       0       0       0       0
       0       0       0       0       0       0       0       0       0       0
       0       0       0       0       0       0       0       0       0       0
       0       0       0       0       0       0       0       0       0       0
       0       0       0       0       0       0       0       0       0       0
       0       0       0       0       0       0       0       0       0       0
       0       0       0       0       0       0       0       0       0       0
       0       0       0       0       0       0       0       0       0       0
       0       0       0       0       0       0       0       0       0       0
       0       0       0       0       0       0       0       0       0       0
       0       0       0       0       0       0       0       0       0       0
       0       0       0       0       0       0       0       0       0       0
       0       0       0       0       0       0       0       0       0       0
       0       0       0       0       0       0       0       0       0       0
       0       0       0       0       0       0       0       0       0       0
       0       0       0       0       0       0       0       0       0       0
       0       0       0       0       0       0       0       0       0       0
       0       0       0       0       0       0       0       0       0       0
       0       0       0       0       0       0       0       0       0       0
       0       0       0       0       0       0       0       0       0       0
       0       0       0       0       0       0       0       0       0       0
       0       0       0       0       0       0       0       0       0       0
       0       0       0       0       0       0       0       0       0       0
       0       0       0       0       0       0       0       0       0       0
       0       0       0       0       0       0       0       0       0       0
       0       0       0       0       0       0       0       0       0       0
       0       0       0       0       0       0       0       0       0       0
       0       0       0       0       0       0       0       0       0       0
       0       0       0       0       0       0       0       0       0       0
       0       0       0       0       0       0       0       0       0       0
       0       0       0       0       0       0       0       0       0       0
       0       0       0       0       0       0       0       0       0       0
       0       0       0       0       0       0       0       0       0       0
       0       0       0       0       0       0       0       0       0       0
       0       0       0       0       0       0       0       0       0       0
       0       0       0       0       0       0       0       0       0       0
       0       0       0       0       0       0       0       0       0       0
       0       0       0       0       0       0       0       0       0       0
       0       0       0       0       0       0       0       0       0       0
       0       0       0       0       0       0       0       0       0       0
       0       0       0       0       0       0       0       0       0       0
       0       0       0       0       0       0       0       0       0       0
       0       0       0       0       0       0       0       0       0       0
       0       0       0       0       0       0       0       0       0       0
       0       0       0       0       0       0       0       0       0       0
       0       0       0       0       0       0       0       0       0       0
       0       0       0       0       0       0       0       0       0       0
       0       0       0       0       0       0       0       0       0       0
       0       0       0       0       0       0       0       0       0       0
       0       0       0       0       0       0       0       0       0       0
       0       0       0       0       0       0       0       0       0       0
       0       0       0       0       0       0       0       0       0       0
       0       0       0       0       0       0       0       0       0       0
       0       0       0       0       0       0       0       0       0       0
       0       0       0       0       0       0       0       0       0       0
       0       0       0       0       0       0       0       0       0       0
       0       0       0       0       0       0       0       0       0       0
       0       0       0       0       0       0       0       0       0       0
       0       0       0       0       0       0       0       0       0       0
       0       0       0       0       0       0       0       0       0       0
       0       0       0       0       0       0       0       0       0       0
       0       0       0       0       0       0       0       0       0       0
       0       0       0       0       0       0       0       0       0       0
       0       0       0       0       0       0       0       0       0       0
       0       0       0       0       0       0       0       0       0       0
       0       0       0       0       0       0       0       0       0       0
       0       0       0       0       0       0       0       0       0       0
       0       0       0       0       0       0       0       0       0       0
       0       0       0       0       0       0       0       0       0       0
       0       0       0       0       0       0       0       0       0       0
       0       0       0       0       0       0       0       0       0       0
       0       0       0       0       0       0       0       0       0       0
       0       0       0       0       0       0       0       0       0       0
       0       0       0       0       0       0       0       0       0       0
       0       0       0       0       0       0       0       0       0       0
       0       0       0       0       0       0       0       0       0       0
       0       0       0       0       0       0       0       0       0       0
       0       0       0       0       0       0       0       0       0       0
       0       0       0       0       0       0       0       0       0       0
       0       0       0       0       0       0       0       0       0       0
       0       0       0       0       0       0       0       0       0       0
       0       0       0       0       0       0       0       0       0       0
       0       0       0       0       0       0       0       0       0       0
       0       0       0       0       0       0       0       0       0       0
       0       0       0       0       0       0       0       0       0       0
       0       0       0       0       0       0       0       0       0       0
       0       0       0       0       0       0       0       0       0       0
       0       0       0       0       0       0       0       0       0       0
       0       0       0       0       0       0       0       0       0       0
       0       0       0       0       0       0       0       0       0       0
       0       0       0       0       0       0       0       0       0       0
       0       0       0       0       0       0       0       0       0       0
       0       0       0       0       0       0       0       0       0       0
       0       0       0       0       0       0       0       0       0       0
       0       0       0       0       0       0       0       0       0       0
       0       0       0       0       0       0       0       0       0       0
       0       0       0       0       0       0       0       0       0       0
       0       0       0       0       0       0       0       0       0       0
       0       0       0       0       0       0       0       0       0       0
       0       0       0       0       0       0       0       0       0       0
       0       0       0       0       0       0       0       0       0       0
       0       0       0       0       0       0       0       0       0       0
       0       0       0       0       0       0       0       0       0       0
       0       0       0       0       0       0       0       0       0       0
       0       0       0       0       0       0       0       0       0       0
       0       0       0       0       0       0       0       0       0       0
       0       0       0       0       0       0       0       0       0       0
       0       0       0       0       0       0       0       0       0       0
       0       0       0       0       0       0       0       0       0       0
       0       0       0       0       0       0       0       0       0       0
       0       0       0       0       0       0       0       0       0       0
       0       0       0       0       0       0       0       0       0       0
       0       0       0       0       0       0       0       0       0       0
       0       0       0       0       0       0       0       0       0       0
       0       0       0       0       0       0       0       0       0       0
       0       0       0       0       0       0       0       0       0       0
       0       0       0       0       0       0       0       0       0       0
       0       0       0       0       0       0       0       0       0       0
       0       0       0       0       0       0       0       0       0       0
       0       0       0       0       0       0       0       0       0       0
       0       0       0       0       0       0       0       0       0       0
       0       0       0       0       0       0       0       0       0       0
       0       0       0       0       0       0       0       0       0       0
       0       0       0       0       0       0       0       0       0       0
       0       0       0       0       0       0       0       0       0       0
       0       0       0       0       0       0       0       0       0       0
       0       0       0       0       0       0       0       0       0       0
       0       0       0       0       0       0       0       0       0       0
       0       0       0       0       0       0       0       0       0       0
       0       0       0       0       0       0       0       0       0       0
       0       0       0       0       0       0       0       0       0       0
       0       0       0       0       0       0       0       0       0       0
       0       0       0       0       0       0       0       0       0       0
       0       0       0       0       0       0       0       0       0       0
       0       0       0       0       0       0       0       0       0       0
       0       0       0       0       0       0       0       0       0       0
       0       0       0       0       0       0       0       0       0       0
       0       0       0       0       0       0       0       0       0       0
       0       0       0       0       0       0       0       0       0       0
       0       0       0       0       0       0       0       0       0       0
       0       0       0       0       0       0       0       0       0       0
       0       0       0       0       0       0       0       0       0       0
       0       0       0       0       0       0       0       0       0       0
       0       0       0       0       0       0       0       0       0       0
       0       0       0       0       0       0       0       0       0       0
       0       0       0       0       0       0       0       0       0       0
       0       0       0       0       0       0       0       0       0       0
       0       0       0       0       0       0       0       0       0       0
       0       0       0       0       0       0       0       0       0       0
       0       0       0       0       0       0       0       0       0       0
       0       0       0       0       0       0       0       0       0       0
       0       0       0       0       0       0       0       0       0       0
       0       0       0       0       0       0       0       0       0       0
       0       0       0       0       0       0       0       0       0       0
       0       0       0       0       0       0       0       0       0       0
       0       0       0       0       0       0       0       0       0       0
       0       0       0       0       0       0       0       0       0       0
       0       0       0       0       0       0       0       0       0       0
       0       0       0       0       0       0       0       0       0       0
       0       0       0       0       0       0       0       0       0       0
       0       0       0       0       0       0       0       0       0       0
       0       0       0       0       0       0       0       0       0       0
       0       0       0       0       0       0       0       0       0       0
       0       0       0       0       0       0       0       0       0       0
       0       0       0       0       0       0       0       0       0       0
       0       0       0       0       0       0       0       0       0       0
       0       0       0       0       0       0       0       0       0       0
       0       0       0       0       0       0       0       0       0       0
       0       0       0       0       0       0       0       0       0       0
       0       0       0       0       0       0       0       0       0       0
       0       0       0       0       0       0       0       0       0       0
       0       0       0       0       0       0       0       0       0       0
       0       0       0       0       0       0       0       0       0       0
       0       0       0       0       0       0       0       0       0       0
       0       0       0       0       0       0       0       0       0       0
       0       0       0       0       0       0       0       0       0       0
       0       0       0       0       0       0       0       0       0       0
       0       0       0       0       0       0       0       0       0       0
       0       0       0       0       0       0       0       0       0       0
       0       0       0       0       0       0       0       0       0       0
       0       0       0       0       0       0       0       0       0       0
       0       0       0       0       0       0       0       0       0       0
       0       0       0       0       0       0       0       0       0       0
       0       0       0       0       0       0       0       0       0       0
       0       0       0       0       0       0       0       0       0       0
       0       0       0       0       0       0       0       0       0       0
       0       0       0       0       0       0       0       0       0       0
       0       0       0       0       0       0       0       0       0       0
       0       0       0       0       0       0       0       0       0       0
       0       0       0       0       0       0       0       0       0       0
       0       0       0       0       0       0       0       0       0       0
       0       0       0       0       0       0       0       0       0       0
       0       0       0       0       0       0       0       0       0       0
       0       0       0       0       0       0       0       0       0       0
       0       0       0       0       0       0       0       0       0       0
       0       0       0       0       0       0       0       0       0       0
       0       0       0       0       0       0       0       0       0       0
       0       0       0       0       0       0       0       0       0       0
       0       0       0       0       0       0       0       0       0       0
       0       0       0       0       0       0       0       0       0       0
       0       0       0       0       0       0       0       0       0       0
       0       0       0       0       0       0       0       0       0       0
       0       0       0       0       0       0       0       0       0       0
       0       0       0       0       0       0       0       0       0       0
       0       0       0       0       0       0       0       0       0       0
       0       0       0       0       0       0       0       0       0       0
       0       0       0       0       0       0       0       0       0       0
       0       0       0       0       0       0       0       0       0       0
       0       0       0       0       0       0       0       0       0       0
       0       0       0       0       0       0       0       0       0       0
       0       0       0       0       0       0       0       0       0       0
       0       0       0       0       0       0       0       0       0       0
       0       0       0       0       0       0       0       0       0       0
       0       0       0       0       0       0       0       0       0       0
       0       0       0       0       0       0       0       0       0       0
       0       0       0       0       0       0       0       0       0       0
       0       0       0       0       0       0       0       0       0       0
       0       0       0       0       0       0       0       0       0       0
       0       0       0       0       0       0       0       0       0       0
       0       0       0       0       0       0       0       0       0       0
       0       0       0       0       0       0       0       0       0       0
       0       0       0       0       0       0       0       0       0       0
       0       0       0       0       0       0       0       0       0       0
       0       0       0       0       0       0       0       0       0       0
       0       0       0       0       0       0       0       0       0       0
       0       0       0       0       0       0       0       0       0       0
       0       0       0       0       0       0       0       0       0       0
       0       0       0       0       0       0       0       0       0       0
       0       0       0       0       0       0       0       0       0       0
       0       0       0       0       0       0       0       0       0       0
       0       0       0       0       0       0       0       0       0       0
       0       0       0       0       0       0       0       0       0       0
       0       0       0       0       0       0       0       0       0       0
       0       0       0       0       0       0       0       0       0       0
       0       0       0       0       0       0       0       0       0       0
       0       0       0       0       0       0       0       0       0       0
       0       0       0       0       0       0       0       0       0       0
       0       0       0       0       0       0       0       0       0       0
       0       0       0       0       0       0       0       0       0       0
       0       0       0       0       0       0       0       0       0       0
       0       0       0       0       0       0       0       0       0       0
       0       0       0       0       0       0       0       0       0       0
       0       0       0       0       0       0       0       0       0       0
       0       0       0       0       0       0       0       0       0       0
       0       0       0       0       0       0       0       0       0       0
       0       0       0       0       0       0       0       0       0       0
       0       0       0       0       0       0       0       0       0       0
       0       0       0       0       0       0       0       0       0       0
       0       0       0       0       0       0       0       0       0       0
       0       0       0       0       0       0       0       0       0       0
       0       0       0       0       0       0       0       0       0       0
       0       0       0       0       0       0       0       0       0       0
       0       0       0       0       0       0       0       0       0       0
       0       0       0       0       0       0       0       0       0       0
       0       0       0       0       0       0       0       0       0       0
       0       0       0       0       0       0       0       0       0       0
       0       0       0       0       0       0       0       0       0       0
       0       0       0       0       0       0       0       0       0       0
       0       0       0       0       0       0       0       0       0       0
       0       0       0       0       0       0       0       0       0       0
       0       0       0       0       0       0       0       0       0       0
       0       0       0       0       0       0       0       0       0       0
       0       0       0       0       0       0       0       0       0       0
       0       0       0       0       0       0       0       0       0       0
       0       0       0       0       0       0       0       0       0       0
       0       0       0       0       0       0       0       0       0       0
       0       0       0       0       0       0       0       0       0       0
       0       0       0       0       0       0       0       0       0       0
       0       0       0       0       0       0       0       0       0       0
       0       0       0       0       0       0       0       0       0       0
       0       0       0       0       0       0       0       0       0       0
       0       0       0       0       0       0       0       0       0       0
       0       0       0       0       0       0       0       0       0       0
       0       0       0       0       0       0       0       0       0       0
       0       0       0       0       0       0       0       0       0       0
       0       0       0       0       0       0       0       0       0       0
       0       0       0       0       0       0       0       0       0       0
       0       0       0       0       0       0       0       0       0       0
       0       0       0       0       0       0       0       0       0       0
       0       0       0       0       0       0       0       0       0       0
       0       0       0       0       0       0       0       0       0       0
       0       0       0       0       0       0       0       0       0       0
       0       0       0       0       0       0       0       0       0       0
       0       0       0       0       0       0       0       0       0       0
       0       0       0       0       0       0       0       0       0       0
       0       0       0       0       0       0       0       0       0       0
       0       0       0       0       0       0       0       0       0       0
       0       0       0       0       0       0       0       0       0       0
       0       0       0       0       0       0       0       0       0       0
       0       0       0       0       0       0       0       0       0       0
       0       0       0       0       0       0       0       0       0       0
       0       0       0       0       0       0       0       0       0       0
       0       0       0       0       0       0       0       0       0       0
       0       0       0       0       0       0       0       0       0       0
       0       0       0       0       0       0       0       0       0       0
       0       0       0       0       0       0       0       0       0       0
       0       0       0       0       0       0       0       0       0       0
       0       0       0       0       0       0       0       0       0       0
       0       0       0       0       0       0       0       0       0       0
       0       0       0       0       0       0       0       0       0       0
       0       0       0       0       0       0       0       0       0       0
       0       0       0       0       0       0       0       0       0       0
       0       0       0       0       0       0       0       0       0       0
       0       0       0       0       0       0       0       0       0       0
       0       0       0       0       0       0       0       0       0       0
       0       0       0       0       0       0       0       0       0       0
       0       0       0       0       0       0       0       0       0       0
       0       0       0       0       0       0       0       0       0       0
       0       0       0       0       0       0       0       0       0       0
       0       0       0       0       0       0       0       0       0       0
       0       0       0       0       0       0       0       0       0       0
       0       0       0       0       0       0       0       0       0       0
       0       0       0       0       0       0       0       0       0       0
       0       0       0       0       0       0       0       0       0       0
       0       0       0       0       0       0       0       0       0       0
       0       0       0       0       0       0       0       0       0       0
       0       0       0       0       0       0       0       0       0       0
       0       0       0       0       0       0       0       0       0       0
       0       0       0       0       0       0       0       0       0       0
       0       0       0       0       0       0       0       0       0       0
       0       0       0       0       0       0       0       0       0       0
       0       0       0       0       0       0       0       0       0       0
       0       0       0       0       0       0       0       0       0       0
       0       0       0       0       0       0       0       0       0       0
       0       0       0       0       0       0       0       0       0       0
       0       0       0       0       0       0       0       0       0       0
       0       0       0       0       0       0       0       0       0       0
       0       0       0       0       0       0       0       0       0       0
       0       0       0       0       0       0       0       0       0       0
       0       0       0       0       0       0       0       0       0       0
       0       0       0       0       0       0       0       0       0       0
       0       0       0       0       0       0       0       0       0       0
       0       0       0       0       0       0       0       0       0       0
       0       0       0       0       0       0       0       0       0       0
       0       0       0       0       0       0       0       0       0       0
       0       0       0       0       0       0       0       0       0       0
       0       0       0       0       0       0       0       0       0       0
       0       0       0       0       0       0       0       0       0       0
       0       0       0       0       0       0       0       0       0       0
       0       0       0       0       0       0       0       0       0       0
       0       0       0       0       0       0       0       0       0       0
       0       0       0       0       0       0       0       0       0       0
       0       0       0       0       0       0       0       0       0       0
       0       0       0       0       0       0       0       0       0       0
       0       0       0       0       0       0       0       0       0       0
       0       0       0       0       0       0       0       0       0       0
       0       0       0       0       0       0       0       0       0       0
       0       0       0       0       0       0       0       0       0       0
       0       0       0       0       0       0       0       0       0       0
       0       0       0       0       0       0       0       0       0       0
       0       0       0       0       0       0       0       0       0       0
       0       0       0       0       0       0       0       0       0       0
       0       0       0       0       0       0       0       0       0       0
       0       0       0       0       0       0       0       0       0       0
       0       0       0       0       0       0       0       0       0       0
       0       0       0       0       0       0       0       0       0       0
       0       0       0       0       0       0       0       0       0       0
       0       0       0       0       0       0       0       0       0       0
       0       0       0       0       0       0       0       0       0       0
       0       0       0       0       0       0       0       0       0       0
       0       0       0       0       0       0       0       0       0       0
       0       0       0       0       0       0       0       0       0       0
       0       0       0       0       0       0       0       0       0       0
       0       0       0       0       0       0       0       0       0       0
       0       0       0       0       0       0       0       0       0       0
       0       0       0       0       0       0       0       0       0       0
       0       0       0       0       0       0       0       0       0       0
       0       0       0       0       0       0       0       0       0       0
       0       0       0       0       0       0       0       0       0       0
       0       0       0       0       0       0       0       0       0       0
       0       0       0       0       0       0       0       0       0       0
       0       0       0       0       0       0       0       0       0       0
       0       0       0       0       0       0       0       0       0       0
       0       0       0       0       0       0       0       0       0       0
       0       0       0       0       0       0       0       0       0       0
       0       0       0       0       0       0       0       0       0       0
       0       0       0       0       0       0       0       0       0       0
       0       0       0       0       0       0       0       0       0       0
       0       0       0       0       0       0       0       0       0       0
       0       0       0       0       0       0       0       0       0       0
       0       0       0       0       0       0       0       0       0       0
       0       0       0       0       0       0       0       0       0       0
       0       0       0       0       0       0       0       0       0       0
       0       0       0       0       0       0       0       0       0       0
       0       0       0       0       0       0       0       0       0       0
       0       0       0       0       0       0       0       0       0       0
       0       0       0       0       0       0       0       0       0       0
       0       0       0       0       0       0       0       0       0       0
       0       0       0       0       0       0       0       0       0       0
       0       0       0       0       0       0       0       0       0       0
       0       0       0       0       0       0       0       0       0       0
       0       0       0       0       0       0       0       0       0       0
       0       0       0       0       0       0       0       0       0       0
       0       0       0       0       0       0       0       0       0       0
       0       0       0       0       0       0       0       0       0       0
       0       0       0       0       0       0       0       0       0       0
       0       0       0       0       0       0       0       0       0       0
       0       0       0       0       0       0       0       0       0       0
       0       0       0       0       0       0       0       0       0       0
       0       0       0       0       0       0       0       0       0       0
       0       0       0       0       0       0       0       0       0       0
       0       0       0       0       0       0       0       0       0       0
       0       0       0       0       0       0       0       0       0       0
       0       0       0       0       0       0       0       0       0       0
       0       0       0       0       0       0       0       0       0       0
       0       0       0       0       0       0       0       0       0       0
       0       0       0       0       0       0       0       0       0       0
       0       0       0       0       0       0       0       0       0       0
       0       0       0       0       0       0       0       0       0       0
       0       0       0       0       0       0       0       0       0       0
       0       0       0       0       0       0       0       0       0       0
       0       0       0       0       0       0       0       0       0       0
       0       0       0       0       0       0       0       0       0       0
       0       0       0       0       0       0       0       0       0       0
       0       0       0       0       0       0       0       0       0       0
       0       0       0       0       0       0       0       0       0       0
       0       0       0       0       0       0       0       0       0       0
       0       0       0       0       0       0       0       0       0       0
       0       0       0       0       0       0       0       0       0       0
       0       0       0       0       0       0       0       0       0       0
       0       0       0       0       0       0       0       0       0       0
       0       0       0       0       0       0       0       0       0       0
       0       0       0       0       0       0       0       0       0       0
       0       0       0       0       0       0       0       0       0       0
       0       0       0       0       0       0       0       0       0       0
       0       0       0       0       0       0       0       0       0       0
       0       0       0       0       0       0       0       0       0       0
       0       0       0       0       0       0       0       0       0       0
       0       0       0       0       0       0       0       0       0       0
       0       0       0       0       0       0       0       0       0       0
       0       0       0       0       0       0       0       0       0       0
       0       0       0       0       0       0       0       0       0       0
       0       0       0       0       0       0       0       0       0       0
       0       0       0       0       0       0       0       0       0       0
       0       0       0       0       0       0       0       0       0       0
       0       0       0       0       0       0       0       0       0       0
       0       0       0       0       0       0       0       0       0       0
       0       0       0       0       0       0       0       0       0       0
       0       0       0       0       0       0       0       0       0       0
       0       0       0       0       0       0       0       0       0       0
       0       0       0       0       0       0       0       0       0       0
       0       0       0       0       0       0       0       0       0       0
       0       0       0       0       0       0       0       0       0       0
       0       0       0       0       0       0       0       0       0       0
       0       0       0       0       0       0       0       0       0       0
       0       0       0       0       0       0       0       0       0       0
       0       0       0       0       0       0       0       0       0       0
       0       0       0       0       0       0       0       0       0       0
       0       0       0       0       0       0       0       0       0       0
       0       0       0       0       0       0       0       0       0       0
       0       0       0       0       0       0       0       0       0       0
       0       0       0       0       0       0       0       0       0       0
       0       0       0       0       0       0       0       0       0       0
       0       0       0       0       0       0       0       0       0       0
       0       0       0       0       0       0       0       0       0       0
       0       0       0       0       0       0       0       0       0       0
       0       0       0       0       0       0       0       0       0       0
       0       0       0       0       0       0       0       0       0       0
       0       0       0       0       0       0       0       0       0       0
       0       0       0       0       0       0       0       0       0       0
       0       0       0       0       0       0       0       0       0       0
       0       0       0       0       0       0       0       0       0       0
       0       0       0       0       0       0       0       0       0       0
       0       0       0       0       0       0       0       0       0       0
       0       0       0       0       0       0       0       0       0       0
       0       0       0       0       0       0       0       0       0       0
       0       0       0       0       0       0       0       0       0       0
       0       0       0       0       0       0       0       0       0       0
       0       0       0       0       0       0       0       0       0       0
       0       0       0       0       0       0       0       0       0       0
       0       0       0       0       0       0       0       0       0       0
       0       0       0       0       0       0       0       0       0       0
       0       0       0       0       0       0       0       0       0       0
       0       0       0       0       0       0       0       0       0       0
       0       0       0       0       0       0       0       0       0       0
       0       0       0       0       0       0       0       0       0       0
       0       0       0       0       0       0       0       0       0       0
       0       0       0       0       0       0       0       0       0       0
       0       0       0       0       0       0       0       0       0       0
       0       0       0       0       0       0       0       0       0       0
       0       0       0       0       0       0       0       0       0       0
       0       0       0       0       0       0       0       0       0       0
       0       0       0       0       0       0       0       0       0       0
       0       0       0       0       0       0       0       0       0       0
       0       0       0       0       0       0       0       0       0       0
       0       0       0       0       0       0       0       0       0       0
       0       0       0       0       0       0       0       0       0       0
       0       0       0       0       0       0       0       0       0       0
       0       0       0       0       0       0       0       0       0       0
       0       0       0       0       0       0       0       0       0       0
       0       0       0       0       0       0       0       0       0       0
       0       0       0       0       0       0       0       0       0       0
       0       0       0       0       0       0       0       0       0       0
       0       0       0       0       0       0       0       0       0       0
       0       0       0       0       0       0       0       0       0       0
       0       0       0       0       0       0       0       0       0       0
       0       0       0       0       0       0       0       0       0       0
       0       0       0       0       0       0       0       0       0       0
       0       0       0       0       0       0       0       0       0       0
       0       0       0       0       0       0       0       0       0       0
       0       0       0       0       0       0       0       0       0       0
       0       0       0       0       0       0       0       0       0       0
       0       0       0       0       0       0       0       0       0       0
       0       0       0       0       0       0       0       0       0       0
       0       0       0       0       0       0       0       0       0       0
       0       0       0       0       0       0       0       0       0       0
       0       0       0       0       0       0       0       0       0       0
       0       0       0       0       0       0       0       0       0       0
       0       0       0       0       0       0       0       0       0       0
       0       0       0       0       0       0       0       0       0       0
       0       0       0       0       0       0       0       0       0       0
       0       0       0       0       0       0       0       0       0       0
       0       0       0       0       0       0       0       0       0       0
       0       0       0       0       0       0       0       0       0       0
       0       0       0       0       0       0       0       0       0       0
       0       0       0       0       0       0       0       0       0       0
       0       0       0       0       0       0       0       0       0       0
       0       0       0       0       0       0       0       0       0       0
       0       0       0       0       0       0       0       0       0       0
       0       0       0       0       0       0       0       0       0       0
       0       0       0       0       0       0       0       0       0       0
       0       0       0       0       0       0       0       0       0       0
       0       0       0       0       0       0       0       0       0       0
       0       0       0       0       0       0       0       0       0       0
       0       0       0       0       0       0       0       0       0       0
       0       0       0       0       0       0       0       0       0       0
       0       0       0       0       0       0       0       0       0       0
       0       0       0       0       0       0       0       0       0       0
       0       0       0       0       0       0       0       0       0       0
       0       0       0       0       0       0       0       0       0       0
       0       0       0       0       0       0       0       0       0       0
       0       0       0       0       0       0       0       0       0       0
       0       0       0       0       0       0       0       0       0       0
       0       0       0       0       0       0       0       0       0       0
       0       0       0       0       0       0       0       0       0       0
       0       0       0       0       0       0       0       0       0       0
       0       0       0       0       0       0       0       0       0       0
       0       0       0       0       0       0       0       0       0       0
       0       0       0       0       0       0       0       0       0       0
       0       0       0       0       0       0       0       0       0       0
       0       0       0       0       0       0       0       0       0       0
       0       0       0       0       0       0       0       0       0       0
       0       0       0       0       0       0       0       0       0       0
       0       0       0       0       0       0       0       0       0       0
       0       0       0       0       0       0       0       0       0       0
       0       0       0       0       0       0       0       0       0       0
       0       0       0       0       0       0       0       0       0       0
       0       0       0       0       0       0       0       0       0       0
       0       0       0       0       0       0       0       0       0       0
       0       0       0       0       0       0       0       0       0       0
       0       0       0       0       0       0       0       0       0       0
       0       0       0       0       0       0       0       0       0       0
       0       0       0       0       0       0       0       0       0       0
       0       0       0       0       0       0       0       0       0       0
       0       0       0       0       0       0       0       0       0       0
       0       0       0       0       0       0       0       0       0       0
       0       0       0       0       0       0       0       0       0       0
       0       0       0       0       0       0       0       0       0       0
       0       0       0       0       0       0       0       0       0       0
       0       0       0       0       0       0       0       0       0       0
       0       0       0       0       0       0       0       0       0       0
       0       0       0       0       0       0       0       0       0       0
       0       0       0       0       0       0       0       0       0       0
       0       0       0       0       0       0       0       0       0       0
       0       0       0       0       0       0       0       0       0       0
       0       0       0       0       0       0       0       0       0       0
       0       0       0       0       0       0       0       0       0       0
       0       0       0       0       0       0       0       0       0       0
       0       0       0       0       0       0       0       0       0       0
       0       0       0       0       0       0       0       0       0       0
       0       0       0       0       0       0       0       0       0       0
       0       0       0       0       0       0       0       0       0       0
       0       0       0       0       0       0       0       0       0       0
       0       0       0       0       0       0       0       0       0       0
       0       0       0       0       0       0       0       0       0       0
       0       0       0       0       0       0       0       0       0       0
       0       0       0       0       0       0       0       0       0       0
       0       0       0       0       0       0       0       0       0       0
       0       0       0       0       0       0       0       0       0       0
       0       0       0       0       0       0       0       0       0       0
       0       0       0       0       0       0       0       0       0       0
       0       0       0       0       0       0       0       0       0       0
       0       0       0       0       0       0       0       0       0       0
       0       0       0       0       0       0       0       0       0       0
       0       0       0       0       0       0       0       0       0       0
       0       0       0       0       0       0       0       0       0       0
       0       0       0       0       0       0       0       0       0       0
       0       0       0       0       0       0       0       0       0       0
       0       0       0       0       0       0       0       0       0       0
       0       0       0       0       0       0       0       0       0       0
       0       0       0       0       0       0       0       0       0       0
       0       0       0       0       0       0       0       0       0       0
       0       0       0       0       0       0       0       0       0       0
       0       0       0       0       0       0       0       0       0       0
       0       0       0       0       0       0       0       0       0       0
       0       0       0       0       0       0       0       0       0       0
       0       0       0       0       0       0       0       0       0       0
       0       0       0       0       0       0       0       0       0       0
       0       0       0       0       0       0       0       0       0       0
       0       0       0       0       0       0       0       0       0       0
       0       0       0       0       0       0       0       0       0       0
       0       0       0       0       0       0       0       0       0       0
       0       0       0       0       0       0       0       0       0       0
       0       0       0       0       0       0       0       0       0       0
       0       0       0       0       0       0       0       0       0       0
       0       0       0       0       0       0       0       0       0       0
       0       0       0       0       0       0       0       0       0       0
       0       0       0       0       0       0       0       0       0       0
       0       0       0       0       0       0       0       0       0       0
       0       0       0       0       0       0       0       0       0       0
       0       0       0       0       0       0       0       0       0       0
       0       0       0       0       0       0       0       0       0       0
       0       0       0       0       0       0       0       0       0       0
       0       0       0       0       0       0       0       0       0       0
       0       0       0       0       0       0       0       0       0       0
       0       0       0       0       0       0       0       0       0       0
       0       0       0       0       0       0       0       0       0       0
       0       0       0       0       0       0       0       0       0       0
       0       0       0       0       0       0       0       0       0       0
       0       0       0       0       0       0       0       0       0       0
       0       0       0       0       0       0       0       0       0       0
       0       0       0       0       0       0       0       0       0       0
       0       0       0       0       0       0       0       0       0       0
       0       0       0       0       0       0       0       0       0       0
       0       0       0       0       0       0       0       0       0       0
       0       0       0       0       0       0       0       0       0       0
       0       0       0       0       0       0       0       0       0       0
       0       0       0       0       0       0       0       0       0       0
       0       0       0       0       0       0       0       0       0       0
       0       0       0       0       0       0       0       0       0       0
       0       0       0       0       0       0       0       0       0       0
       0       0       0       0       0       0       0       0       0       0
       0       0       0       0       0       0       0       0       0       0
       0       0       0       0       0       0       0       0       0       0
       0       0       0       0       0       0       0       0       0       0
       0       0       0       0       0       0       0       0       0       0
       0       0       0       0       0       0       0       0       0       0
       0       0       0       0       0       0       0       0       0       0
       0       0       0       0       0       0       0       0       0       0
       0       0       0       0       0       0       0       0       0       0
       0       0       0       0       0       0       0       0       0       0
       0       0       0       0       0       0       0       0       0       0
       0       0       0       0       0       0       0       0       0       0
       0       0       0       0       0       0       0       0       0       0
       0       0       0       0       0       0       0       0       0       0
       0       0       0       0       0       0       0       0       0       0
       0       0       0       0       0       0       0       0       0       0
       0       0       0       0       0       0       0       0       0       0
       0       0       0       0       0       0       0       0       0       0
       0       0       0       0       0       0       0       0       0       0
       0       0       0       0       0       0       0       0       0       0
       0       0       0       0       0       0       0       0       0       0
       0       0       0       0       0       0       0       0       0       0
       0       0       0       0       0       0       0       0       0       0
       0       0       0       0       0       0       0       0       0       0
       0       0       0       0       0       0       0       0       0       0
       0       0       0       0       0       0       0       0       0       0
       0       0       0       0       0       0       0       0       0       0
       0       0       0       0       0       0       0       0       0       0
       0       0       0       0       0       0       0       0       0       0
       0       0       0       0       0       0       0       0       0       0
       0       0       0       0       0       0       0       0       0       0
       0       0       0       0       0       0       0       0       0       0
       0       0       0       0       0       0       0       0       0       0
       0       0       0       0       0       0       0       0       0       0
       0       0       0       0       0       0       0       0       0       0
       0       0       0       0       0       0       0       0       0       0
       0       0       0       0       0       0       0       0       0       0
       0       0       0       0       0       0       0       0       0       0
       0       0       0       0       0       0       0       0       0       0
       0       0       0       0       0       0       0       0       0       0
       0       0       0       0       0       0       0       0       0       0
       0       0       0       0       0       0       0       0       0       0
       0       0       0       0       0       0       0       0       0       0
       0       0       0       0       0       0       0       0       0       0
       0       0       0       0       0       0       0       0       0       0
       0       0       0       0       0       0       0       0       0       0
       0       0       0       0       0       0       0       0       0       0
       0       0       0       0       0       0       0       0       0       0
       0       0       0       0       0       0       0       0       0       0
       0       0       0       0       0       0       0       0       0       0
       0       0       0       0       0       0       0       0       0       0
       0       0       0       0       0       0       0       0       0       0
       0       0       0       0       0       0       0       0       0       0
       0       0       0       0       0       0       0       0       0       0
       0       0       0       0       0       0       0       0       0       0
       0       0       0       0       0       0       0       0       0       0
       0       0       0       0       0       0       0       0       0       0
       0       0       0       0       0       0       0       0       0       0
       0       0       0       0       0       0       0       0       0       0
       0       0       0       0       0       0       0       0       0       0
       0       0       0       0       0       0       0       0       0       0
       0       0       0       0       0       0       0       0       0       0
       0       0       0       0       0       0       0       0       0       0
       0       0       0       0       0       0       0       0       0       0
       0       0       0       0       0       0       0       0       0       0
       0       0       0       0       0       0       0       0       0       0
       0       0       0       0       0       0       0       0       0       0
       0       0       0       0       0       0       0       0       0       0
       0       0       0       0       0       0       0       0       0       0
       0       0       0       0       0       0       0       0       0       0
       0       0       0       0       0       0       0       0       0       0
       0       0       0       0       0       0       0       0       0       0
       0       0       0       0       0       0       0       0       0       0
       0       0       0       0       0       0       0       0       0       0
       0       0       0       0       0       0       0       0       0       0
       0       0       0       0       0       0       0       0       0       0
       0       0       0       0       0       0       0       0       0       0
       0       0       0       0       0       0       0       0       0       0
       0       0       0       0       0       0       0       0       0       0
       0       0       0       0       0       0       0       0       0       0
       0       0       0       0       0       0       0       0       0       0
       0       0       0       0       0       0       0       0       0       0
       0       0       0       0       0       0       0       0       0       0
       0       0       0       0       0       0       0       0       0       0
       0       0       0       0       0       0       0       0       0       0
       0       0       0       0       0       0       0       0       0       0
       0       0       0       0       0       0       0       0       0       0
       0       0       0       0       0       0       0       0       0       0
       0       0       0       0       0       0       0       0       0       0
       0       0       0       0       0       0       0       0       0       0
       0       0       0       0       0       0       0       0       0       0
       0       0       0       0       0       0       0       0       0       0
       0       0       0       0       0       0       0       0       0       0
       0       0       0       0       0       0       0       0       0       0
       0       0       0       0       0       0       0       0       0       0
       0       0       0       0       0       0       0       0       0       0
       0       0       0       0       0       0       0       0       0       0
       0       0       0       0       0       0       0       0       0       0
       0       0       0       0       0       0       0       0       0       0
       0       0       0       0       0       0       0       0       0       0
       0       0       0       0       0       0       0       0       0       0
       0       0       0       0       0       0       0       0       0       0
       0       0       0       0       0       0       0       0       0       0
       0       0       0       0       0       0       0       0       0       0
       0       0       0       0       0       0       0       0       0       0
       0       0       0       0       0       0       0       0       0       0
       0       0       0       0       0       0       0       0       0       0
       0       0       0       0       0       0       0       0       0       0
       0       0       0       0       0       0       0       0       0       0
       0       0       0       0       0       0       0       0       0       0
       0       0       0       0       0       0       0       0       0       0
       0       0       0       0       0       0       0       0       0       0
       0       0       0       0       0       0       0       0       0       0
       0       0       0       0       0       0       0       0       0       0
       0       0       0       0       0       0       0       0       0       0
       0       0       0       0       0       0       0       0       0       0
       0       0       0       0       0       0       0       0       0       0
       0       0       0       0       0       0       0       0       0       0
       0       0       0       0       0       0       0       0       0       0
       0       0       0       0       0       0       0       0       0       0
       0       0       0       0       0       0       0       0       0       0
       0       0       0       0       0       0       0       0       0       0
       0       0       0       0       0       0       0       0       0       0
       0       0       0       0       0       0       0       0       0       0
       0       0       0       0       0       0       0       0       0       0
       0       0       0       0       0       0       0       0       0       0
       0       0       0       0       0       0       0       0       0       0
       0       0       0       0       0       0       0       0       0       0
       0       0       0       0       0       0       0       0       0       0
       0       0       0       0       0       0       0       0       0       0
       0       0       0       0       0       0       0       0       0       0
       0       0       0       0       0       0       0       0       0       0
       0       0       0       0       0       0       0       0       0       0
       0       0       0       0       0       0       0       0       0       0
       0       0       0       0       0       0       0       0       0       0
       0       0       0       0       0       0       0       0       0       0
       0       0       0       0       0       0       0       0       0       0
       0       0       0       0       0       0       0       0       0       0
       0       0       0       0       0       0       0       0       0       0
       0       0       0       0       0       0       0       0       0       0
       0       0       0       0       0       0       0       0       0       0
       0       0       0       0       0       0       0       0       0       0
       0       0       0       0       0       0       0       0       0       0
       0       0       0       0       0       0       0       0       0       0
       0       0       0       0       0       0       0       0       0       0
       0       0       0       0       0       0       0       0       0       0
       0       0       0       0       0       0       0       0       0       0
       0       0       0       0       0       0       0       0       0       0
       0       0       0       0       0       0       0       0       0       0
       0       0       0       0       0       0       0       0       0       0
       0       0       0       0       0       0       0       0       0       0
       0       0       0       0       0       0       0       0       0       0
       0       0       0       0       0       0       0       0       0       0
       0       0       0       0       0       0       0       0       0       0
       0       0       0       0       0       0       0       0       0       0
       0       0       0       0       0       0       0       0       0       0
       0       0       0       0       0       0       0       0       0       0
       0       0       0       0       0       0       0       0       0       0
       0       0       0       0       0       0       0       0       0       0
       0       0       0       0       0       0       0       0       0       0
       0       0       0       0       0       0       0       0       0       0
       0       0       0       0       0       0       0       0       0       0
       0       0       0       0       0       0       0       0       0       0
       0       0       0       0       0       0       0       0       0       0
       0       0       0       0       0       0       0       0       0       0
       0       0       0       0       0       0       0       0       0       0
       0       0       0       0       0       0       0       0       0       0
       0       0       0       0       0       0       0       0       0       0
       0       0       0       0       0       0       0       0       0       0
       0       0       0       0       0       0       0       0       0       0
       0       0       0       0       0       0       0       0       0       0
       0       0       0       0       0       0       0       0       0       0
       0       0       0       0       0       0       0       0       0       0
       0       0       0       0       0       0       0       0       0       0
       0       0       0       0       0       0       0       0       0       0
       0       0       0       0       0       0       0       0       0       0
       0       0       0       0       0       0       0       0       0       0
       0       0       0       0       0       0       0       0       0       0
       0       0       0       0       0       0       0       0       0       0
       0       0       0       0       0       0       0       0       0       0
       0       0       0       0       0       0       0       0       0       0
       0       0       0       0       0       0       0       0       0       0
       0       0       0       0       0       0       0       0       0       0
       0       0       0       0       0       0       0       0       0       0
       0       0       0       0       0       0       0       0       0       0
       0       0       0       0       0       0       0       0       0       0
       0       0       0       0       0       0       0       0       0       0
       0       0       0       0       0       0       0       0       0       0
       0       0       0       0       0       0       0       0       0       0
       0       0       0       0       0       0       0       0       0       0
       0       0       0       0       0       0       0       0       0       0
       0       0       0       0       0       0       0       0       0       0
       0       0       0       0       0       0       0       0       0       0
       0       0       0       0       0       0       0       0       0       0
       0       0       0       0       0       0       0       0       0       0
       0       0       0       0       0       0       0       0       0       0
       0       0       0       0       0       0       0       0       0       0
       0       0       0       0       0       0       0       0       0       0
       0       0       0       0       0       0       0       0       0       0
       0       0       0       0       0       0       0       0       0       0
       0       0       0       0       0       0       0       0       0       0
       0       0       0       0       0       0       0       0       0       0
       0       0       0       0       0       0       0       0       0       0
       0       0       0       0       0       0       0       0       0       0
       0       0       0       0       0       0       0       0       0       0
       0       0       0       0       0       0       0       0       0       0
       0       0       0       0       0       0       0       0       0       0
       0       0       0       0       0       0       0       0       0       0
       0       0       0       0       0       0       0       0       0       0
       0       0       0       0       0       0       0       0       0       0
       0       0       0       0       0       0       0       0       0       0
       0       0       0       0       0       0       0       0       0       0
       0       0       0       0       0       0       0       0       0       0
       0       0       0       0       0       0       0       0       0       0
       0       0       0       0       0       0       0       0       0       0
       0       0       0       0       0       0       0       0       0       0
       0       0       0       0       0       0       0       0       0       0
       0       0       0       0       0       0       0       0       0       0
       0       0       0       0       0       0       0       0       0       0
       0       0       0       0       0       0       0       0       0       0
       0       0       0       0       0       0       0       0       0       0
       0       0       0       0       0       0       0       0       0       0
       0       0       0       0       0       0       0       0       0       0
       0       0       0       0       0       0       0       0       0       0
       0       0       0       0       0       0       0       0       0       0
       0       0       0       0       0       0       0       0       0       0
       0       0       0       0       0       0       0       0       0       0
       0       0       0       0       0       0       0       0       0       0
       0       0       0       0       0       0       0       0       0       0
       0       0       0       0       0       0       0       0       0       0
       0       0       0       0       0       0       0       0       0       0
       0       0       0       0       0       0       0       0       0       0
       0       0       0       0       0       0       0       0       0       0
       0       0       0       0       0       0       0       0       0       0
       0       0       0       0       0       0       0       0       0       0
       0       0       0       0       0       0       0       0       0       0
       0       0       0       0       0       0       0       0       0       0
       0       0       0       0       0       0       0       0       0       0
       0       0       0       0       0       0       0       0       0       0
       0       0       0       0       0       0       0       0       0       0
       0       0       0       0       0       0       0       0       0       0
       0       0       0       0       0       0       0       0       0       0
       0       0       0       0       0       0       0       0       0       0
       0       0       0       0       0       0       0       0       0       0
       0       0       0       0       0       0       0       0       0       0
       0       0       0       0       0       0       0       0       0       0
       0       0       0       0       0       0       0       0       0       0
       0       0       0       0       0       0       0       0       0       0
       0       0       0       0       0       0       0       0       0       0
       0       0       0       0       0       0       0       0       0       0
       0       0       0       0       0       0       0       0       0       0
       0       0       0       0       0       0       0       0       0       0
       0       0       0       0       0       0       0       0       0       0
       0       0       0       0       0       0       0       0       0       0
       0       0       0       0       0       0       0       0       0       0
       0       0       0       0       0       0       0       0       0       0
       0       0       0       0       0       0       0       0       0       0
       0       0       0       0       0       0       0       0       0       0
       0       0       0       0       0       0       0       0       0       0
       0       0       0       0       0       0       0       0       0       0
       0       0       0       0       0       0       0       0       0       0
       0       0       0       0       0       0       0       0       0       0
       0       0       0       0       0       0       0       0       0       0
       0       0       0       0       0       0       0       0       0       0
       0       0       0       0       0       0       0       0       0       0
       0       0       0       0       0       0       0       0       0       0
       0       0       0       0       0       0       0       0       0       0
       0       0       0       0       0       0       0       0       0       0
       0       0       0       0       0       0       0       0       0       0
       0       0       0       0       0       0       0       0       0       0
       0       0       0       0       0       0       0       0       0       0
       0       0       0       0       0       0       0       0       0       0
       0       0       0       0       0       0       0       0       0       0
       0       0       0       0       0       0       0       0       0       0
       0       0       0       0       0       0       0       0       0       0
       0       0       0       0       0       0       0       0       0       0
       0       0       0       0       0       0       0       0       0       0
       0       0       0       0       0       0       0       0       0       0
       0       0       0       0       0       0       0       0       0       0
       0       0       0       0       0       0       0       0       0       0
       0       0       0       0       0       0       0       0       0       0
       0       0       0       0       0       0       0       0       0       0
       0       0       0       0       0       0       0       0       0       0
       0       0       0       0       0       0       0       0       0       0
       0       0       0       0       0       0       0       0       0       0
       0       0       0       0       0       0       0       0       0       0
       0       0       0       0       0       0       0       0       0       0
       0       0       0       0       0       0       0       0       0       0
       0       0       0       0       0       0       0       0       0       0
       0       0       0       0       0       0       0       0       0       0
       0       0       0       0       0       0       0       0       0       0
       0       0       0       0       0       0       0       0       0       0
       0       0       0       0       0       0       0       0       0       0
       0       0       0       0       0       0       0       0       0       0
       0       0       0       0       0       0       0       0       0       0
       0       0       0       0       0       0       0       0       0       0
       0       0       0       0       0       0       0       0       0       0
       0       0       0       0       0       0       0       0       0       0
       0       0       0       0       0       0       0       0       0       0
       0       0       0       0       0       0       0       0       0       0
       0       0       0       0       0       0       0       0       0       0
       0       0       0       0       0       0       0       0       0       0
       0       0       0       0       0       0       0       0       0       0
       0       0       0       0       0       0       0       0       0       0
       0       0       0       0       0       0       0       0       0       0
       0       0       0       0       0       0       0       0       0       0
       0       0       0       0       0       0       0       0       0       0
       0       0       0       0       0       0       0       0       0       0
       0       0       0       0       0       0       0       0       0       0
       0       0       0       0       0       0       0       0       0       0
       0       0       0       0       0       0       0       0       0       0
       0       0       0       0       0       0       0       0       0       0
       0       0       0       0       0       0       0       0       0       0
       0       0       0       0       0       0       0       0       0       0
       0       0       0       0       0       0       0       0       0       0
       0       0       0       0       0       0       0       0       0       0
       0       0       0       0       0       0       0       0       0       0
       0       0       0       0       0       0       0       0       0       0
       0       0       0       0       0       0       0       0       0       0
       0       0       0       0       0       0       0       0       0       0
       0       0       0       0       0       0       0       0       0       0
       0       0       0       0       0       0       0       0       0       0
       0       0       0       0       0       0       0       0       0       0
       0       0       0       0       0       0       0       0       0       0
       0       0       0       0       0       0       0       0       0       0
       0       0       0       0       0       0       0       0       0       0
       0       0       0       0       0       0       0       0       0       0
       0       0       0       0       0       0       0       0       0       0
       0       0       0       0       0       0       0       0       0       0
       0       0       0       0       0       0       0       0       0       0
       0       0       0       0       0       0       0       0       0       0
       0       0       0       0       0       0       0       0       0       0
       0       0       0       0       0       0       0       0       0       0
       0       0       0       0       0       0       0       0       0       0
       0       0       0       0       0       0       0       0       0       0
       0       0       0       0       0       0       0       0       0       0
       0       0       0       0       0       0       0       0       0       0
       0       0       0       0       0       0       0       0       0       0
       0       0       0       0       0       0       0       0       0       0
       0       0       0       0       0       0       0       0       0       0
       0       0       0       0       0       0       0       0       0       0
       0       0       0       0       0       0       0       0       0       0
       0       0       0       0       0       0       0       0       0       0
       0       0       0       0       0       0       0       0       0       0
       0       0       0       0       0       0       0       0       0       0
       0       0       0       0       0       0       0       0       0       0
       0       0       0       0       0       0       0       0       0       0
       0       0       0       0       0       0       0       0       0       0
       0       0       0       0       0       0       0       0       0       0
       0       0       0       0       0       0       0       0       0       0
       0       0       0       0       0       0       0       0       0       0
       0       0       0       0       0       0       0       0       0       0
       0       0       0       0       0       0       0       0       0       0
       0       0       0       0       0       0       0       0       0       0
       0       0       0       0       0       0       0       0       0       0
       0       0       0       0       0       0       0       0       0       0
       0       0       0       0       0       0       0       0       0       0
       0       0       0       0       0       0       0       0       0       0
       0       0       0       0       0       0       0       0       0       0
       0       0       0       0       0       0       0       0       0       0
       0       0       0       0       0       0       0       0       0       0
       0       0       0       0       0       0       0       0       0       0
       0       0       0       0       0       0       0       0       0       0
       0       0       0       0       0       0       0       0       0       0
       0       0       0       0       0       0       0       0       0       0
       0       0       0       0       0       0       0       0       0       0
       0       0       0       0       0       0       0       0       0       0
       0       0       0       0       0       0       0       0       0       0
       0       0       0       0       0       0       0       0       0       0
       0       0       0       0       0       0       0       0       0       0
       0       0       0       0       0       0       0       0       0       0
       0       0       0       0       0       0       0       0       0       0
       0       0       0       0       0       0       0       0       0       0
       0       0       0       0       0       0       0       0       0       0
       0       0       0       0       0       0       0       0       0       0
       0       0       0       0       0       0       0       0       0       0
       0       0       0       0       0       0       0       0       0       0
       0       0       0       0       0       0       0       0       0       0
       0       0       0       0       0       0       0       0       0       0
       0       0       0       0       0       0       0       0       0       0
       0       0       0       0       0       0       0       0       0       0
       0       0       0       0       0       0       0       0       0       0
       0       0       0       0       0       0       0       0       0       0
       0       0       0       0       0       0       0       0       0       0
       0       0       0       0       0       0       0       0       0       0
       0       0       0       0       0       0       0       0       0       0
       0       0       0       0       0       0       0       0       0       0
       0       0       0       0       0       0       0       0       0       0
       0       0       0       0       0       0       0       0       0       0
       0       0       0       0       0       0       0       0       0       0
       0       0       0       0       0       0       0       0       0       0
       0       0       0       0       0       0       0       0       0       0
       0       0       0       0       0       0       0       0       0       0
       0       0       0       0       0       0       0       0       0       0
       0       0       0       0       0       0       0       0       0       0
       0       0       0       0       0       0       0       0       0       0
       0       0       0       0       0       0       0       0       0       0
       0       0       0       0       0       0       0       0       0       0
       0       0       0       0       0       0       0       0       0       0
       0       0       0       0       0       0       0       0       0       0
       0       0       0       0       0       0       0       0       0       0
       0       0       0       0       0       0       0       0       0       0
       0       0       0       0       0       0       0       0       0       0
       0       0       0       0       0       0       0       0       0       0
       0       0       0       0       0       0       0       0       0       0
       0       0       0       0       0       0       0       0       0       0
       0       0       0       0       0       0       0       0       0       0
       0       0       0       0       0       0       0       0       0       0
       0       0       0       0       0       0       0       0       0       0
       0       0       0       0       0       0       0       0       0       0
       0       0       0       0       0       0       0       0       0       0
       0       0       0       0       0       0       0       0       0       0
       0       0       0       0       0       0       0       0       0       0
       0       0       0       0       0       0       0       0       0       0
       0       0       0       0       0       0       0       0       0       0
       0       0       0       0       0       0       0       0       0       0
       0       0       0       0       0       0       0       0       0       0
       0       0       0       0       0       0       0       0       0       0
       0       0       0       0       0       0       0       0       0       0
       0       0       0       0       0       0       0       0       0       0
       0       0       0       0       0       0       0       0       0       0
       0       0       0       0       0       0       0       0       0       0
       0       0       0       0       0       0       0       0       0       0
       0       0       0       0       0       0       0       0       0       0
       0       0       0       0       0       0       0       0       0       0
       0       0       0       0       0       0       0       0       0       0
       0       0       0       0       0       0       0       0       0       0
       0       0       0       0       0       0       0       0       0       0
       0       0       0       0       0       0       0       0       0       0
       0       0       0       0       0       0       0       0       0       0
       0       0       0       0       0       0       0       0       0       0
       0       0       0       0       0       0       0       0       0       0
       0       0       0       0       0       0       0       0       0       0
       0       0       0       0       0       0       0       0       0       0
       0       0       0       0       0       0       0       0       0       0
       0       0       0       0       0       0       0       0       0       0
       0       0       0       0       0       0       0       0       0       0
       0       0       0       0       0       0       0       0       0       0
       0       0       0       0       0       0       0       0       0       0
       0       0       0       0       0       0       0       0       0       0
       0       0       0       0       0       0       0       0       0       0
       0       0       0       0       0       0       0       0       0       0
       0       0       0       0       0       0       0       0       0       0
       0       0       0       0       0       0       0       0       0       0
       0       0       0       0       0       0       0       0       0       0
       0       0       0       0       0       0       0       0       0       0
       0       0       0       0       0       0       0       0       0       0
       0       0       0       0       0       0       0       0       0       0
       0       0       0       0       0       0       0       0       0       0
       0       0       0       0       0       0       0       0       0       0
       0       0       0       0       0       0       0       0       0       0
       0       0       0       0       0       0       0       0       0       0
       0       0       0       0       0       0       0       0       0       0
       0       0       0       0       0       0       0       0       0       0
       0       0       0       0       0       0       0       0       0       0
       0       0       0       0       0       0       0       0       0       0
       0       0       0       0       0       0       0       0       0       0
       0       0       0       0       0       0       0       0       0       0
       0       0       0       0       0       0       0       0       0       0
       0       0       0       0       0       0       0       0       0       0
       0       0       0       0       0       0       0       0       0       0
       0       0       0       0       0       0       0       0       0       0
       0       0       0       0       0       0       0       0       0       0
       0       0       0       0       0       0       0       0       0       0
       0       0       0       0       0       0       0       0       0       0
       0       0       0       0       0       0       0       0       0       0
       0       0       0       0       0       0       0       0       0       0
       0       0       0       0       0       0       0       0       0       0
       0       0       0       0       0       0       0       0       0       0
       0       0       0       0       0       0       0       0       0       0
       0       0       0       0       0       0       0       0       0       0
       0       0       0       0       0       0       0       0       0       0
       0       0       0       0       0       0       0       0       0       0
       0       0       0       0       0       0       0       0       0       0
       0       0       0       0       0       0       0       0       0       0
       0       0       0       0       0       0       0       0       0       0
       0       0       0       0       0       0       0       0       0       0
       0       0       0       0       0       0       0       0       0       0
       0       0       0       0       0       0       0       0       0       0
       0       0       0       0       0       0       0       0       0       0
       0       0       0       0       0       0       0       0       0       0
       0       0       0       0       0       0       0       0       0       0
       0       0       0       0       0       0       0       0       0       0
       0       0       0       0       0       0       0       0       0       0
       0       0       0       0       0       0       0       0       0       0
       0       0       0       0       0       0       0       0       0       0
       0       0       0       0       0       0       0       0       0       0
       0       0       0       0       0       0       0       0       0       0
       0       0       0       0       0       0       0       0       0       0
       0       0       0       0       0       0       0       0       0       0
       0       0       0       0       0       0       0       0       0       0
       0       0       0       0       0       0       0       0       0       0
       0       0       0       0       0       0       0       0       0       0
       0       0       0       0       0       0       0       0       0       0
       0       0       0       0       0       0       0       0       0       0
       0       0       0       0       0       0       0       0       0       0
       0       0       0       0       0       0       0       0       0       0
       0       0       0       0       0       0       0       0       0       0
       0       0       0       0       0       0       0       0       0       0
       0       0       0       0       0       0       0       0       0       0
       0       0       0       0       0       0       0       0       0       0
       0       0       0       0       0       0       0       0       0       0
       0       0       0       0       0       0       0       0       0       0
       0       0       0       0       0       0       0       0       0       0
       0       0       0       0       0       0       0       0       0       0
       0       0       0       0       0       0       0       0       0       0
       0       0       0       0       0       0       0       0       0       0
       0       0       0       0       0       0       0       0       0       0
       0       0       0       0       0       0       0       0       0       0
       0       0       0       0       0       0       0       0       0       0
       0       0       0       0       0       0       0       0       0       0
       0       0       0       0       0       0       0       0       0       0
       0       0       0       0       0       0       0       0       0       0
       0       0       0       0       0       0       0       0       0       0
       0       0       0       0       0       0       0       0       0       0
       0       0       0       0       0       0       0       0       0       0
       0       0       0       0       0       0       0       0       0       0
       0       0       0       0       0       0       0       0       0       0
       0       0       0       0       0       0       0       0       0       0
       0       0       0       0       0       0       0       0       0       0
       0       0       0       0       0       0       0       0       0       0
       0       0       0       0       0       0       0       0       0       0
       0       0       0       0       0       0       0       0       0       0
       0       0       0       0       0       0       0       0       0       0
       0       0       0       0       0       0       0       0       0       0
       0       0       0       0       0       0       0       0       0       0
       0       0       0       0       0       0       0       0       0       0
       0       0       0       0       0       0       0       0       0       0
       0       0       0       0       0       0       0       0       0       0
       0       0       0       0       0       0       0       0       0       0
       0       0       0       0       0       0       0       0       0       0
       0       0       0       0       0       0       0       0       0       0
       0       0       0       0       0       0       0       0       0       0
       0       0       0       0       0       0       0       0       0       0
       0       0       0       0       0       0       0       0       0       0
       0       0       0       0       0       0       0       0       0       0
       0       0       0       0       0       0       0       0       0       0
       0       0       0       0       0       0       0       0       0       0
       0       0       0       0       0       0       0       0       0       0
       0       0       0       0       0       0       0       0       0       0
       0       0       0       0       0       0       0       0       0       0
       0       0       0       0       0       0       0       0       0       0
       0       0       0       0       0       0       0       0       0       0
       0       0       0       0       0       0       0       0       0       0
       0       0       0       0       0       0       0       0       0       0
       0       0       0       0       0       0       0       0       0       0
       0       0       0       0       0       0       0       0       0       0
       0       0       0       0       0       0       0       0       0       0
       0       0       0       0       0       0       0       0       0       0
       0       0       0       0       0       0       0       0       0       0
       0       0       0       0       0       0       0       0       0       0
       0       0       0       0       0       0       0       0       0       0
       0       0       0       0       0       0       0       0       0       0
       0       0       0       0       0       0       0       0       0       0
       0       0       0       0       0       0       0       0       0       0
       0       0       0       0       0       0       0       0       0       0
       0       0       0       0       0       0       0       0       0       0
       0       0       0       0       0       0       0       0       0       0
       0       0       0       0       0       0       0       0       0       0
       0       0       0       0       0       0       0       0       0       0
       0       0       0       0       0       0       0       0       0       0
       0       0       0       0       0       0       0       0       0       0
       0       0       0       0       0       0       0       0       0       0
       0       0       0       0       0       0       0       0       0       0
       0       0       0       0       0       0       0       0       0       0
       0       0       0       0       0       0       0       0       0       0
       0       0       0       0       0       0       0       0       0       0
       0       0       0       0       0       0       0       0       0       0
       0       0       0       0       0       0       0       0       0       0
       0       0       0       0       0       0       0       0       0       0
       0       0       0       0       0       0       0       0       0       0
       0       0       0       0       0       0       0       0       0       0
       0       0       0       0       0       0       0       0       0       0
       0       0       0       0       0       0       0       0       0       0
       0       0       0       0       0       0       0       0       0       0
       0       0       0       0       0       0       0       0       0       0
       0       0       0       0       0       0       0       0       0       0
       0       0       0       0       0       0       0       0       0       0
       0       0       0       0       0       0       0       0       0       0
       0       0       0       0       0       0       0       0       0       0
       0       0       0       0       0       0       0       0       0       0
       0       0       0       0       0       0       0       0       0       0
       0       0       0       0       0       0       0       0       0       0
       0       0       0       0       0       0       0       0       0       0
       0       0       0       0       0       0       0       0       0       0
       0       0       0       0       0       0       0       0       0       0
       0       0       0       0       0       0       0       0       0       0
       0       0       0       0       0       0       0       0       0       0
       0       0       0       0       0       0       0       0       0       0
       0       0       0       0       0       0       0       0       0       0
       0       0       0       0       0       0       0       0       0       0
       0       0       0       0       0       0       0       0       0       0
       0       0       0       0       0       0       0       0       0       0
       0       0       0       0       0       0       0       0       0       0
       0       0       0       0       0       0       0       0       0       0
       0       0       0       0       0       0       0       0       0       0
       0       0       0       0       0       0       0       0       0       0
       0       0       0       0       0       0       0       0       0       0
       0       0       0       0       0       0       0       0       0       0
       0       0       0       0       0       0       0       0       0       0
       0       0       0       0       0       0       0       0       0       0
       0       0       0       0       0       0       0       0       0       0
       0       0       0       0       0       0       0       0       0       0
       0       0       0       0       0       0       0       0       0       0
       0       0       0       0       0       0       0       0       0       0
       0       0       0       0       0       0       0       0       0       0
       0       0       0       0       0       0       0       0       0       0
       0       0       0       0       0       0       0       0       0       0
       0       0       0       0       0       0       0       0       0       0
       0       0       0       0       0       0       0       0       0       0
       0       0       0       0       0       0       0       0       0       0
       0       0       0       0       0       0       0       0       0       0
       0       0       0       0       0       0       0       0       0       0
       0       0       0       0       0       0       0       0       0       0
       0       0       0       0       0       0       0       0       0       0
       0       0       0       0       0       0       0       0       0       0
       0       0       0       0       0       0       0       0       0       0
       0       0       0       0       0       0       0       0       0       0
       0       0       0       0       0       0       0       0       0       0
       0       0       0       0       0       0       0       0       0       0
       0       0       0       0       0       0       0       0       0       0
       0       0       0       0       0       0       0       0       0       0
       0       0       0       0       0       0       0       0       0       0
       0       0       0       0       0       0       0       0       0       0
       0       0       0       0       0       0       0       0       0       0
       0       0       0       0       0       0       0       0       0       0
       0       0       0       0       0       0       0       0       0       0
       0       0       0       0       0       0       0       0       0       0
       0       0       0       0       0       0       0       0       0       0
       0       0       0       0       0       0       0       0       0       0
       0       0       0       0       0       0       0       0       0       0
       0       0       0       0       0       0       0       0       0       0
       0       0       0       0       0       0       0       0       0       0
       0       0       0       0       0       0       0       0       0       0
       0       0       0       0       0       0       0       0       0       0
       0       0       0       0       0       0       0       0       0       0
       0       0       0       0       0       0       0       0       0       0
       0       0       0       0       0       0       0       0       0       0
       0       0       0       0       0       0       0       0       0       0
       0       0       0       0       0       0       0       0       0       0
       0       0       0       0       0       0       0       0       0       0
       0       0       0       0       0       0       0       0       0       0
       0       0       0       0       0       0       0       0       0       0
       0       0       0       0       0       0       0       0       0       0
       0       0       0       0       0       0       0       0       0       0
       0       0       0       0       0       0       0       0       0       0
       0       0       0       0       0       0       0       0       0       0
       0       0       0       0       0       0       0       0       0       0
       0       0       0       0       0       0       0       0       0       0
       0       0       0       0       0       0       0       0       0       0
       0       0       0       0       0       0       0       0       0       0
       0       0       0       0       0       0       0       0       0       0
       0       0       0       0       0       0       0       0       0       0
       0       0       0       0       0       0       0       0       0       0
       0       0       0       0       0       0       0       0       0       0
       0       0       0       0       0       0       0       0       0       0
       0       0       0       0       0       0       0       0       0       0
       0       0       0       0       0       0       0       0       0       0
       0       0       0       0       0       0       0       0       0       0
       0       0       0       0       0       0       0       0       0       0
       0       0       0       0       0       0       0       0       0       0
       0       0       0       0       0       0       0       0       0       0
       0       0       0       0       0       0       0       0       0       0
       0       0       0       0       0       0       0       0       0       0
       0       0       0       0       0       0       0       0       0       0
       0       0       0       0       0       0       0       0       0       0
       0       0       0       0       0       0       0       0       0       0
       0       0       0       0       0       0       0       0       0       0
       0       0       0       0       0       0       0       0       0       0
       0       0       0       0       0       0       0       0       0       0
       0       0       0       0       0       0       0       0       0       0
       0       0       0       0       0       0       0       0       0       0
       0       0       0       0       0       0       0       0       0       0
       0       0       0       0       0       0       0       0       0       0
       0       0       0       0       0       0       0       0       0       0
       0       0       0       0       0       0       0       0       0       0
       0       0       0       0       0       0       0       0       0       0
       0       0       0       0       0       0       0       0       0       0
       0       0       0       0       0       0       0       0       0       0
       0       0       0       0       0       0       0       0       0       0
       0       0       0       0       0       0       0       0       0       0
       0       0       0       0       0       0       0       0       0       0
       0       0       0       0       0       0       0       0       0       0
       0       0       0       0       0       0       0       0       0       0
       0       0       0       0       0       0       0       0       0       0
       0       0       0       0       0       0       0       0       0       0
       0       0       0       0       0       0       0       0       0       0
       0       0       0       0       0       0       0       0       0       0
       0       0       0       0       0       0       0       0       0       0
       0       0       0       0       0       0       0       0       0       0
       0       0       0       0       0       0       0       0       0       0
       0       0       0       0       0       0       0       0       0       0
       0       0       0       0       0       0       0       0       0       0
       0       0       0       0       0       0       0       0       0       0
       0       0       0       0       0       0       0       0       0       0
       0       0       0       0       0       0       0       0       0       0
       0       0       0       0       0       0       0       0       0       0
       0       0       0       0       0       0       0       0       0       0
       0       0       0       0       0       0       0       0       0       0
       0       0       0       0       0       0       0       0       0       0
       0       0       0       0       0       0       0       0       0       0
       0       0       0       0       0       0       0       0       0       0
       0       0       0       0       0       0       0       0       0       0
       0       0       0       0       0       0       0       0       0       0
       0       0       0       0       0       0       0       0       0       0
       0       0       0       0       0       0       0       0       0       0
       0       0       0       0       0       0       0       0       0       0
       0       0       0       0       0       0       0       0       0       0
       0       0       0       0       0       0       0       0       0       0
       0       0       0       0       0       0       0       0       0       0
       0       0       0       0       0       0       0       0       0       0
       0       0       0       0       0       0       0       0       0       0
       0       0       0       0       0       0       0       0       0       0
       0       0       0       0       0       0       0       0       0       0
       0       0       0       0       0       0       0       0       0       0
       0       0       0       0       0       0       0       0       0       0
       0       0       0       0       0       0       0       0       0       0
       0       0       0       0       0       0       0       0       0       0
       0       0       0       0       0       0       0       0       0       0
       0       0       0       0       0       0       0       0       0       0
       0       0       0       0       0       0       0       0       0       0
       0       0       0       0       0       0       0       0       0       0
       0       0       0       0       0       0       0       0       0       0
       0       0       0       0       0       0       0       0       0       0
       0       0       0       0       0       0       0       0       0       0
       0       0       0       0       0       0       0       0       0       0
       0       0       0       0       0       0       0       0       0       0
       0       0       0       0       0       0       0       0       0       0
       0       0       0       0       0       0       0       0       0       0
       0       0       0       0       0       0       0       0       0       0
       0       0       0       0       0       0       0       0       0       0
       0       0       0       0       0       0       0       0       0       0
       0       0       0       0       0       0       0       0       0       0
       0       0       0       0       0       0       0       0       0       0
       0       0       0       0       0       0       0       0       0       0
       0       0       0       0       0       0       0       0       0       0
       0       0       0       0       0       0       0       0       0       0
       0       0       0       0       0       0       0       0       0       0
       0       0       0       0       0       0       0       0       0       0
       0       0       0       0       0       0       0       0       0       0
       0       0       0       0       0       0       0       0       0       0
       0       0       0       0       0       0       0       0       0       0
       0       0       0       0       0       0       0       0       0       0
       0       0       0       0       0       0       0       0       0       0
       0       0       0       0       0       0       0       0       0       0
       0       0       0       0       0       0       0       0       0       0
       0       0       0       0       0       0       0       0       0       0
       0       0       0       0       0       0       0       0       0       0
       0       0       0       0       0       0       0       0       0       0
       0       0       0       0       0       0       0       0       0       0
       0       0       0       0       0       0       0       0       0       0
       0       0       0       0       0       0       0       0       0       0
       0       0       0       0       0       0       0       0       0       0
       0       0       0       0       0       0       0       0       0       0
       0       0       0       0       0       0       0       0       0       0
       0       0       0       0       0       0       0       0       0       0
       0       0       0       0       0       0       0       0       0       0
       0       0       0       0       0       0       0       0       0       0
       0       0       0       0       0       0       0       0       0       0
       0       0       0       0       0       0       0       0       0       0
       0       0       0       0       0       0       0       0       0       0
       0       0       0       0       0       0       0       0       0       0
       0       0       0       0       0       0       0       0       0       0
       0       0       0       0       0       0       0       0       0       0
       0       0       0       0       0       0       0       0       0       0
       0       0       0       0       0       0       0       0       0       0
       0       0       0       0       0       0       0       0       0       0
       0       0       0       0       0       0       0       0       0       0
       0       0       0       0       0       0       0       0       0       0
       0       0       0       0       0       0       0       0       0       0
       0       0       0       0       0       0       0       0       0       0
       0       0       0       0       0       0       0       0       0       0
       0       0       0       0       0       0       0       0       0       0
       0       0       0       0       0       0       0       0       0       0
       0       0       0       0       0       0       0       0       0       0
       0       0       0       0       0       0       0       0       0       0
       0       0       0       0       0       0       0       0       0       0
       0       0       0       0       0       0       0       0       0       0
       0       0       0       0       0       0       0       0       0       0
       0       0       0       0       0       0       0       0       0       0
       0       0       0       0       0       0       0       0       0       0
       0       0       0       0       0       0       0       0       0       0
       0       0       0       0       0       0       0       0       0       0
       0       0       0       0       0       0       0       0       0       0
       0       0       0       0       0       0       0       0       0       0
       0       0       0       0       0       0       0       0       0       0
       0       0       0       0       0       0       0       0       0       0
       0       0       0       0       0       0       0       0       0       0
       0       0       0       0       0       0       0       0       0       0
       0       0       0       0       0       0       0       0       0       0
       0       0       0       0       0       0       0       0       0       0
       0       0       0       0       0       0       0       0       0       0
       0       0       0       0       0       0       0       0       0       0
       0       0       0       0       0       0       0       0       0       0
       0       0       0       0       0       0       0       0       0       0
       0       0       0       0       0       0       0       0       0       0
       0       0       0       0       0       0       0       0       0       0
       0       0       0       0       0       0       0       0       0       0
       0       0       0       0       0       0       0       0       0       0
       0       0       0       0       0       0       0       0       0       0
       0       0       0       0       0       0       0       0       0       0
       0       0       0       0       0       0       0       0       0       0
       0       0       0       0       0       0       0       0       0       0
       0       0       0       0       0       0       0       0       0       0
       0       0       0       0       0       0       0       0       0       0
       0       0       0       0       0       0       0       0       0       0
       0       0       0       0       0       0       0       0       0       0
       0       0       0       0       0       0       0       0       0       0
       0       0       0       0       0       0       0       0       0       0
       0       0       0       0       0       0       0       0       0       0
       0       0       0       0       0       0       0       0       0       0
       0       0       0       0       0       0       0       0       0       0
       0       0       0       0       0       0       0       0       0       0
       0       0       0       0       0       0       0       0       0       0
       0       0       0       0       0       0       0       0       0       0
       0       0       0       0       0       0       0       0       0       0
       0       0       0       0       0       0       0       0       0       0
       0       0       0       0       0       0       0       0       0       0
       0       0       0       0       0       0       0       0       0       0
       0       0       0       0       0       0       0       0       0       0
       0       0       0       0       0       0       0       0       0       0
       0       0       0       0       0       0       0       0       0       0
       0       0       0       0       0       0       0       0       0       0
       0       0       0       0       0       0       0       0       0       0
       0       0       0       0       0       0       0       0       0       0
       0       0       0       0       0       0       0       0       0       0
       0       0       0       0       0       0       0       0       0       0
       0       0       0       0       0       0       0       0       0       0
       0       0       0       0       0       0       0       0       0       0
       0       0       0       0       0       0       0       0       0       0
       0       0       0       0       0       0       0       0       0       0
       0       0       0       0       0       0       0       0       0       0
       0       0       0       0       0       0       0       0       0       0
       0       0       0       0       0       0       0       0       0       0
       0       0       0       0       0       0       0       0       0       0
       0       0       0       0       0       0       0       0       0       0
       0       0       0       0       0       0       0       0       0       0
       0       0       0       0       0       0       0       0       0       0
       0       0       0       0       0       0       0       0       0       0
       0       0       0       0       0       0       0       0       0       0
       0       0       0       0       0       0       0       0       0       0
       0       0       0       0       0       0       0       0       0       0
       0       0       0       0       0       0       0       0       0       0
       0       0       0       0       0       0       0       0       0       0
       0       0       0       0       0       0       0       0       0       0
       0       0       0       0       0       0       0       0       0       0
       0       0       0       0       0       0       0       0       0       0
       0       0       0       0       0       0       0       0       0       0
       0       0       0       0       0       0       0       0       0       0
       0       0       0       0       0       0       0       0       0       0
       0       0       0       0       0       0       0       0       0       0
       0       0       0       0       0       0       0       0       0       0
       0       0       0       0       0       0       0       0       0       0
       0       0       0       0       0       0       0       0       0       0
       0       0       0       0       0       0       0       0       0       0
       0       0       0       0       0       0       0       0       0       0
       0       0       0       0       0       0       0       0       0       0
       0       0       0       0       0       0       0       0       0       0
       0       0       0       0       0       0       0       0       0       0
       0       0       0       0       0       0       0       0       0       0
       0       0       0       0       0       0       0       0       0       0
       0       0       0       0       0       0       0       0       0       0
       0       0       0       0       0       0       0       0       0       0
       0       0       0       0       0       0       0       0       0       0
       0       0       0       0       0       0       0       0       0       0
       0       0       0       0       0       0       0       0       0       0
       0       0       0       0       0       0       0       0       0       0
       0       0       0       0       0       0       0       0       0       0
       0       0       0       0       0       0       0       0       0       0
       0       0       0       0       0       0       0       0       0       0
       0       0       0       0       0       0       0       0       0       0
       0       0       0       0       0       0       0       0       0       0
       0       0       0       0       0       0       0       0       0       0
       0       0       0       0       0       0       0       0       0       0
       0       0       0       0       0       0       0       0       0       0
       0       0       0       0       0       0       0       0       0       0
       0       0       0       0       0       0       0       0       0       0
       0       0       0       0       0       0       0       0       0       0
       0       0       0       0       0       0       0       0       0       0
       0       0       0       0       0       0       0       0       0       0
       0       0       0       0       0       0       0       0       0       0
       0       0       0       0       0       0       0       0       0       0
       0       0       0       0       0       0       0       0       0       0
       0       0       0       0       0       0       0       0       0       0
       0       0       0       0       0       0       0       0       0       0
       0       0       0       0       0       0       0       0       0       0
       0       0       0       0       0       0       0       0       0       0
       0       0       0       0       0       0       0       0       0       0
       0       0       0       0       0       0       0       0       0       0
       0       0       0       0       0       0       0       0       0       0
       0       0       0       0       0       0       0       0       0       0
       0       0       0       0       0       0       0       0       0       0
       0       0       0       0       0       0       0       0       0       0
       0       0       0       0       0       0       0       0       0       0
       0       0       0       0       0       0       0       0       0       0
       0       0       0       0       0       0       0       0       0       0
       0       0       0       0       0       0       0       0       0       0
       0       0       0       0       0       0       0       0       0       0
       0       0       0       0       0       0       0       0       0       0
       0       0       0       0       0       0       0       0       0       0
       0       0       0       0       0       0       0       0       0       0
       0       0       0       0       0       0       0       0       0       0
       0       0       0       0       0       0       0       0       0       0
       0       0       0       0       0       0       0       0       0       0
       0       0       0       0       0       0       0       0       0       0
       0       0       0       0       0       0       0       0       0       0
       0       0       0       0       0       0       0       0       0       0
       0       0       0       0       0       0       0       0       0       0
       0       0       0       0       0       0       0       0       0       0
       0       0       0       0       0       0       0       0       0       0
       0       0       0       0       0       0       0       0       0       0
       0       0       0       0       0       0       0       0       0       0
       0       0       0       0       0       0       0       0       0       0
       0       0       0       0       0       0       0       0       0       0
       0       0       0       0       0       0       0       0       0       0
       0       0       0       0       0       0       0       0       0       0
       0       0       0       0       0       0       0       0       0       0
       0       0       0       0       0       0       0       0       0       0
       0       0       0       0       0       0       0       0       0       0
       0       0       0       0       0       0       0       0       0       0
       0       0       0       0       0       0       0       0       0       0
       0       0       0       0       0       0       0       0       0       0
       0       0       0       0       0       0       0       0       0       0
       0       0       0       0       0       0       0       0       0       0
       0       0       0       0       0       0       0       0       0       0
       0       0       0       0       0       0       0       0       0       0
       0       0       0       0       0       0       0       0       0       0
       0       0       0       0       0       0       0       0       0       0
       0       0       0       0       0       0       0       0       0       0
       0       0       0       0       0       0       0       0       0       0
       0       0       0       0       0       0       0       0       0       0
       0       0       0       0       0       0       0       0       0       0
       0       0       0       0       0       0       0       0       0       0
       0       0       0       0       0       0       0       0       0       0
       0       0       0       0       0       0       0       0       0       0
       0       0       0       0       0       0       0       0       0       0
       0       0       0       0       0       0       0       0       0       0
       0       0       0       0       0       0       0       0       0       0
       0       0       0       0       0       0       0       0       0       0
       0       0       0       0       0       0       0       0       0       0
       0       0       0       0       0       0       0       0       0       0
       0       0       0       0       0       0       0       0       0       0
       0       0       0       0       0       0       0       0       0       0
       0       0       0       0       0       0       0       0       0       0
       0       0       0       0       0       0       0       0       0       0
       0       0       0       0       0       0       0       0       0       0
       0       0       0       0       0       0       0       0       0       0
       0       0       0       0       0       0       0       0       0       0
       0       0       0       0       0       0       0       0       0       0
       0       0       0       0       0       0       0       0       0       0
       0       0       0       0       0       0       0       0       0       0
       0       0       0       0       0       0       0       0       0       0
       0       0       0       0       0       0       0       0       0       0
       0       0       0       0       0       0       0       0       0       0
       0       0       0       0       0       0       0       0       0       0
       0       0       0       0       0       0       0       0       0       0
       0       0       0       0       0       0       0       0       0       0
       0       0       0       0       0       0       0       0       0       0
       0       0       0       0       0       0       0       0       0       0
       0       0       0       0       0       0       0       0       0       0
       0       0       0       0       0       0       0       0       0       0
       0       0       0       0       0       0       0       0       0       0
       0       0       0       0       0       0       0       0       0       0
       0       0       0       0       0       0       0       0       0       0
       0       0       0       0       0       0       0       0       0       0
       0       0       0       0       0       0       0       0       0       0
       0       0       0       0       0       0       0       0       0       0
       0       0       0       0       0       0       0       0       0       0
       0       0       0       0       0       0       0       0       0       0
       0       0       0       0       0       0       0       0       0       0
       0       0       0       0       0       0       0       0       0       0
       0       0       0       0       0       0       0       0       0       0
       0       0       0       0       0       0       0       0       0       0
       0       0       0       0       0       0       0       0       0       0
       0       0       0       0       0       0       0       0       0       0
       0       0       0       0       0       0       0       0       0       0
       0       0       0       0       0       0       0       0       0       0
       0       0       0       0       0       0       0       0       0       0
       0       0       0       0       0       0       0       0       0       0
       0       0       0       0       0       0       0       0       0       0
       0       0       0       0       0       0       0       0       0       0
       0       0       0       0       0       0       0       0       0       0
       0       0       0       0       0       0       0       0       0       0
       0       0       0       0       0       0       0       0       0       0
       0       0       0       0       0       0       0       0       0       0
       0       0       0       0       0       0       0       0       0       0
       0       0       0       0       0       0       0       0       0       0
       0       0       0       0       0       0       0       0       0       0
       0       0       0       0       0       0       0       0       0       0
       0       0       0       0       0       0       0       0       0       0
       0       0       0       0       0       0       0       0       0       0
       0       0       0       0       0       0       0       0       0       0
       0       0       0       0       0       0       0       0       0       0
       0       0       0       0       0       0       0       0       0       0
       0       0       0       0       0       0       0       0       0       0
       0       0       0       0       0       0       0       0       0       0
       0       0       0       0       0       0       0       0       0       0
       0       0       0       0       0       0       0       0       0       0
       0       0       0       0       0       0       0       0       0       0
       0       0       0       0       0       0       0       0       0       0
       0       0       0       0       0       0       0       0       0       0
       0       0       0       0       0       0       0       0       0       0
       0       0       0       0       0       0       0       0       0       0
       0       0       0       0       0       0       0       0       0       0
       0       0       0       0       0       0       0       0       0       0
       0       0       0       0       0       0       0       0       0       0
       0       0       0       0       0       0       0       0       0       0
       0       0       0       0       0       0       0       0       0       0
       0       0       0       0       0       0       0       0       0       0
       0       0       0       0       0       0       0       0       0       0
       0       0       0       0       0       0       0       0       0       0
       0       0       0       0       0       0       0       0       0       0
       0       0       0       0       0       0       0       0       0       0
       0       0       0       0       0       0       0       0       0       0
       0       0       0       0       0       0       0       0       0       0
       0       0       0       0       0       0       0       0       0       0
       0       0       0       0       0       0       0       0       0       0
       0       0       0       0       0       0       0       0       0       0
       0       0       0       0       0       0       0       0       0       0
       0       0       0       0       0       0       0       0       0       0
       0       0       0       0       0       0       0       0       0       0
       0       0       0       0       0       0       0       0       0       0
       0       0       0       0       0       0       0       0       0       0
       0       0       0       0       0       0       0       0       0       0
       0       0       0       0       0       0       0       0       0       0
       0       0       0       0       0       0       0       0       0       0
       0       0       0       0       0       0       0       0       0       0
       0       0       0       0       0       0       0       0       0       0
       0       0       0       0       0       0       0       0       0       0
       0       0       0       0       0       0       0       0       0       0
       0       0       0       0       0       0       0       0       0       0
       0       0       0       0       0       0       0       0       0       0
       0       0       0       0       0       0       0       0       0       0
       0       0       0       0       0       0       0       0       0       0
       0       0       0       0       0       0       0       0       0       0
       0       0       0       0       0       0       0       0       0       0
       0       0       0       0       0       0       0       0       0       0
       0       0       0       0       0       0       0       0       0       0
       0       0       0       0       0       0       0       0       0       0
       0       0       0       0       0       0       0       0       0       0
       0       0       0       0       0       0       0       0       0       0
       0       0       0       0       0       0       0       0       0       0
       0       0       0       0       0       0       0       0       0       0
       0       0       0       0       0       0       0       0       0       0
       0       0       0       0       0       0       0       0       0       0
       0       0       0       0       0       0       0       0       0       0
       0       0       0       0       0       0       0       0       0       0
       0       0       0       0       0       0       0       0       0       0
       0       0       0       0       0       0       0       0       0       0
       0       0       0       0       0       0       0       0       0       0
       0       0       0       0       0       0       0       0       0       0
       0       0       0       0       0       0       0       0       0       0
       0       0       0       0       0       0       0       0       0       0
       0       0       0       0       0       0       0       0       0       0
       0       0       0       0       0       0       0       0       0       0
       0       0       0       0       0       0       0       0       0       0
       0       0       0       0       0       0       0       0       0       0
       0       0       0       0       0       0       0       0       0       0
       0       0       0       0       0       0       0       0       0       0
       0       0       0       0       0       0       0       0       0       0
       0       0       0       0       0       0       0       0       0       0
       0       0       0       0       0       0       0       0       0       0
       0       0       0       0       0       0       0       0       0       0
       0       0       0       0       0       0       0       0       0       0
       0       0       0       0       0       0       0       0       0       0
       0       0       0       0       0       0       0       0       0       0
       0       0       0       0       0       0       0       0       0       0
       0       0       0       0       0       0       0       0       0       0
       0       0       0       0       0       0       0       0       0       0
       0       0       0       0       0       0       0       0       0       0
       0       0       0       0       0       0       0       0       0       0
       0       0       0       0       0       0       0       0       0       0
       0       0       0       0       0       0       0       0       0       0
       0       0       0       0       0       0       0       0       0       0
       0       0       0       0       0       0       0       0       0       0
       0       0       0       0       0       0       0       0       0       0
       0       0       0       0       0       0       0       0       0       0
       0       0       0       0       0       0       0       0       0       0
       0       0       0       0       0       0       0       0       0       0
       0       0       0       0       0       0       0       0       0       0
       0       0       0       0       0       0       0       0       0       0
       0       0       0       0       0       0       0       0       0       0
       0       0       0       0       0       0       0       0       0       0
       0       0       0       0       0       0       0       0       0       0
       0       0       0       0       0       0       0       0       0       0
       0       0       0       0       0       0       0       0       0       0
       0       0       0       0       0       0       0       0       0       0
       0       0       0       0       0       0       0       0       0       0
       0       0       0       0       0       0       0       0       0       0
       0       0       0       0       0       0       0       0       0       0
       0       0       0       0       0       0       0       0       0       0
       0       0       0       0       0       0       0       0       0       0
       0       0       0       0       0       0       0       0       0       0
       0       0       0       0       0       0       0       0       0       0
       0       0       0       0       0       0       0       0       0       0
       0       0       0       0       0       0       0       0       0       0
       0       0       0       0       0       0       0       0       0       0
       0       0       0       0       0       0       0       0       0       0
       0       0       0       0       0       0       0       0       0       0
       0       0       0       0       0       0       0       0       0       0
       0       0       0       0       0       0       0       0       0       0
       0       0       0       0       0       0       0       0       0       0
       0       0       0       0       0       0       0       0       0       0
       0       0       0       0       0       0       0       0       0       0
       0       0       0       0       0       0       0       0       0       0
       0       0       0       0       0       0       0       0       0       0
       0       0       0       0       0       0       0       0       0       0
       0       0       0       0       0       0       0       0       0       0
       0       0       0       0       0       0       0       0       0       0
       0       0       0       0       0       0       0       0       0       0
       0       0       0       0       0       0       0       0       0       0
       0       0       0       0       0       0       0       0       0       0
       0       0       0       0       0       0       0       0       0       0
       0       0       0       0       0       0       0       0       0       0
       0       0       0       0       0       0       0       0       0       0
       0       0       0       0       0       0       0       0       0       0
       0       0       0       0       0       0       0       0       0       0
       0       0       0       0       0       0       0       0       0       0
       0       0       0       0       0       0       0       0       0       0
       0       0       0       0       0       0       0       0       0       0
       0       0       0       0       0       0       0       0       0       0
       0       0       0       0       0       0       0       0       0       0
       0       0       0       0       0       0       0       0       0       0
       0       0       0       0       0       0       0       0       0       0
       0       0       0       0       0       0       0       0       0       0
       0       0       0       0       0       0       0       0       0       0
       0       0       0       0       0       0       0       0       0       0
       0       0       0       0       0       0       0       0       0       0
       0       0       0       0       0       0       0       0       0       0
       0       0       0       0       0       0       0       0       0       0
       0       0       0       0       0       0       0       0       0       0
       0       0       0       0       0       0       0       0       0       0
       0       0       0       0       0       0       0       0       0       0
       0       0       0       0       0       0       0       0       0       0
       0       0       0       0       0       0       0       0       0       0
       0       0       0       0       0       0       0       0       0       0
       0       0       0       0       0       0       0       0       0       0
       0       0       0       0       0       0       0       0       0       0
       0       0       0       0       0       0       0       0       0       0
       0       0       0       0       0       0       0       0       0       0
       0       0       0       0       0       0       0       0       0       0
       0       0       0       0       0       0       0       0       0       0
       0       0       0       0       0       0       0       0       0       0
       0       0       0       0       0       0       0       0       0       0
       0       0       0       0       0       0       0       0       0       0
       0       0       0       0       0       0       0       0       0       0
       0       0       0       0       0       0       0       0       0       0
       0       0       0       0       0       0       0       0       0       0
       0       0       0       0       0       0       0       0       0       0
       0       0       0       0       0       0       0       0       0       0
       0       0       0       0       0       0       0       0       0       0
       0       0       0       0       0       0       0       0       0       0
       0       0       0       0       0       0       0       0       0       0
       0       0       0       0       0       0       0       0       0       0
       0       0       0       0       0       0       0       0       0       0
       0       0       0       0       0       0       0       0       0       0
       0       0       0       0       0       0       0       0       0       0
       0       0       0       0       0       0       0       0       0       0
       0       0       0       0       0       0       0       0       0       0
       0       0       0       0       0       0       0       0       0       0
       0       0       0       0       0       0       0       0       0       0
       0       0       0       0       0       0       0       0       0       0
       0       0       0       0       0       0       0       0       0       0
       0       0       0       0       0       0       0       0       0       0
       0       0       0       0       0       0       0       0       0       0
       0       0       0       0       0       0       0       0       0       0
       0       0       0       0       0       0       0       0       0       0
       0       0       0       0       0       0       0       0       0       0
       0       0       0       0       0       0       0       0       0       0
       0       0       0       0       0       0       0       0       0       0
       0       0       0       0       0       0       0       0       0       0
       0       0       0       0       0       0       0       0       0       0
       0       0       0       0       0       0       0       0       0       0
       0       0       0       0       0       0       0       0       0       0
       0       0       0       0       0       0       0       0       0       0
       0       0       0       0       0       0       0       0       0       0
       0       0       0       0       0       0       0       0       0       0
       0       0       0       0       0       0       0       0       0       0
       0       0       0       0       0       0       0       0       0       0
       0       0       0       0       0       0       0       0       0       0
       0       0       0       0       0       0       0       0       0       0
       0       0       0       0       0       0       0       0       0       0
       0       0       0       0       0       0       0       0       0       0
       0       0       0       0       0       0       0       0       0       0
       0       0       0       0       0       0       0       0       0       0
       0       0       0       0       0       0       0       0       0       0
       0       0       0       0       0       0       0       0       0       0
       0       0       0       0       0       0       0       0       0       0
       0       0       0       0       0       0       0       0       0       0
       0       0       0       0       0       0       0       0       0       0
       0       0       0       0       0       0       0       0       0       0
       0       0       0       0       0       0       0       0       0       0
       0       0       0       0       0       0       0       0       0       0
       0       0       0       0       0       0       0       0       0       0
       0       0       0       0       0       0       0       0       0       0
       0       0       0       0       0       0       0       0       0       0
       0       0       0       0       0       0       0       0       0       0
       0       0       0       0       0       0       0       0       0       0
       0       0       0       0       0       0       0       0       0       0
       0       0       0       0       0       0       0       0       0       0
       0       0       0       0       0       0       0       0       0       0
       0       0       0       0       0       0       0       0       0       0
       0       0       0       0       0       0       0       0       0       0
       0       0       0       0       0       0       0       0       0       0
       0       0       0       0       0       0       0       0       0       0
       0       0       0       0       0       0       0       0       0       0
       0       0       0       0       0       0       0       0       0       0
       0       0       0       0       0       0       0       0       0       0
       0       0       0       0       0       0       0       0       0       0
       0       0       0       0       0       0       0       0       0       0
       0       0       0       0       0       0       0       0       0       0
       0       0       0       0       0       0       0       0       0       0
       0       0       0       0       0       0       0       0       0       0
       0       0       0       0       0       0       0       0       0       0
       0       0       0       0       0       0       0       0       0       0
       0       0       0       0       0       0       0       0       0       0
       0       0       0       0       0       0       0       0       0       0
       0       0       0       0       0       0       0       0       0       0
       0       0       0       0       0       0       0       0       0       0
       0       0       0       0       0       0       0       0       0       0
       0       0       0       0       0       0       0       0       0       0
       0       0       0       0       0       0       0       0       0       0
       0       0       0       0       0       0       0       0       0       0
       0       0       0       0       0       0       0       0       0       0
       0       0       0       0       0       0       0       0       0       0
       0       0       0       0       0       0       0       0       0       0
       0       0       0       0       0       0       0       0       0       0
       0       0       0       0       0       0       0       0       0       0
       0       0       0       0       0       0       0       0       0       0
       0       0       0       0       0       0       0       0       0       0
       0       0       0       0       0       0       0       0       0       0
       0       0       0       0       0       0       0       0       0       0
       0       0       0       0       0       0       0       0       0       0
       0       0       0       0       0       0       0       0       0       0
       0       0       0       0       0       0       0       0       0       0
       0       0       0       0       0       0       0       0       0       0
       0       0       0       0       0       0       0       0       0       0
       0       0       0       0       0       0       0       0       0       0
       0       0       0       0       0       0       0       0       0       0
       0       0       0       0       0       0       0       0       0       0
       0       0       0       0       0       0       0       0       0       0
       0       0       0       0       0       0       0       0       0       0
       0       0       0       0       0       0       0       0       0       0
       0       0       0       0       0       0       0       0       0       0
       0       0       0       0       0       0       0       0       0       0
       0       0       0       0       0       0       0       0       0       0
       0       0       0       0       0       0       0       0       0       0
       0       0       0       0       0       0       0       0       0       0
       0       0       0       0       0       0       0       0       0       0
       0       0       0       0       0       0       0       0       0       0
       0       0       0       0       0       0       0       0       0       0
       0       0       0       0       0       0       0       0       0       0
       0       0       0       0       0       0       0       0       0       0
       0       0       0       0       0       0       0       0       0       0
       0       0       0       0       0       0       0       0       0       0
       0       0       0       0       0       0       0       0       0       0
       0       0       0       0       0       0       0       0       0       0
       0       0       0       0       0       0       0       0       0       0
       0       0       0       0       0       0       0       0       0       0
       0       0       0       0       0       0       0       0       0       0
       0       0       0       0       0       0       0       0       0       0
       0       0       0       0       0       0       0       0       0       0
       0       0       0       0       0       0       0       0       0       0
       0       0       0       0       0       0       0       0       0       0
       0       0       0       0       0       0       0       0       0       0
       0       0       0       0       0       0       0       0       0       0
       0       0       0       0       0       0       0       0       0       0
       0       0       0       0       0       0       0       0       0       0
       0       0       0       0       0       0       0       0       0       0
       0       0       0       0       0       0       0       0       0       0
       0       0       0       0       0       0       0       0       0       0
       0       0       0       0       0       0       0       0       0       0
       0       0       0       0       0       0       0       0       0       0
       0       0       0       0       0       0       0       0       0       0
       0       0       0       0       0       0       0       0       0       0
       0       0       0       0       0       0       0       0       0       0
       0       0       0       0       0       0       0       0       0       0
       0       0       0       0       0       0       0       0       0       0
       0       0       0       0       0       0       0       0       0       0
       0       0       0       0       0       0       0       0       0       0
       0       0       0       0       0       0       0       0       0       0
       0       0       0       0       0       0       0       0       0       0
       0       0       0       0       0       0       0       0       0       0
       0       0       0       0       0       0       0       0       0       0
       0       0       0       0       0       0       0       0       0       0
       0       0       0       0       0       0       0       0       0       0
       0       0       0       0       0       0       0       0       0       0
       0       0       0       0       0       0       0       0       0       0
       0       0       0       0       0       0       0       0       0       0
       0       0       0       0       0       0       0       0       0       0
       0       0       0       0       0       0       0       0       0       0
       0       0       0       0       0       0       0       0       0       0
       0       0       0       0       0       0       0       0       0       0
       0       0       0       0       0       0       0       0       0       0
       0       0       0       0       0       0       0       0       0       0
       0       0       0       0       0       0       0       0       0       0
       0       0       0       0       0       0       0       0       0       0
       0       0       0       0       0       0       0       0       0       0
       0       0       0       0       0       0       0       0       0       0
       0       0       0       0       0       0       0       0       0       0
       0       0       0       0       0       0       0       0       0       0
       0       0       0       0       0       0       0       0       0       0
       0       0       0       0       0       0       0       0       0       0
       0       0       0       0       0       0       0       0       0       0
       0       0       0       0       0       0       0       0       0       0
       0       0       0       0       0       0       0       0       0       0
       0       0       0       0       0       0       0       0       0       0
       0       0       0       0       0       0       0       0       0       0
       0       0       0       0       0       0       0       0       0       0
       0       0       0       0       0       0       0       0       0       0
       0       0       0       0       0       0       0       0       0       0
       0       0       0       0       0       0       0       0       0       0
       0       0       0       0       0       0       0       0       0       0
       0       0       0       0       0       0       0       0       0       0
       0       0       0       0       0       0       0       0       0       0
       0       0       0       0       0       0       0       0       0       0
       0       0       0       0       0       0       0       0       0       0
       0       0       0       0       0       0       0       0       0       0
       0       0       0       0       0       0       0       0       0       0
       0       0       0       0       0       0       0       0       0       0
       0       0       0       0       0       0       0       0       0       0
       0       0       0       0       0       0       0       0       0       0
       0       0       0       0       0       0       0       0       0       0
       0       0       0       0       0       0       0       0       0       0
       0       0       0       0       0       0       0       0       0       0
       0       0       0       0       0       0       0       0       0       0
       0       0       0       0       0       0       0       0       0       0
       0       0       0       0       0       0       0       0       0       0
       0       0       0       0       0       0       0       0       0       0
       0       0       0       0       0       0       0       0       0       0
       0       0       0       0       0       0       0       0       0       0
       0       0       0       0       0       0       0       0       0       0
       0       0       0       0       0       0       0       0       0       0
       0       0       0       0       0       0       0       0       0       0
       0       0       0       0       0       0       0       0       0       0
       0       0       0       0       0       0       0       0       0       0
       0       0       0       0       0       0       0       0       0       0
       0       0       0       0       0       0       0       0       0       0
       0       0       0       0       0       0       0       0       0       0
       0       0       0       0       0       0       0       0       0       0
       0       0       0       0       0       0       0       0       0       0
       0       0       0       0       0       0       0       0       0       0
       0       0       0       0       0       0       0       0       0       0
       0       0       0       0       0       0       0       0       0       0
       0       0       0       0       0       0       0       0       0       0
       0       0       0       0       0       0       0       0       0       0
       0       0       0       0       0       0       0       0       0       0
       0       0       0       0       0       0       0       0       0       0
       0       0       0       0       0       0       0       0       0       0
       0       0       0       0       0       0       0       0       0       0
       0       0       0       0       0       0       0       0       0       0
       0       0       0       0       0       0       0       0       0       0
       0       0       0       0       0       0       0       0       0       0
       0       0       0       0       0       0       0       0       0       0
       0       0       0       0       0       0       0       0       0       0
       0       0       0       0       0       0       0       0       0       0
       0       0       0       0       0       0       0       0       0       0
       0       0       0       0       0       0       0       0       0       0
       0       0       0       0       0       0       0       0       0       0
       0       0       0       0       0       0       0       0       0       0
       0       0       0       0       0       0       0       0       0       0
       0       0       0       0       0       0       0       0       0       0
       0       0       0       0       0       0       0       0       0       0
       0       0       0       0       0       0       0       0       0       0
       0       0       0       0       0       0       0       0       0       0
       0       0       0       0       0       0       0       0       0       0
       0       0       0       0       0       0       0       0       0       0
       0       0       0       0       0       0       0       0       0       0
       0       0       0       0       0       0       0       0       0       0
       0       0       0       0       0       0       0       0       0       0
       0       0       0       0       0       0       0       0       0       0
       0       0       0       0       0       0       0       0       0       0
       0       0       0       0       0       0       0       0       0       0
       0       0       0       0       0       0       0       0       0       0
       0       0       0       0       0       0       0       0       0       0
       0       0       0       0       0       0       0       0       0       0
       0       0       0       0       0       0       0       0       0       0
       0       0       0       0       0       0       0       0       0       0
       0       0       0       0       0       0       0       0       0       0
       0       0       0       0       0       0       0       0       0       0
       0       0       0       0       0       0       0       0       0       0
       0       0       0       0       0       0       0       0       0       0
       0       0       0       0       0       0       0       0       0       0
       0       0       0       0       0       0       0       0       0       0
       0       0       0       0       0       0       0       0       0       0
       0       0       0       0       0       0       0       0       0       0
       0       0       0       0       0       0       0       0       0       0
       0       0       0       0       0       0       0       0       0       0
       0       0       0       0       0       0       0       0       0       0
       0       0       0       0       0       0       0       0       0       0
       0       0       0       0       0       0       0       0       0       0
       0       0       0       0       0       0       0       0       0       0
       0       0       0       0       0       0       0       0       0       0
       0       0       0       0       0       0       0       0       0       0
       0       0       0       0       0       0       0       0       0       0
       0       0       0       0       0       0       0       0       0       0
       0       0       0       0       0       0       0       0       0       0
       0       0       0       0       0       0       0       0       0       0
       0       0       0       0       0       0       0       0       0       0
       0       0       0       0       0       0       0       0       0       0
       0       0       0       0       0       0       0       0       0       0
       0       0       0       0       0       0       0       0       0       0
       0       0       0       0       0       0       0       0       0       0
       0       0       0       0       0       0       0       0       0       0
       0       0       0       0       0       0       0       0       0       0
       0       0       0       0       0       0       0       0       0       0
       0       0       0       0       0       0       0       0       0       0
       0       0       0       0       0       0       0       0       0       0
       0       0       0       0       0       0       0       0       0       0
       0       0       0       0       0       0       0       0       0       0
       0       0       0       0       0       0       0       0       0       0
       0       0       0       0       0       0       0       0       0       0
       0       0       0       0       0       0       0       0       0       0
       0       0       0       0       0       0       0       0       0       0
       0       0       0       0       0       0       0       0       0       0
       0       0       0       0       0       0       0       0       0       0
       0       0       0       0       0       0       0       0       0       0
       0       0       0       0       0       0       0       0       0       0
       0       0       0       0       0       0       0       0       0       0
       0       0       0       0       0       0       0       0       0       0
       0       0       0       0       0       0       0       0       0       0
       0       0       0       0       0       0       0       0       0       0
       0       0       0       0       0       0       0       0       0       0
       0       0       0       0       0       0       0       0       0       0
       0       0       0       0       0       0       0       0       0       0
       0       0       0       0       0       0       0       0       0       0
       0       0       0       0       0       0       0       0       0       0
       0       0       0       0       0       0       0       0       0       0
       0       0       0       0       0       0       0       0       0       0
       0       0       0       0       0       0       0       0       0       0
       0       0       0       0       0       0       0       0       0       0
       0       0       0       0       0       0       0       0       0       0
       0       0       0       0       0       0       0       0       0       0
       0       0       0       0       0       0       0       0       0       0
       0       0       0       0       0       0       0       0       0       0
       0       0       0       0       0       0       0       0       0       0
       0       0       0       0       0       0       0       0       0       0
       0       0       0       0       0       0       0       0       0       0
       0       0       0       0       0       0       0       0       0       0
       0       0       0       0       0       0       0       0       0       0
       0       0       0       0       0       0       0       0       0       0
       0       0       0       0       0       0       0       0       0       0
       0       0       0       0       0       0       0       0       0       0
       0       0       0       0       0       0       0       0       0       0
       0       0       0       0       0       0       0       0       0       0
       0       0       0       0       0       0       0       0       0       0
       0       0       0       0       0       0       0       0       0       0
       0       0       0       0       0       0       0       0       0       0
       0       0       0       0       0       0       0       0       0       0
       0       0       0       0       0       0       0       0       0       0
       0       0       0       0       0       0       0       0       0       0
       0       0       0       0       0       0       0       0       0       0
       0       0       0       0       0       0       0       0       0       0
       0       0       0       0       0       0       0       0       0       0
       0       0       0       0       0       0       0       0       0       0
       0       0       0       0       0       0       0       0       0       0
       0       0       0       0       0       0       0       0       0       0
       0       0       0       0       0       0       0       0       0       0
       0       0       0       0       0       0       0       0       0       0
       0       0       0       0       0       0       0       0       0       0
       0       0       0       0       0       0       0       0       0       0
       0       0       0       0       0       0       0       0       0       0
       0       0       0       0       0       0       0       0       0       0
       0       0       0       0       0       0       0       0       0       0
       0       0       0       0       0       0       0       0       0       0
       0       0       0       0       0       0       0       0       0       0
       0       0       0       0       0       0       0       0       0       0
       0       0       0       0       0       0       0       0       0       0
       0       0       0       0       0       0       0       0       0       0
       0       0       0       0       0       0       0       0       0       0
       0       0       0       0       0       0       0       0       0       0
       0       0       0       0       0       0       0       0       0       0
       0       0       0       0       0       0       0       0       0       0
       0       0       0       0       0       0       0       0       0       0
       0       0       0       0       0       0       0       0       0       0
       0       0       0       0       0       0       0       0       0       0
       0       0       0       0       0       0       0       0       0       0
       0       0       0       0       0       0       0       0       0       0
       0       0       0       0       0       0       0       0       0       0
       0       0       0       0       0       0       0       0       0       0
       0       0       0       0       0       0       0       0       0       0
       0       0       0       0       0       0       0       0       0       0
       0       0       0       0       0       0       0       0       0       0
       0       0       0       0       0       0       0       0       0       0
       0       0       0       0       0       0       0       0       0       0
       0       0       0       0       0       0       0       0       0       0
       0       0       0       0       0       0       0       0       0       0
       0       0       0       0       0       0       0       0       0       0
       0       0       0       0       0       0       0       0       0       0
       0       0       0       0       0       0       0       0       0       0
       0       0       0       0       0       0       0       0       0       0
       0       0       0       0       0       0       0       0       0       0
       0       0       0       0       0       0       0       0       0       0
       0       0       0       0       0       0       0       0       0       0
       0       0       0       0       0       0       0       0       0       0
       0       0       0       0       0       0       0       0       0       0
       0       0       0       0       0       0       0       0       0       0
       0       0       0       0       0       0       0       0       0       0
       0       0       0       0       0       0       0       0       0       0
       0       0       0       0       0       0       0       0       0       0
       0       0       0       0       0       0       0       0       0       0
       0       0       0       0       0       0       0       0       0       0
       0       0       0       0       0       0       0       0       0       0
       0       0       0       0       0       0       0       0       0       0
       0       0       0       0       0       0       0       0       0       0
       0       0       0       0       0       0       0       0       0       0
       0       0       0       0       0       0       0       0       0       0
       0       0       0       0       0       0       0       0       0       0
       0       0       0       0       0       0       0       0       0       0
       0       0       0       0       0       0       0       0       0       0
       0       0       0       0       0       0       0       0       0       0
       0       0       0       0       0       0       0       0       0       0
       0       0       0       0       0       0       0       0       0       0
       0       0       0       0       0       0       0       0       0       0
       0       0       0       0       0       0       0       0       0       0
       0       0       0       0       0       0       0       0       0       0
       0       0       0       0       0       0       0       0       0       0
       0       0       0       0       0       0       0       0       0       0
       0       0       0       0       0       0       0       0       0       0
       0       0       0       0       0       0       0       0       0       0
       0       0       0       0       0       0       0       0       0       0
       0       0       0       0       0       0       0       0       0       0
       0       0       0       0       0       0       0       0       0       0
       0       0       0       0       0       0       0       0       0       0
       0       0       0       0       0       0       0       0       0       0
       0       0       0       0       0       0       0       0       0       0
       0       0       0       0       0       0       0       0       0       0
       0       0       0       0       0       0       0       0       0       0
       0       0       0       0       0       0       0       0       0       0
       0       0       0       0       0       0       0       0       0       0
       0       0       0       0       0       0       0       0       0       0
       0       0       0       0       0       0       0       0       0       0
       0       0       0       0       0       0       0       0       0       0
       0       0       0       0       0       0       0       0       0       0
       0       0       0       0       0       0       0       0       0       0
       0       0       0       0       0       0       0       0       0       0
       0       0       0       0       0       0       0       0       0       0
       0       0       0       0       0       0       0       0       0       0
       0       0       0       0       0       0       0       0       0       0
       0       0       0       0       0       0       0       0       0       0
       0       0       0       0       0       0       0       0       0       0
       0       0       0       0       0       0       0       0       0       0
       0       0       0       0       0       0       0       0       0       0
       0       0       0       0       0       0       0       0       0       0
       0       0       0       0       0       0       0       0       0       0
       0       0       0       0       0       0       0       0       0       0
       0       0       0       0       0       0       0       0       0       0
       0       0       0       0       0       0       0       0       0       0
       0       0       0       0       0       0       0       0       0       0
       0       0       0       0       0       0       0       0       0       0
       0       0       0       0       0       0       0       0       0       0
       0       0       0       0       0       0       0       0       0       0
       0       0       0       0       0       0       0       0       0       0
       0       0       0       0       0       0       0       0       0       0
       0       0       0       0       0       0       0       0       0       0
       0       0       0       0       0       0       0       0       0       0
       0       0       0       0       0       0       0       0       0       0
       0       0       0       0       0       0       0       0       0       0
       0       0       0       0       0       0       0       0       0       0
       0       0       0       0       0       0       0       0       0       0
       0       0       0       0       0       0       0       0       0       0
       0       0       0       0       0       0       0       0       0       0
       0       0       0       0       0       0       0       0       0       0
       0       0       0       0       0       0       0       0       0       0
       0       0       0       0       0       0       0       0       0       0
       0       0       0       0       0       0       0       0       0       0
       0       0       0       0       0       0       0       0       0       0
       0       0       0       0       0       0       0       0       0       0
       0       0       0       0       0       0       0       0       0       0
       0       0       0       0       0       0       0       0       0       0
       0       0       0       0       0       0       0       0       0       0
       0       0       0       0       0       0       0       0       0       0
       0       0       0       0       0       0       0       0       0       0
       0       0       0       0       0       0       0       0       0       0
       0       0       0       0       0       0       0       0       0       0
       0       0       0       0       0       0       0       0       0       0
       0       0       0       0       0       0       0       0       0       0
       0       0       0       0       0       0       0       0       0       0
       0       0       0       0       0       0       0       0       0       0
       0       0       0       0       0       0       0       0       0       0
       0       0       0       0       0       0       0       0       0       0
       0       0       0       0       0       0       0       0       0       0
       0       0       0       0       0       0       0       0       0       0
       0       0       0       0       0       0       0       0       0       0
       0       0       0       0       0       0       0       0       0       0
       0       0       0       0       0       0       0       0       0       0
       0       0       0       0       0       0       0       0       0       0
       0       0       0       0       0       0       0       0       0       0
       0       0       0       0       0       0       0       0       0       0
       0       0       0       0       0       0       0       0       0       0
       0       0       0       0       0       0       0       0       0       0
       0       0       0       0       0       0       0       0       0       0
       0       0       0       0       0       0       0       0       0       0
       0       0       0       0       0       0       0       0       0       0
       0       0       0       0       0       0       0       0       0       0
       0       0       0       0       0       0       0       0       0       0
       0       0       0       0       0       0       0       0       0       0
       0       0       0       0       0       0       0       0       0       0
       0       0       0       0       0       0       0       0       0       0
       0       0       0       0       0       0       0       0       0       0
       0       0       0       0       0       0       0       0       0       0
       0       0       0       0       0       0       0       0       0       0
       0       0       0       0       0       0       0       0       0       0
       0       0       0       0       0       0       0       0       0       0
       0       0       0       0       0       0       0       0       0       0
       0       0       0       0       0       0       0       0       0       0
       0       0       0       0       0       0       0       0       0       0
       0       0       0       0       0       0       0       0       0       0
       0       0       0       0       0       0       0       0       0       0
       0       0       0       0       0       0       0       0       0       0
       0       0       0       0       0       0       0       0       0       0
       0       0       0       0       0       0       0       0       0       0
       0       0       0       0       0       0       0       0       0       0
       0       0       0       0       0       0       0       0       0       0
       0       0       0       0       0       0       0       0       0       0
       0       0       0       0       0       0       0       0       0       0
       0       0       0       0       0       0       0       0       0       0
       0       0       0       0       0       0       0       0       0       0
       0       0       0       0       0       0       0       0       0       0
       0       0       0       0       0       0       0       0       0       0
       0       0       0       0       0       0       0       0       0       0
       0       0       0       0       0       0       0       0       0       0
       0       0       0       0       0       0       0       0       0       0
       0       0       0       0       0       0       0       0       0       0
       0       0       0       0       0       0       0       0       0       0
       0       0       0       0       0       0       0       0       0       0
       0       0       0       0       0       0       0       0       0       0
       0       0       0       0       0       0       0       0       0       0
       0       0       0       0       0       0       0       0       0       0
       0       0       0       0       0       0       0       0       0       0
       0       0       0       0       0       0       0       0       0       0
       0       0       0       0       0       0       0       0       0       0
       0       0       0       0       0       0       0       0       0       0
       0       0       0       0       0       0       0       0       0       0
       0       0       0       0       0       0       0       0       0       0
       0       0       0       0       0       0       0       0       0       0
       0       0       0       0       0       0       0       0       0       0
       0       0       0       0       0       0       0       0       0       0
       0       0       0       0       0       0       0       0       0       0
       0       0       0       0       0       0       0       0       0       0
       0       0       0       0       0       0       0       0       0       0
       0       0       0       0       0       0       0       0       0       0
       0       0       0       0       0       0       0       0       0       0
       0       0       0       0       0       0       0       0       0       0
       0       0       0       0       0       0       0       0       0       0
       0       0       0       0       0       0       0       0       0       0
       0       0       0       0       0       0       0       0       0       0
       0       0       0       0       0       0       0       0       0       0
       0       0       0       0       0       0       0       0       0       0
       0       0       0       0       0       0       0       0       0       0
       0       0       0       0       0       0       0       0       0       0
       0       0       0       0       0       0       0       0       0       0
       0       0       0       0       0       0       0       0       0       0
       0       0       0       0       0       0       0       0       0       0
       0       0       0       0       0       0       0       0       0       0
       0       0       0       0       0       0       0       0       0       0
       0       0       0       0       0       0       0       0       0       0
       0       0       0       0       0       0       0       0       0       0
       0       0       0       0       0       0       0       0       0       0
       0       0       0       0       0       0       0       0       0       0
       0       0       0       0       0       0       0       0       0       0
       0       0       0       0       0       0       0       0       0       0
       0       0       0       0       0       0       0       0       0       0
       0       0       0       0       0       0       0       0       0       0
       0       0       0       0       0       0       0       0       0       0
       0       0       0       0       0       0       0       0       0       0
       0       0       0       0       0       0       0       0       0       0
       0       0       0       0       0       0       0       0       0       0
       0       0       0       0       0       0       0       0       0       0
       0       0       0       0       0       0       0       0       0       0
       0       0       0       0       0       0       0       0       0       0
       0       0       0       0       0       0       0       0       0       0
       0       0       0       0       0       0       0       0       0       0
       0       0       0       0       0       0       0       0       0       0
       0       0       0       0       0       0       0       0       0       0
       0       0       0       0       0       0       0       0       0       0
       0       0       0       0       0       0       0       0       0       0
       0       0       0       0       0       0       0       0       0       0
       0       0       0       0       0       0       0       0       0       0
       0       0       0       0       0       0       0       0       0       0
       0       0       0       0       0       0       0       0       0       0
       0       0       0       0       0       0       0       0       0       0
       0       0       0       0       0       0       0       0       0       0
       0       0       0       0       0       0       0       0       0       0
       0       0       0       0       0       0       0       0       0       0
       0       0       0       0       0       0       0       0       0       0
       0       0       0       0       0       0       0       0       0       0
       0       0       0       0       0       0       0       0       0       0
       0       0       0       0       0       0       0       0       0       0
       0       0       0       0       0       0       0       0       0       0
       0       0       0       0       0       0       0       0       0       0
       0       0       0       0       0       0       0       0       0       0
       0       0       0       0       0       0       0       0       0       0
       0       0       0       0       0       0       0       0       0       0
       0       0       0       0       0       0       0       0       0       0
       0       0       0       0       0       0       0       0       0       0
       0       0       0       0       0       0       0       0       0       0
       0       0       0       0       0       0       0       0       0       0
       0       0       0       0       0       0       0       0       0       0
       0       0       0       0       0       0       0       0       0       0
       0       0       0       0       0       0       0       0       0       0
       0       0       0       0       0       0       0       0       0       0
       0       0       0       0       0       0       0       0       0       0
       0       0       0       0       0       0       0       0       0       0
       0       0       0       0       0       0       0       0       0       0
       0       0       0       0       0       0       0       0       0       0
       0       0       0       0       0       0       0       0       0       0
       0       0       0       0       0       0       0       0       0       0
       0       0       0       0       0       0       0       0       0       0
       0       0       0       0       0       0       0       0       0       0
       0       0       0       0       0       0       0       0       0       0
       0       0       0       0       0       0       0       0       0       0
       0       0       0       0       0       0       0       0       0       0
       0       0       0       0       0       0       0       0       0       0
       0       0       0       0       0       0       0       0       0       0
       0       0       0       0       0       0       0       0       0       0
       0       0       0       0       0       0       0       0       0       0
       0       0       0       0       0       0       0       0       0       0
       0       0       0       0       0       0       0       0       0       0
       0       0       0       0       0       0       0       0       0       0
       0       0       0       0       0       0       0       0       0       0
       0       0       0       0       0       0       0       0       0       0
       0       0       0       0       0       0       0       0       0       0
       0       0       0       0       0       0       0       0       0       0
       0       0       0       0       0       0       0       0       0       0
       0       0       0       0       0       0       0       0       0       0
       0       0       0       0       0       0       0       0       0       0
       0       0       0       0       0       0       0       0       0       0
       0       0       0       0       0       0       0       0       0       0
       0       0       0       0       0       0       0       0       0       0
       0       0       0       0       0       0       0       0       0       0
       0       0       0       0       0       0       0       0       0       0
       0       0       0       0       0       0       0       0       0       0
       0       0       0       0       0       0       0       0       0       0
       0       0       0       0       0       0       0       0       0       0
       0       0       0       0       0       0       0       0       0       0
       0       0       0       0       0       0       0       0       0       0
       0       0       0       0       0       0       0       0       0       0
       0       0       0       0       0       0       0       0       0       0
       0       0       0       0       0       0       0       0       0       0
       0       0       0       0       0       0       0       0       0       0
       0       0       0       0       0       0       0       0       0       0
       0       0       0       0       0       0       0       0       0       0
       0       0       0       0       0       0       0       0       0       0
       0       0       0       0       0       0       0       0       0       0
       0       0       0       0       0       0       0       0       0       0
       0       0       0       0       0       0       0       0       0       0
       0       0       0       0       0       0       0       0       0       0
       0       0       0       0       0       0       0       0       0       0
       0       0       0       0       0       0       0       0       0       0
       0       0       0       0       0       0       0       0       0       0
       0       0       0       0       0       0       0       0       0       0
       0       0       0       0       0       0       0       0       0       0
       0       0       0       0       0       0       0       0       0       0
       0       0       0       0       0       0       0       0       0       0
       0       0       0       0       0       0       0       0       0       0
       0       0       0       0       0       0       0       0       0       0
       0       0       0       0       0       0       0       0       0       0
       0       0       0       0       0       0       0       0       0       0
       0       0       0       0       0       0       0       0       0       0
       0       0       0       0       0       0       0       0       0       0
       0       0       0       0       0       0       0       0       0       0
       0       0       0       0       0       0       0       0       0       0
       0       0       0       0       0       0       0       0       0       0
       0       0       0       0       0       0       0       0       0       0
       0       0       0       0       0       0       0       0       0       0
       0       0       0       0       0       0       0       0       0       0
       0       0       0       0       0       0       0       0       0       0
       0       0       0       0       0       0       0       0       0       0
       0       0       0       0       0       0       0       0       0       0
       0       0       0       0       0       0       0       0       0       0
       0       0       0       0       0       0       0       0       0       0
       0       0       0       0       0       0       0       0       0       0
       0       0       0       0       0       0       0       0       0       0
       0       0       0       0       0       0       0       0       0       0
       0       0       0       0       0       0       0       0       0       0
       0       0       0       0       0       0       0       0       0       0
       0       0       0       0       0       0       0       0       0       0
       0       0       0       0       0       0       0       0       0       0
       0       0       0       0       0       0       0       0       0       0
       0       0       0       0       0       0       0       0       0       0
       0       0       0       0       0       0       0       0       0       0
       0       0       0       0       0       0       0       0       0       0
       0       0       0       0       0       0       0       0       0       0
       0       0       0       0       0       0       0       0       0       0
       0       0       0       0       0       0       0       0       0       0
       0       0       0       0       0       0       0       0       0       0
       0       0       0       0       0       0       0       0       0       0
       0       0       0       0       0       0       0       0       0       0
       0       0       0       0       0       0       0       0       0       0
       0       0       0       0       0       0       0       0       0       0
       0       0       0       0       0       0       0       0       0       0
       0       0       0       0       0       0       0       0       0       0
       0       0       0       0       0       0       0       0       0       0
       0       0       0       0       0       0       0       0       0       0
       0       0       0       0       0       0       0       0       0       0
       0       0       0       0       0       0       0       0       0       0
       0       0       0       0       0       0       0       0       0       0
       0       0       0       0       0       0       0       0       0       0
       0       0       0       0       0       0       0       0       0       0
       0       0       0       0       0       0       0       0       0       0
       0       0       0       0       0       0       0       0       0       0
       0       0       0       0       0       0       0       0       0       0
       0       0       0       0       0       0       0       0       0       0
       0       0       0       0       0       0       0       0       0       0
       0       0       0       0       0       0       0       0       0       0
       0       0       0       0       0       0       0       0       0       0
       0       0       0       0       0       0       0       0       0       0
       0       0       0       0       0       0       0       0       0       0
       0       0       0       0       0       0       0       0       0       0
       0       0       0       0       0       0       0       0       0       0
       0       0       0       0       0       0       0       0       0       0
       0       0       0       0       0       0       0       0       0       0
       0       0       0       0       0       0       0       0       0       0
       0       0       0       0       0       0       0       0       0       0
       0       0       0       0       0       0       0       0       0       0
       0       0       0       0       0       0       0       0       0       0
       0       0       0       0       0       0       0       0       0       0
       0       0       0       0       0       0       0       0       0       0
       0       0       0       0       0       0       0       0       0       0
       0       0       0       0       0       0       0       0       0       0
       0       0       0       0       0       0       0       0       0       0
       0       0       0       0       0       0       0       0       0       0
       0       0       0       0       0       0       0       0       0       0
       0       0       0       0       0       0       0       0       0       0
       0       0       0       0       0       0       0       0       0       0
       0       0       0       0       0       0       0       0       0       0
       0       0       0       0       0       0       0       0       0       0
       0       0       0       0       0       0       0       0       0       0
       0       0       0       0       0       0       0       0       0       0
       0       0       0       0       0       0       0       0       0       0
       0       0       0       0       0       0       0       0       0       0
       0       0       0       0       0       0       0       0       0       0
       0       0       0       0       0       0       0       0       0       0
       0       0       0       0       0       0       0       0       0       0
       0       0       0       0       0       0       0       0       0       0
       0       0       0       0       0       0       0       0       0       0
       0       0       0       0       0       0       0       0       0       0
       0       0       0       0       0       0       0       0       0       0
       0       0       0       0       0       0       0       0       0       0
       0       0       0       0       0       0       0       0       0       0
       0       0       0       0       0       0       0       0       0       0
       0       0       0       0       0       0       0       0       0       0
       0       0       0       0       0       0       0       0       0       0
       0       0       0       0       0       0       0       0       0       0
       0       0       0       0       0       0       0       0       0       0
       0       0       0       0       0       0       0       0       0       0
       0       0       0       0       0       0       0       0       0       0
       0       0       0       0       0       0       0       0       0       0
       0       0       0       0       0       0       0       0       0       0
       0       0       0       0       0       0       0       0       0       0
       0       0       0       0       0       0       0       0       0       0
       0       0       0       0       0       0       0       0       0       0
       0       0       0       0       0       0       0       0       0       0
       0       0       0       0       0       0       0       0       0       0
       0       0       0       0       0       0       0       0       0       0
       0       0       0       0       0       0       0       0       0       0
       0       0       0       0       0       0       0       0       0       0
       0       0       0       0       0       0       0       0       0       0
       0       0       0       0       0       0       0       0       0       0
       0       0       0       0       0       0       0       0       0       0
       0       0       0       0       0       0       0       0       0       0
       0       0       0       0       0       0       0       0       0       0
       0       0       0       0       0       0       0       0       0       0
       0       0       0       0       0       0       0       0       0       0
       0       0       0       0       0       0       0       0       0       0
       0       0       0       0       0       0       0       0       0       0
       0       0       0       0       0       0       0       0       0       0
       0       0       0       0       0       0       0       0       0       0
       0       0       0       0       0       0       0       0       0       0
       0       0       0       0       0       0       0       0       0       0
       0       0       0       0       0       0       0       0       0       0
       0       0       0       0       0       0       0       0       0       0
       0       0       0       0       0       0       0       0       0       0
       0       0       0       0       0       0       0       0       0       0
       0       0       0       0       0       0       0       0       0       0
       0       0       0       0       0       0       0       0       0       0
       0       0       0       0       0       0       0       0       0       0
       0       0       0       0       0       0       0       0       0       0
       0       0       0       0       0       0       0       0       0       0
       0       0       0       0       0       0       0       0       0       0
       0       0       0       0       0       0       0       0       0       0
       0       0       0       0       0       0       0       0       0       0
       0       0       0       0       0       0       0       0       0       0
       0       0       0       0       0       0       0       0       0       0
       0       0       0       0       0       0       0       0       0       0
       0       0       0       0       0       0       0       0       0       0
       0       0       0       0       0       0       0       0       0       0
       0       0       0       0       0       0       0       0       0       0
       0       0       0       0       0       0       0       0       0       0
       0       0       0       0       0       0       0       0       0       0
       0       0       0       0       0       0       0       0       0       0
       0       0       0       0       0       0       0       0       0       0
       0       0       0       0       0       0       0       0       0       0
       0       0       0       0       0       0       0       0       0       0
       0       0       0       0       0       0       0       0       0       0
       0       0       0       0       0       0       0       0       0       0
       0       0       0       0       0       0       0       0       0       0
       0       0       0       0       0       0       0       0       0       0
       0       0       0       0       0       0       0       0       0       0
       0       0       0       0       0       0       0       0       0       0
       0       0       0       0       0       0       0       0       0       0
       0       0       0       0       0       0       0       0       0       0
       0       0       0       0       0       0       0       0       0       0
       0       0       0       0       0       0       0       0       0       0
       0       0       0       0       0       0       0       0       0       0
       0       0       0       0       0       0       0       0       0       0
       0       0       0       0       0       0       0       0       0       0
       0       0       0       0       0       0       0       0       0       0
       0       0       0       0       0       0       0       0       0       0
       0       0       0       0       0       0       0       0       0       0
       0       0       0       0       0       0       0       0       0       0
       0       0       0       0       0       0       0       0       0       0
       0       0       0       0       0       0       0       0       0       0
       0       0       0       0       0       0       0       0       0       0
       0       0       0       0       0       0       0       0       0       0
       0       0       0       0       0       0       0       0       0       0
       0       0       0       0       0       0       0       0       0       0
       0       0       0       0       0       0       0       0       0       0
       0       0       0       0       0       0       0       0       0       0
       0       0       0       0       0       0       0       0       0       0
       0       0       0       0       0       0       0       0       0       0
       0       0       0       0       0       0       0       0       0       0
       0       0       0       0       0       0       0       0       0       0
       0       0       0       0       0       0       0       0       0       0
       0       0       0       0       0       0       0       0       0       0
       0       0       0       0       0       0       0       0       0       0
       0       0       0       0       0       0       0       0       0       0
       0       0       0       0       0       0       0       0       0       0
       0       0       0       0       0       0       0       0       0       0
       0       0       0       0       0       0       0       0       0       0
       0       0       0       0       0       0       0       0       0       0
       0       0       0       0       0       0       0       0       0       0
       0       0       0       0       0       0       0       0       0       0
       0       0       0       0       0       0       0       0       0       0
       0       0       0       0       0       0       0       0       0       0
       0       0       0       0       0       0       0       0       0       0
       0       0       0       0       0       0       0       0       0       0
       0       0       0       0       0       0       0       0       0       0
       0       0       0       0       0       0       0       0       0       0
       0       0       0       0       0       0       0       0       0       0
       0       0       0       0       0       0       0       0       0       0
       0       0       0       0       0       0       0       0       0       0
       0       0       0       0       0       0       0       0       0       0
       0       0       0       0       0       0       0       0       0       0
       0       0       0       0       0       0       0       0       0       0
       0       0       0       0       0       0       0       0       0       0
       0       0       0       0       0       0       0       0       0       0
       0       0       0       0       0       0       0       0       0       0
       0       0       0       0       0       0       0       0       0       0
       0       0       0       0       0       0       0       0       0       0
       0       0       0       0       0       0       0       0       0       0
       0       0       0       0       0       0       0       0       0       0
       0       0       0       0       0       0       0       0       0       0
       0       0       0       0       0       0       0       0       0       0
       0       0       0       0       0       0       0       0       0       0
       0       0       0       0       0       0       0       0       0       0
       0       0       0       0       0       0       0       0       0       0
       0       0       0       0       0       0       0       0       0       0
       0       0       0       0       0       0       0       0       0       0
       0       0       0       0       0       0       0       0       0       0
       0       0       0       0       0       0       0       0       0       0
       0       0       0       0       0       0       0       0       0       0
       0       0       0       0       0       0       0       0       0       0
       0       0       0       0       0       0       0       0       0       0
%FLAG SOLVENT_POINTERS
%FORMAT(3I8)
      51    9961       2
%FLAG ATOMS_PER_MOLECULE
%FORMAT(10I8)
     800       3       3       3       3       3       3       3       3       3
       3       3       3       3       3       3       3       3       3       3
       3       3       3       3       3       3       3       3       3       3
       3       3       3       3       3       3       3       3       3       3
       3       3       3       3       3       3       3       3       3       3
       3       3       3       3       3       3       3       3       3       3
       3       3       3       3       3       3       3       3       3       3
       3       3       3       3       3       3       3       3       3       3
       3       3       3       3       3       3       3       3       3       3
       3       3       3       3       3       3       3       3       3       3
       3       3       3       3       3       3       3       3       3       3
       3       3       3       3       3       3       3       3       3       3
       3       3       3       3       3       3       3       3       3       3
       3       3       3       3       3       3       3       3       3       3
       3       3       3       3       3       3       3       3       3       3
       3       3       3       3       3       3       3       3       3       3
       3       3       3       3       3       3       3       3       3       3
       3       3       3       3       3       3       3       3       3       3
       3       3       3       3       3       3       3       3       3       3
       3       3       3       3       3       3       3       3       3       3
       3       3       3       3       3       3       3       3       3       3
       3       3       3       3       3       3       3       3       3       3
       3       3       3       3       3       3       3       3       3       3
       3       3       3       3       3       3       3       3       3       3
       3       3       3       3       3       3       3       3       3       3
       3       3       3       3       3       3       3       3       3       3
       3       3       3       3       3       3       3       3       3       3
       3       3       3       3       3       3       3       3       3       3
       3       3       3       3       3       3       3       3       3       3
       3       3       3       3       3       3       3       3       3       3
       3       3       3       3       3       3       3       3       3       3
       3       3       3       3       3       3       3       3       3       3
       3       3       3       3       3       3       3       3       3       3
       3       3       3       3       3       3       3       3       3       3
       3       3       3       3       3       3       3       3       3       3
       3       3       3       3       3       3       3       3       3       3
       3       3       3       3       3       3       3       3       3       3
       3       3       3       3       3       3       3       3       3       3
       3       3       3       3       3       3       3       3       3       3
       3       3       3       3       3       3       3       3       3       3
       3       3       3       3       3       3       3       3       3       3
       3       3       3       3       3       3       3       3       3       3
       3       3       3       3       3       3       3       3       3       3
       3       3       3       3       3       3       3       3       3       3
       3       3       3       3       3       3       3       3       3       3
       3       3       3       3       3       3       3       3       3       3
       3       3       3       3       3       3       3       3       3       3
       3       3       3       3       3       3       3       3       3       3
       3       3       3       3       3       3       3       3       3       3
       3       3       3       3       3       3       3       3       3       3
       3       3       3       3       3       3       3       3       3       3
       3       3       3       3       3       3       3       3       3       3
       3       3       3       3       3       3       3       3       3       3
       3       3       3       3       3       3       3       3       3       3
       3       3       3       3       3       3       3       3       3       3
       3       3       3       3       3       3       3       3       3       3
       3       3       3       3       3       3       3       3       3       3
       3       3       3       3       3       3       3       3       3       3
       3       3       3       3       3       3       3       3       3       3
       3       3       3       3       3       3       3       3       3       3
       3       3       3       3       3       3       3       3       3       3
       3       3       3       3       3       3       3       3       3       3
       3       3       3       3       3       3       3       3       3       3
       3       3       3       3       3       3       3       3       3       3
       3       3       3       3       3       3       3       3       3       3
       3       3       3       3       3       3       3       3       3       3
       3       3       3       3       3       3       3       3       3       3
       3       3       3       3       3       3       3       3       3       3
       3       3       3       3       3       3       3       3       3       3
       3       3       3       3       3       3       3       3       3       3
       3       3       3       3       3       3       3       3       3       3
       3       3       3       3       3       3       3       3       3       3
       3       3       3       3       3       3       3       3       3       3
       3       3       3       3       3       3       3       3       3       3
       3       3       3       3       3       3       3       3       3       3
       3       3       3       3       3       3       3       3       3       3
       3       3       3       3       3       3       3       3       3       3
       3       3       3       3       3       3       3       3       3       3
       3       3       3       3       3       3       3       3       3       3
       3       3       3       3       3       3       3       3       3       3
       3       3       3       3       3       3       3       3       3       3
       3       3       3       3       3       3       3       3       3       3
       3       3       3       3       3       3       3       3       3       3
       3       3       3       3       3       3       3       3       3       3
       3       3       3       3       3       3       3       3       3       3
       3       3       3       3       3       3       3       3       3       3
       3       3       3       3       3       3       3       3       3       3
       3       3       3       3       3       3       3       3       3       3
       3       3       3       3       3       3       3       3       3       3
       3       3       3       3       3       3       3       3       3       3
       3       3       3       3       3       3       3       3       3       3
       3       3       3       3       3       3       3       3       3       3
       3       3       3       3       3       3       3       3       3       3
       3       3       3       3       3       3       3       3       3       3
       3       3       3       3       3       3       3       3       3       3
       3       3       3       3       3       3       3       3       3       3
       3       3       3       3       3       3       3       3       3       3
       3       3       3       3       3       3       3       3       3       3
       3       3       3       3       3       3       3       3       3       3
       3       3       3       3       3       3       3       3       3       3
       3       3       3       3       3       3       3       3       3       3
       3       3       3       3       3       3       3       3       3       3
       3       3       3       3       3       3       3       3       3       3
       3       3       3       3       3       3       3       3       3       3
       3       3       3       3       3       3       3       3       3       3
       3       3       3       3       3       3       3       3       3       3
       3       3       3       3       3       3       3       3       3       3
       3       3       3       3       3       3       3       3       3       3
       3       3       3       3       3       3       3       3       3       3
       3       3       3       3       3       3       3       3       3       3
       3       3       3       3       3       3       3       3       3       3
       3       3       3       3       3       3       3       3       3       3
       3       3       3       3       3       3       3       3       3       3
       3       3       3       3       3       3       3       3       3       3
       3       3       3       3       3       3       3       3       3       3
       3       3       3       3       3       3       3       3       3       3
       3       3       3       3       3       3       3       3       3       3
       3       3       3       3       3       3       3       3       3       3
       3       3       3       3       3       3       3       3       3       3
       3       3       3       3       3       3       3       3       3       3
       3       3       3       3       3       3       3       3       3       3
       3       3       3       3       3       3       3       3       3       3
       3       3       3       3       3       3       3       3       3       3
       3       3       3       3       3       3       3       3       3       3
       3       3       3       3       3       3       3       3       3       3
       3       3       3       3       3       3       3       3       3       3
       3       3       3       3       3       3       3       3       3       3
       3       3       3       3       3       3       3       3       3       3
       3       3       3       3       3       3       3       3       3       3
       3       3       3       3       3       3       3       3       3       3
       3       3       3       3       3       3       3       3       3       3
       3       3       3       3       3       3       3       3       3       3
       3       3       3       3       3       3       3       3       3       3
       3       3       3       3       3       3       3       3       3       3
       3       3       3       3       3       3       3       3       3       3
       3       3       3       3       3       3       3       3       3       3
       3       3       3       3       3       3       3       3       3       3
       3       3       3       3       3       3       3       3       3       3
       3       3       3       3       3       3       3       3       3       3
       3       3       3       3       3       3       3       3       3       3
       3       3       3       3       3       3       3       3       3       3
       3       3       3       3       3       3       3       3       3       3
       3       3       3       3       3       3       3       3       3       3
       3       3       3       3       3       3       3       3       3       3
       3       3       3       3       3       3       3       3       3       3
       3       3       3       3       3       3       3       3       3       3
       3       3       3       3       3       3       3       3       3       3
       3       3       3       3       3       3       3       3       3       3
       3       3       3       3       3       3       3       3       3       3
       3       3       3       3       3       3       3       3       3       3
       3       3       3       3       3       3       3       3       3       3
       3       3       3       3       3       3       3       3       3       3
       3       3       3       3       3       3       3       3       3       3
       3       3       3       3       3       3       3       3       3       3
       3       3       3       3       3       3       3       3       3       3
       3       3       3       3       3       3       3       3       3       3
       3       3       3       3       3       3       3       3       3       3
       3       3       3       3       3       3       3       3       3       3
       3       3       3       3       3       3       3       3       3       3
       3       3       3       3       3       3       3       3       3       3
       3       3       3       3       3       3       3       3       3       3
       3       3       3       3       3       3       3       3       3       3
       3       3       3       3       3       3       3       3       3       3
       3       3       3       3       3       3       3       3       3       3
       3       3       3       3       3       3       3       3       3       3
       3       3       3       3       3       3       3       3       3       3
       3       3       3       3       3       3       3       3       3       3
       3       3       3       3       3       3       3       3       3       3
       3       3       3       3       3       3       3       3       3       3
       3       3       3       3       3       3       3       3       3       3
       3       3       3       3       3       3       3       3       3       3
       3       3       3       3       3       3       3       3       3       3
       3       3       3       3       3       3       3       3       3       3
       3       3       3       3       3       3       3       3       3       3
       3       3       3       3       3       3       3       3       3       3
       3       3       3       3       3       3       3       3       3       3
       3       3       3       3       3       3       3       3       3       3
       3       3       3       3       3       3       3       3       3       3
       3       3       3       3       3       3       3       3       3       3
       3       3       3       3       3       3       3       3       3       3
       3       3       3       3       3       3       3       3       3       3
       3       3       3       3       3       3       3       3       3       3
       3       3       3       3       3       3       3       3       3       3
       3       3       3       3       3       3       3       3       3       3
       3       3       3       3       3       3       3       3       3       3
       3       3       3       3       3       3       3       3       3       3
       3       3       3       3       3       3       3       3       3       3
       3       3       3       3       3       3       3       3       3       3
       3       3       3       3       3       3       3       3       3       3
       3       3       3       3       3       3       3       3       3       3
       3       3       3       3       3       3       3       3       3       3
       3       3       3       3       3       3       3       3       3       3
       3       3       3       3       3       3       3       3       3       3
       3       3       3       3       3       3       3       3       3       3
       3       3       3       3       3       3       3       3       3       3
       3       3       3       3       3       3       3       3       3       3
       3       3       3       3       3       3       3       3       3       3
       3       3       3       3       3       3       3       3       3       3
       3       3       3       3       3       3       3       3       3       3
       3       3       3       3       3       3       3       3       3       3
       3       3       3       3       3       3       3       3       3       3
       3       3       3       3       3       3       3       3       3       3
       3       3       3       3       3       3       3       3       3       3
       3       3       3       3       3       3       3       3       3       3
       3       3       3       3       3       3       3       3       3       3
       3       3       3       3       3       3       3       3       3       3
       3       3       3       3       3       3       3       3       3       3
       3       3       3       3       3       3       3       3       3       3
       3       3       3       3       3       3       3       3       3       3
       3       3       3       3       3       3       3       3       3       3
       3       3       3       3       3       3       3       3       3       3
       3       3       3       3       3       3       3       3       3       3
       3       3       3       3       3       3       3       3       3       3
       3       3       3       3       3       3       3       3       3       3
       3       3       3       3       3       3       3       3       3       3
       3       3       3       3       3       3       3       3       3       3
       3       3       3       3       3       3       3       3       3       3
       3       3       3       3       3       3       3       3       3       3
       3       3       3       3       3       3       3       3       3       3
       3       3       3       3       3       3       3       3       3       3
       3       3       3       3       3       3       3       3       3       3
       3       3       3       3       3       3       3       3       3       3
       3       3       3       3       3       3       3       3       3       3
       3       3       3       3       3       3       3       3       3       3
       3       3       3       3       3       3       3       3       3       3
       3       3       3       3       3       3       3       3       3       3
       3       3       3       3       3       3       3       3       3       3
       3       3       3       3       3       3       3       3       3       3
       3       3       3       3       3       3       3       3       3       3
       3       3       3       3       3       3       3       3       3       3
       3       3       3       3       3       3       3       3       3       3
       3       3       3       3       3       3       3       3       3       3
       3       3       3       3       3       3       3       3       3       3
       3       3       3       3       3       3       3       3       3       3
       3       3       3       3       3       3       3       3       3       3
       3       3       3       3       3       3       3       3       3       3
       3       3       3       3       3       3       3       3       3       3
       3       3       3       3       3       3       3       3       3       3
       3       3       3       3       3       3       3       3       3       3
       3       3       3       3       3       3       3       3       3       3
       3       3       3       3       3       3       3       3       3       3
       3       3       3       3       3       3       3       3       3       3
       3       3       3       3       3       3       3       3       3       3
       3       3       3       3       3       3       3       3       3       3
       3       3       3       3       3       3       3       3       3       3
       3       3       3       3       3       3       3       3       3       3
       3       3       3       3       3       3       3       3       3       3
       3       3       3       3       3       3       3       3       3       3
       3       3       3       3       3       3       3       3       3       3
       3       3       3       3       3       3       3       3       3       3
       3       3       3       3       3       3       3       3       3       3
       3       3       3       3       3       3       3       3       3       3
       3       3       3       3       3       3       3       3       3       3
       3       3       3       3       3       3       3       3       3       3
       3       3       3       3       3       3       3       3       3       3
       3       3       3       3       3       3       3       3       3       3
       3       3       3       3       3       3       3       3       3       3
       3       3       3       3       3       3       3       3       3       3
       3       3       3       3       3       3       3       3       3       3
       3       3       3       3       3       3       3       3       3       3
       3       3       3       3       3       3       3       3       3       3
       3       3       3       3       3       3       3       3       3       3
       3       3       3       3       3       3       3       3       3       3
       3       3       3       3       3       3       3       3       3       3
       3       3       3       3       3       3       3       3       3       3
       3       3       3       3       3       3       3       3       3       3
       3       3       3       3       3       3       3       3       3       3
       3       3       3       3       3       3       3       3       3       3
       3       3       3       3       3       3       3       3       3       3
       3       3       3       3       3       3       3       3       3       3
       3       3       3       3       3       3       3       3       3       3
       3       3       3       3       3       3       3       3       3       3
       3       3       3       3       3       3       3       3       3       3
       3       3       3       3       3       3       3       3       3       3
       3       3       3       3       3       3       3       3       3       3
       3       3       3       3       3       3       3       3       3       3
       3       3       3       3       3       3       3       3       3       3
       3       3       3       3       3       3       3       3       3       3
       3       3       3       3       3       3       3       3       3       3
       3       3       3       3       3       3       3       3       3       3
       3       3       3       3       3       3       3       3       3       3
       3       3       3       3       3       3       3       3       3       3
       3       3       3       3       3       3       3       3       3       3
       3       3       3       3       3       3       3       3       3       3
       3       3       3       3       3       3       3       3       3       3
       3       3       3       3       3       3       3       3       3       3
       3       3       3       3       3       3       3       3       3       3
       3       3       3       3       3       3       3       3       3       3
       3       3       3       3       3       3       3       3       3       3
       3       3       3       3       3       3       3       3       3       3
       3       3       3       3       3       3       3       3       3       3
       3       3       3       3       3       3       3       3       3       3
       3       3       3       3       3       3       3       3       3       3
       3       3       3       3       3       3       3       3       3       3
       3       3       3       3       3       3       3       3       3       3
       3       3       3       3       3       3       3       3       3       3
       3       3       3       3       3       3       3       3       3       3
       3       3       3       3       3       3       3       3       3       3
       3       3       3       3       3       3       3       3       3       3
       3       3       3       3       3       3       3       3       3       3
       3       3       3       3       3       3       3       3       3       3
       3       3       3       3       3       3       3       3       3       3
       3       3       3       3       3       3       3       3       3       3
       3       3       3       3       3       3       3       3       3       3
       3       3       3       3       3       3       3       3       3       3
       3       3       3       3       3       3       3       3       3       3
       3       3       3       3       3       3       3       3       3       3
       3       3       3       3       3       3       3       3       3       3
       3       3       3       3       3       3       3       3       3       3
       3       3       3       3       3       3       3       3       3       3
       3       3       3       3       3       3       3       3       3       3
       3       3       3       3       3       3       3       3       3       3
       3       3       3       3       3       3       3       3       3       3
       3       3       3       3       3       3       3       3       3       3
       3       3       3       3       3       3       3       3       3       3
       3       3       3       3       3       3       3       3       3       3
       3       3       3       3       3       3       3       3       3       3
       3       3       3       3       3       3       3       3       3       3
       3       3       3       3       3       3       3       3       3       3
       3       3       3       3       3       3       3       3       3       3
       3       3       3       3       3       3       3       3       3       3
       3       3       3       3       3       3       3       3       3       3
       3       3       3       3       3       3       3       3       3       3
       3       3       3       3       3       3       3       3       3       3
       3       3       3       3       3       3       3       3       3       3
       3       3       3       3       3       3       3       3       3       3
       3       3       3       3       3       3       3       3       3       3
       3       3       3       3       3       3       3       3       3       3
       3       3       3       3       3       3       3       3       3       3
       3       3       3       3       3       3       3       3       3       3
       3       3       3       3       3       3       3       3       3       3
       3       3       3       3       3       3       3       3       3       3
       3       3       3       3       3       3       3       3       3       3
       3       3       3       3       3       3       3       3       3       3
       3       3       3       3       3       3       3       3       3       3
       3       3       3       3       3       3       3       3       3       3
       3       3       3       3       3       3       3       3       3       3
       3       3       3       3       3       3       3       3       3       3
       3       3       3       3       3       3       3       3       3       3
       3       3       3       3       3       3       3       3       3       3
       3       3       3       3       3       3       3       3       3       3
       3       3       3       3       3       3       3       3       3       3
       3       3       3       3       3       3       3       3       3       3
       3       3       3       3       3       3       3       3       3       3
       3       3       3       3       3       3       3       3       3       3
       3       3       3       3       3       3       3       3       3       3
       3       3       3       3       3       3       3       3       3       3
       3       3       3       3       3       3       3       3       3       3
       3       3       3       3       3       3       3       3       3       3
       3       3       3       3       3       3       3       3       3       3
       3       3       3       3       3       3       3       3       3       3
       3       3       3       3       3       3       3       3       3       3
       3       3       3       3       3       3       3       3       3       3
       3       3       3       3       3       3       3       3       3       3
       3       3       3       3       3       3       3       3       3       3
       3       3       3       3       3       3       3       3       3       3
       3       3       3       3       3       3       3       3       3       3
       3       3       3       3       3       3       3       3       3       3
       3       3       3       3       3       3       3       3       3       3
       3       3       3       3       3       3       3       3       3       3
       3       3       3       3       3       3       3       3       3       3
       3       3       3       3       3       3       3       3       3       3
       3       3       3       3       3       3       3       3       3       3
       3       3       3       3       3       3       3       3       3       3
       3       3       3       3       3       3       3       3       3       3
       3       3       3       3       3       3       3       3       3       3
       3       3       3       3       3       3       3       3       3       3
       3       3       3       3       3       3       3       3       3       3
       3       3       3       3       3       3       3       3       3       3
       3       3       3       3       3       3       3       3       3       3
       3       3       3       3       3       3       3       3       3       3
       3       3       3       3       3       3       3       3       3       3
       3       3       3       3       3       3       3       3       3       3
       3       3       3       3       3       3       3       3       3       3
       3       3       3       3       3       3       3       3       3       3
       3       3       3       3       3       3       3       3       3       3
       3       3       3       3       3       3       3       3       3       3
       3       3       3       3       3       3       3       3       3       3
       3       3       3       3       3       3       3       3       3       3
       3       3       3       3       3       3       3       3       3       3
       3       3       3       3       3       3       3       3       3       3
       3       3       3       3       3       3       3       3       3       3
       3       3       3       3       3       3       3       3       3       3
       3       3       3       3       3       3       3       3       3       3
       3       3       3       3       3       3       3       3       3       3
       3       3       3       3       3       3       3       3       3       3
       3       3       3       3       3       3       3       3       3       3
       3       3       3       3       3       3       3       3       3       3
       3       3       3       3       3       3       3       3       3       3
       3       3       3       3       3       3       3       3       3       3
       3       3       3       3       3       3       3       3       3       3
       3       3       3       3       3       3       3       3       3       3
       3       3       3       3       3       3       3       3       3       3
       3       3       3       3       3       3       3       3       3       3
       3       3       3       3       3       3       3       3       3       3
       3       3       3       3       3       3       3       3       3       3
       3       3       3       3       3       3       3       3       3       3
       3       3       3       3       3       3       3       3       3       3
       3       3       3       3       3       3       3       3       3       3
       3       3       3       3       3       3       3       3       3       3
       3       3       3       3       3       3       3       3       3       3
       3       3       3       3       3       3       3       3       3       3
       3       3       3       3       3       3       3       3       3       3
       3       3       3       3       3       3       3       3       3       3
       3       3       3       3       3       3       3       3       3       3
       3       3       3       3       3       3       3       3       3       3
       3       3       3       3       3       3       3       3       3       3
       3       3       3       3       3       3       3       3       3       3
       3       3       3       3       3       3       3       3       3       3
       3       3       3       3       3       3       3       3       3       3
       3       3       3       3       3       3       3       3       3       3
       3       3       3       3       3       3       3       3       3       3
       3       3       3       3       3       3       3       3       3       3
       3       3       3       3       3       3       3       3       3       3
       3       3       3       3       3       3       3       3       3       3
       3       3       3       3       3       3       3       3       3       3
       3       3       3       3       3       3       3       3       3       3
       3       3       3       3       3       3       3       3       3       3
       3       3       3       3       3       3       3       3       3       3
       3       3       3       3       3       3       3       3       3       3
       3       3       3       3       3       3       3       3       3       3
       3       3       3       3       3       3       3       3       3       3
       3       3       3       3       3       3       3       3       3       3
       3       3       3       3       3       3       3       3       3       3
       3       3       3       3       3       3       3       3       3       3
       3       3       3       3       3       3       3       3       3       3
       3       3       3       3       3       3       3       3       3       3
       3       3       3       3       3       3       3       3       3       3
       3       3       3       3       3       3       3       3       3       3
       3       3       3       3       3       3       3       3       3       3
       3       3       3       3       3       3       3       3       3       3
       3       3       3       3       3       3       3       3       3       3
       3       3       3       3       3       3       3       3       3       3
       3       3       3       3       3       3       3       3       3       3
       3       3       3       3       3       3       3       3       3       3
       3       3       3       3       3       3       3       3       3       3
       3       3       3       3       3       3       3       3       3       3
       3       3       3       3       3       3       3       3       3       3
       3       3       3       3       3       3       3       3       3       3
       3       3       3       3       3       3       3       3       3       3
       3       3       3       3       3       3       3       3       3       3
       3       3       3       3       3       3       3       3       3       3
       3       3       3       3       3       3       3       3       3       3
       3       3       3       3       3       3       3       3       3       3
       3       3       3       3       3       3       3       3       3       3
       3       3       3       3       3       3       3       3       3       3
       3       3       3       3       3       3       3       3       3       3
       3       3       3       3       3       3       3       3       3       3
       3       3       3       3       3       3       3       3       3       3
       3       3       3       3       3       3       3       3       3       3
       3       3       3       3       3       3       3       3       3       3
       3       3       3       3       3       3       3       3       3       3
       3       3       3       3       3       3       3       3       3       3
       3       3       3       3       3       3       3       3       3       3
       3       3       3       3       3       3       3       3       3       3
       3       3       3       3       3       3       3       3       3       3
       3       3       3       3       3       3       3       3       3       3
       3       3       3       3       3       3       3       3       3       3
       3       3       3       3       3       3       3       3       3       3
       3       3       3       3       3       3       3       3       3       3
       3       3       3       3       3       3       3       3       3       3
       3       3       3       3       3       3       3       3       3       3
       3       3       3       3       3       3       3       3       3       3
       3       3       3       3       3       3       3       3       3       3
       3       3       3       3       3       3       3       3       3       3
       3       3       3       3       3       3       3       3       3       3
       3       3       3       3       3       3       3       3       3       3
       3       3       3       3       3       3       3       3       3       3
       3       3       3       3       3       3       3       3       3       3
       3       3       3       3       3       3       3       3       3       3
       3       3       3       3       3       3       3       3       3       3
       3       3       3       3       3       3       3       3       3       3
       3       3       3       3       3       3       3       3       3       3
       3       3       3       3       3       3       3       3       3       3
       3       3       3       3       3       3       3       3       3       3
       3       3       3       3       3       3       3       3       3       3
       3       3       3       3       3       3       3       3       3       3
       3       3       3       3       3       3       3       3       3       3
       3       3       3       3       3       3       3       3       3       3
       3       3       3       3       3       3       3       3       3       3
       3       3       3       3       3       3       3       3       3       3
       3       3       3       3       3       3       3       3       3       3
       3       3       3       3       3       3       3       3       3       3
       3       3       3       3       3       3       3       3       3       3
       3       3       3       3       3       3       3       3       3       3
       3       3       3       3       3       3       3       3       3       3
       3       3       3       3       3       3       3       3       3       3
       3       3       3       3       3       3       3       3       3       3
       3       3       3       3       3       3       3       3       3       3
       3       3       3       3       3       3       3       3       3       3
       3       3       3       3       3       3       3       3       3       3
       3       3       3       3       3       3       3       3       3       3
       3       3       3       3       3       3       3       3       3       3
       3       3       3       3       3       3       3       3       3       3
       3       3       3       3       3       3       3       3       3       3
       3       3       3       3       3       3       3       3       3       3
       3       3       3       3       3       3       3       3       3       3
       3       3       3       3       3       3       3       3       3       3
       3       3       3       3       3       3       3       3       3       3
       3       3       3       3       3       3       3       3       3       3
       3       3       3       3       3       3       3       3       3       3
       3       3       3       3       3       3       3       3       3       3
       3       3       3       3       3       3       3       3       3       3
       3       3       3       3       3       3       3       3       3       3
       3       3       3       3       3       3       3       3       3       3
       3       3       3       3       3       3       3       3       3       3
       3       3       3       3       3       3       3       3       3       3
       3       3       3       3       3       3       3       3       3       3
       3       3       3       3       3       3       3       3       3       3
       3       3       3       3       3       3       3       3       3       3
       3       3       3       3       3       3       3       3       3       3
       3       3       3       3       3       3       3       3       3       3
       3       3       3       3       3       3       3       3       3       3
       3       3       3       3       3       3       3       3       3       3
       3       3       3       3       3       3       3       3       3       3
       3       3       3       3       3       3       3       3       3       3
       3       3       3       3       3       3       3       3       3       3
       3       3       3       3       3       3       3       3       3       3
       3       3       3       3       3       3       3       3       3       3
       3       3       3       3       3       3       3       3       3       3
       3       3       3       3       3       3       3       3       3       3
       3       3       3       3       3       3       3       3       3       3
       3       3       3       3       3       3       3       3       3       3
       3       3       3       3       3       3       3       3       3       3
       3       3       3       3       3       3       3       3       3       3
       3       3       3       3       3       3       3       3       3       3
       3       3       3       3       3       3       3       3       3       3
       3       3       3       3       3       3       3       3       3       3
       3       3       3       3       3       3       3       3       3       3
       3       3       3       3       3       3       3       3       3       3
       3       3       3       3       3       3       3       3       3       3
       3       3       3       3       3       3       3       3       3       3
       3       3       3       3       3       3       3       3       3       3
       3       3       3       3       3       3       3       3       3       3
       3       3       3       3       3       3       3       3       3       3
       3       3       3       3       3       3       3       3       3       3
       3       3       3       3       3       3       3       3       3       3
       3       3       3       3       3       3       3       3       3       3
       3       3       3       3       3       3       3       3       3       3
       3       3       3       3       3       3       3       3       3       3
       3       3       3       3       3       3       3       3       3       3
       3       3       3       3       3       3       3       3       3       3
       3       3       3       3       3       3       3       3       3       3
       3       3       3       3       3       3       3       3       3       3
       3       3       3       3       3       3       3       3       3       3
       3       3       3       3       3       3       3       3       3       3
       3       3       3       3       3       3       3       3       3       3
       3       3       3       3       3       3       3       3       3       3
       3       3       3       3       3       3       3       3       3       3
       3       3       3       3       3       3       3       3       3       3
       3       3       3       3       3       3       3       3       3       3
       3       3       3       3       3       3       3       3       3       3
       3       3       3       3       3       3       3       3       3       3
       3       3       3       3       3       3       3       3       3       3
       3       3       3       3       3       3       3       3       3       3
       3       3       3       3       3       3       3       3       3       3
       3       3       3       3       3       3       3       3       3       3
       3       3       3       3       3       3       3       3       3       3
       3       3       3       3       3       3       3       3       3       3
       3       3       3       3       3       3       3       3       3       3
       3       3       3       3       3       3       3       3       3       3
       3       3       3       3       3       3       3       3       3       3
       3       3       3       3       3       3       3       3       3       3
       3       3       3       3       3       3       3       3       3       3
       3       3       3       3       3       3       3       3       3       3
       3       3       3       3       3       3       3       3       3       3
       3       3       3       3       3       3       3       3       3       3
       3       3       3       3       3       3       3       3       3       3
       3       3       3       3       3       3       3       3       3       3
       3       3       3       3       3       3       3       3       3       3
       3       3       3       3       3       3       3       3       3       3
       3       3       3       3       3       3       3       3       3       3
       3       3       3       3       3       3       3       3       3       3
       3       3       3       3       3       3       3       3       3       3
       3       3       3       3       3       3       3       3       3       3
       3       3       3       3       3       3       3       3       3       3
       3       3       3       3       3       3       3       3       3       3
       3       3       3       3       3       3       3       3       3       3
       3       3       3       3       3       3       3       3       3       3
       3       3       3       3       3       3       3       3       3       3
       3       3       3       3       3       3       3       3       3       3
       3       3       3       3       3       3       3       3       3       3
       3       3       3       3       3       3       3       3       3       3
       3       3       3       3       3       3       3       3       3       3
       3       3       3       3       3       3       3       3       3       3
       3       3       3       3       3       3       3       3       3       3
       3       3       3       3       3       3       3       3       3       3
       3       3       3       3       3       3       3       3       3       3
       3       3       3       3       3       3       3       3       3       3
       3       3       3       3       3       3       3       3       3       3
       3       3       3       3       3       3       3       3       3       3
       3       3       3       3       3       3       3       3       3       3
       3       3       3       3       3       3       3       3       3       3
       3       3       3       3       3       3       3       3       3       3
       3       3       3       3       3       3       3       3       3       3
       3       3       3       3       3       3       3       3       3       3
       3       3       3       3       3       3       3       3       3       3
       3       3       3       3       3       3       3       3       3       3
       3       3       3       3       3       3       3       3       3       3
       3       3       3       3       3       3       3       3       3       3
       3       3       3       3       3       3       3       3       3       3
       3       3       3       3       3       3       3       3       3       3
       3       3       3       3       3       3       3       3       3       3
       3       3       3       3       3       3       3       3       3       3
       3       3       3       3       3       3       3       3       3       3
       3       3       3       3       3       3       3       3       3       3
       3       3       3       3       3       3       3       3       3       3
       3       3       3       3       3       3       3       3       3       3
       3       3       3       3       3       3       3       3       3       3
       3       3       3       3       3       3       3       3       3       3
       3       3       3       3       3       3       3       3       3       3
       3       3       3       3       3       3       3       3       3       3
       3       3       3       3       3       3       3       3       3       3
       3       3       3       3       3       3       3       3       3       3
       3       3       3       3       3       3       3       3       3       3
       3       3       3       3       3       3       3       3       3       3
       3       3       3       3       3       3       3       3       3       3
       3       3       3       3       3       3       3       3       3       3
       3       3       3       3       3       3       3       3       3       3
       3       3       3       3       3       3       3       3       3       3
       3       3       3       3       3       3       3       3       3       3
       3       3       3       3       3       3       3       3       3       3
       3       3       3       3       3       3       3       3       3       3
       3       3       3       3       3       3       3       3       3       3
       3       3       3       3       3       3       3       3       3       3
       3       3       3       3       3       3       3       3       3       3
       3       3       3       3       3       3       3       3       3       3
       3       3       3       3       3       3       3       3       3       3
       3       3       3       3       3       3       3       3       3       3
       3       3       3       3       3       3       3       3       3       3
       3       3       3       3       3       3       3       3       3       3
       3       3       3       3       3       3       3       3       3       3
       3       3       3       3       3       3       3       3       3       3
       3       3       3       3       3       3       3       3       3       3
       3       3       3       3       3       3       3       3       3       3
       3       3       3       3       3       3       3       3       3       3
       3       3       3       3       3       3       3       3       3       3
       3       3       3       3       3       3       3       3       3       3
       3       3       3       3       3       3       3       3       3       3
       3       3       3       3       3       3       3       3       3       3
       3       3       3       3       3       3       3       3       3       3
       3       3       3       3       3       3       3       3       3       3
       3       3       3       3       3       3       3       3       3       3
       3       3       3       3       3       3       3       3       3       3
       3       3       3       3       3       3       3       3       3       3
       3       3       3       3       3       3       3       3       3       3
       3       3       3       3       3       3       3       3       3       3
       3       3       3       3       3       3       3       3       3       3
       3       3       3       3       3       3       3       3       3       3
       3       3       3       3       3       3       3       3       3       3
       3       3       3       3       3       3       3       3       3       3
       3       3       3       3       3       3       3       3       3       3
       3       3       3       3       3       3       3       3       3       3
       3       3       3       3       3       3       3       3       3       3
       3       3       3       3       3       3       3       3       3       3
       3       3       3       3       3       3       3       3       3       3
       3       3       3       3       3       3       3       3       3       3
       3       3       3       3       3       3       3       3       3       3
       3       3       3       3       3       3       3       3       3       3
       3       3       3       3       3       3       3       3       3       3
       3       3       3       3       3       3       3       3       3       3
       3       3       3       3       3       3       3       3       3       3
       3       3       3       3       3       3       3       3       3       3
       3       3       3       3       3       3       3       3       3       3
       3       3       3       3       3       3       3       3       3       3
       3       3       3       3       3       3       3       3       3       3
       3       3       3       3       3       3       3       3       3       3
       3       3       3       3       3       3       3       3       3       3
       3       3       3       3       3       3       3       3       3       3
       3       3       3       3       3       3       3       3       3       3
       3       3       3       3       3       3       3       3       3       3
       3       3       3       3       3       3       3       3       3       3
       3       3       3       3       3       3       3       3       3       3
       3       3       3       3       3       3       3       3       3       3
       3       3       3       3       3       3       3       3       3       3
       3       3       3       3       3       3       3       3       3       3
       3       3       3       3       3       3       3       3       3       3
       3       3       3       3       3       3       3       3       3       3
       3       3       3       3       3       3       3       3       3       3
       3       3       3       3       3       3       3       3       3       3
       3       3       3       3       3       3       3       3       3       3
       3       3       3       3       3       3       3       3       3       3
       3       3       3       3       3       3       3       3       3       3
       3       3       3       3       3       3       3       3       3       3
       3       3       3       3       3       3       3       3       3       3
       3       3       3       3       3       3       3       3       3       3
       3       3       3       3       3       3       3       3       3       3
       3       3       3       3       3       3       3       3       3       3
       3       3       3       3       3       3       3       3       3       3
       3       3       3       3       3       3       3       3       3       3
       3       3       3       3       3       3       3       3       3       3
       3       3       3       3       3       3       3       3       3       3
       3       3       3       3       3       3       3       3       3       3
       3       3       3       3       3       3       3       3       3       3
       3       3       3       3       3       3       3       3       3       3
       3       3       3       3       3       3       3       3       3       3
       3       3       3       3       3       3       3       3       3       3
       3       3       3       3       3       3       3       3       3       3
       3       3       3       3       3       3       3       3       3       3
       3       3       3       3       3       3       3       3       3       3
       3       3       3       3       3       3       3       3       3       3
       3       3       3       3       3       3       3       3       3       3
       3       3       3       3       3       3       3       3       3       3
       3       3       3       3       3       3       3       3       3       3
       3       3       3       3       3       3       3       3       3       3
       3       3       3       3       3       3       3       3       3       3
       3       3       3       3       3       3       3       3       3       3
       3       3       3       3       3       3       3       3       3       3
       3       3       3       3       3       3       3       3       3       3
       3       3       3       3       3       3       3       3       3       3
       3       3       3       3       3       3       3       3       3       3
       3       3       3       3       3       3       3       3       3       3
       3       3       3       3       3       3       3       3       3       3
       3       3       3       3       3       3       3       3       3       3
       3       3       3       3       3       3       3       3       3       3
       3       3       3       3       3       3       3       3       3       3
       3       3       3       3       3       3       3       3       3       3
       3       3       3       3       3       3       3       3       3       3
       3       3       3       3       3       3       3       3       3       3
       3       3       3       3       3       3       3       3       3       3
       3       3       3       3       3       3       3       3       3       3
       3       3       3       3       3       3       3       3       3       3
       3       3       3       3       3       3       3       3       3       3
       3       3       3       3       3       3       3       3       3       3
       3       3       3       3       3       3       3       3       3       3
       3       3       3       3       3       3       3       3       3       3
       3       3       3       3       3       3       3       3       3       3
       3       3       3       3       3       3       3       3       3       3
       3       3       3       3       3       3       3       3       3       3
       3       3       3       3       3       3       3       3       3       3
       3       3       3       3       3       3       3       3       3       3
       3       3       3       3       3       3       3       3       3       3
       3       3       3       3       3       3       3       3       3       3
       3       3       3       3       3       3       3       3       3       3
       3       3       3       3       3       3       3       3       3       3
       3       3       3       3       3       3       3       3       3       3
       3       3       3       3       3       3       3       3       3       3
       3       3       3       3       3       3       3       3       3       3
       3       3       3       3       3       3       3       3       3       3
       3       3       3       3       3       3       3       3       3       3
       3       3       3       3       3       3       3       3       3       3
       3       3       3       3       3       3       3       3       3       3
       3       3       3       3       3       3       3       3       3       3
       3       3       3       3       3       3       3       3       3       3
       3       3       3       3       3       3       3       3       3       3
       3       3       3       3       3       3       3       3       3       3
       3       3       3       3       3       3       3       3       3       3
       3       3       3       3       3       3       3       3       3       3
       3       3       3       3       3       3       3       3       3       3
       3       3       3       3       3       3       3       3       3       3
       3       3       3       3       3       3       3       3       3       3
       3       3       3       3       3       3       3       3       3       3
       3       3       3       3       3       3       3       3       3       3
       3       3       3       3       3       3       3       3       3       3
       3       3       3       3       3       3       3       3       3       3
       3       3       3       3       3       3       3       3       3       3
       3       3       3       3       3       3       3       3       3       3
       3       3       3       3       3       3       3       3       3       3
       3       3       3       3       3       3       3       3       3       3
       3       3       3       3       3       3       3       3       3       3
       3       3       3       3       3       3       3       3       3       3
       3       3       3       3       3       3       3       3       3       3
       3       3       3       3       3       3       3       3       3       3
       3       3       3       3       3       3       3       3       3       3
       3       3       3       3       3       3       3       3       3       3
       3       3       3       3       3       3       3       3       3       3
       3       3       3       3       3       3       3       3       3       3
       3       3       3       3       3       3       3       3       3       3
       3       3       3       3       3       3       3       3       3       3
       3       3       3       3       3       3       3       3       3       3
       3       3       3       3       3       3       3       3       3       3
       3       3       3       3       3       3       3       3       3       3
       3       3       3       3       3       3       3       3       3       3
       3       3       3       3       3       3       3       3       3       3
       3       3       3       3       3       3       3       3       3       3
       3       3       3       3       3       3       3       3       3       3
       3       3       3       3       3       3       3       3       3       3
       3       3       3       3       3       3       3       3       3       3
       3       3       3       3       3       3       3       3       3       3
       3       3       3       3       3       3       3       3       3       3
       3       3       3       3       3       3       3       3       3       3
       3       3       3       3       3       3       3       3       3       3
       3       3       3       3       3       3       3       3       3       3
       3       3       3       3       3       3       3       3       3       3
       3       3       3       3       3       3       3       3       3       3
       3       3       3       3       3       3       3       3       3       3
       3       3       3       3       3       3       3       3       3       3
       3       3       3       3       3       3       3       3       3       3
       3       3       3       3       3       3       3       3       3       3
       3       3       3       3       3       3       3       3       3       3
       3       3       3       3       3       3       3       3       3       3
       3       3       3       3       3       3       3       3       3       3
       3       3       3       3       3       3       3       3       3       3
       3       3       3       3       3       3       3       3       3       3
       3       3       3       3       3       3       3       3       3       3
       3       3       3       3       3       3       3       3       3       3
       3       3       3       3       3       3       3       3       3       3
       3       3       3       3       3       3       3       3       3       3
       3       3       3       3       3       3       3       3       3       3
       3       3       3       3       3       3       3       3       3       3
       3       3       3       3       3       3       3       3       3       3
       3       3       3       3       3       3       3       3       3       3
       3       3       3       3       3       3       3       3       3       3
       3       3       3       3       3       3       3       3       3       3
       3       3       3       3       3       3       3       3       3       3
       3       3       3       3       3       3       3       3       3       3
       3       3       3       3       3       3       3       3       3       3
       3       3       3       3       3       3       3       3       3       3
       3       3       3       3       3       3       3       3       3       3
       3       3       3       3       3       3       3       3       3       3
       3       3       3       3       3       3       3       3       3       3
       3       3       3       3       3       3       3       3       3       3
       3       3       3       3       3       3       3       3       3       3
       3       3       3       3       3       3       3       3       3       3
       3       3       3       3       3       3       3       3       3       3
       3       3       3       3       3       3       3       3       3       3
       3       3       3       3       3       3       3       3       3       3
       3       3       3       3       3       3       3       3       3       3
       3       3       3       3       3       3       3       3       3       3
       3       3       3       3       3       3       3       3       3       3
       3       3       3       3       3       3       3       3       3       3
       3       3       3       3       3       3       3       3       3       3
       3       3       3       3       3       3       3       3       3       3
       3       3       3       3       3       3       3       3       3       3
       3       3       3       3       3       3       3       3       3       3
       3       3       3       3       3       3       3       3       3       3
       3       3       3       3       3       3       3       3       3       3
       3       3       3       3       3       3       3       3       3       3
       3       3       3       3       3       3       3       3       3       3
       3       3       3       3       3       3       3       3       3       3
       3       3       3       3       3       3       3       3       3       3
       3       3       3       3       3       3       3       3       3       3
       3       3       3       3       3       3       3       3       3       3
       3       3       3       3       3       3       3       3       3       3
       3       3       3       3       3       3       3       3       3       3
       3       3       3       3       3       3       3       3       3       3
       3       3       3       3       3       3       3       3       3       3
       3       3       3       3       3       3       3       3       3       3
       3       3       3       3       3       3       3       3       3       3
       3       3       3       3       3       3       3       3       3       3
       3       3       3       3       3       3       3       3       3       3
       3       3       3       3       3       3       3       3       3       3
       3       3       3       3       3       3       3       3       3       3
       3       3       3       3       3       3       3       3       3       3
       3       3       3       3       3       3       3       3       3       3
       3       3       3       3       3       3       3       3       3       3
       3       3       3       3       3       3       3       3       3       3
       3       3       3       3       3       3       3       3       3       3
       3       3       3       3       3       3       3       3       3       3
       3       3       3       3       3       3       3       3       3       3
       3       3       3       3       3       3       3       3       3       3
       3       3       3       3       3       3       3       3       3       3
       3       3       3       3       3       3       3       3       3       3
       3       3       3       3       3       3       3       3       3       3
       3       3       3       3       3       3       3       3       3       3
       3       3       3       3       3       3       3       3       3       3
       3       3       3       3       3       3       3       3       3       3
       3       3       3       3       3       3       3       3       3       3
       3       3       3       3       3       3       3       3       3       3
       3       3       3       3       3       3       3       3       3       3
       3       3       3       3       3       3       3       3       3       3
       3       3       3       3       3       3       3       3       3       3
       3       3       3       3       3       3       3       3       3       3
       3       3       3       3       3       3       3       3       3       3
       3       3       3       3       3       3       3       3       3       3
       3       3       3       3       3       3       3       3       3       3
       3       3       3       3       3       3       3       3       3       3
       3       3       3       3       3       3       3       3       3       3
       3       3       3       3       3       3       3       3       3       3
       3       3       3       3       3       3       3       3       3       3
       3       3       3       3       3       3       3       3       3       3
       3       3       3       3       3       3       3       3       3       3
       3       3       3       3       3       3       3       3       3       3
       3       3       3       3       3       3       3       3       3       3
       3       3       3       3       3       3       3       3       3       3
       3       3       3       3       3       3       3       3       3       3
       3       3       3       3       3       3       3       3       3       3
       3       3       3       3       3       3       3       3       3       3
       3       3       3       3       3       3       3       3       3       3
       3       3       3       3       3       3       3       3       3       3
       3       3       3       3       3       3       3       3       3       3
       3       3       3       3       3       3       3       3       3       3
       3       3       3       3       3       3       3       3       3       3
       3       3       3       3       3       3       3       3       3       3
       3       3       3       3       3       3       3       3       3       3
       3       3       3       3       3       3       3       3       3       3
       3       3       3       3       3       3       3       3       3       3
       3       3       3       3       3       3       3       3       3       3
       3       3       3       3       3       3       3       3       3       3
       3       3       3       3       3       3       3       3       3       3
       3       3       3       3       3       3       3       3       3       3
       3       3       3       3       3       3       3       3       3       3
       3       3       3       3       3       3       3       3       3       3
       3       3       3       3       3       3       3       3       3       3
       3       3       3       3       3       3       3       3       3       3
       3       3       3       3       3       3       3       3       3       3
       3       3       3       3       3       3       3       3       3       3
       3       3       3       3       3       3       3       3       3       3
       3       3       3       3       3       3       3       3       3       3
       3       3       3       3       3       3       3       3       3       3
       3       3       3       3       3       3       3       3       3       3
       3       3       3       3       3       3       3       3       3       3
       3       3       3       3       3       3       3       3       3       3
       3       3       3       3       3       3       3       3       3       3
       3       3       3       3       3       3       3       3       3       3
       3       3       3       3       3       3       3       3       3       3
       3       3       3       3       3       3       3       3       3       3
       3       3       3       3       3       3       3       3       3       3
       3       3       3       3       3       3       3       3       3       3
       3       3       3       3       3       3       3       3       3       3
       3       3       3       3       3       3       3       3       3       3
       3       3       3       3       3       3       3       3       3       3
       3       3       3       3       3       3       3       3       3       3
       3       3       3       3       3       3       3       3       3       3
       3       3       3       3       3       3       3       3       3       3
       3       3       3       3       3       3       3       3       3       3
       3       3       3       3       3       3       3       3       3       3
       3       3       3       3       3       3       3       3       3       3
       3       3       3       3       3       3       3       3       3       3
       3       3       3       3       3       3       3       3       3       3
       3       3       3       3       3       3       3       3       3       3
       3       3       3       3       3       3       3       3       3       3
       3       3       3       3       3       3       3       3       3       3
       3       3       3       3       3       3       3       3       3       3
       3       3       3       3       3       3       3       3       3       3
       3       3       3       3       3       3       3       3       3       3
       3       3       3       3       3       3       3       3       3       3
       3       3       3       3       3       3       3       3       3       3
       3       3       3       3       3       3       3       3       3       3
       3       3       3       3       3       3       3       3       3       3
       3       3       3       3       3       3       3       3       3       3
       3       3       3       3       3       3       3       3       3       3
       3       3       3       3       3       3       3       3       3       3
       3       3       3       3       3       3       3       3       3       3
       3       3       3       3       3       3       3       3       3       3
       3       3       3       3       3       3       3       3       3       3
       3       3       3       3       3       3       3       3       3       3
       3       3       3       3       3       3       3       3       3       3
       3       3       3       3       3       3       3       3       3       3
       3       3       3       3       3       3       3       3       3       3
       3       3       3       3       3       3       3       3       3       3
       3       3       3       3       3       3       3       3       3       3
       3       3       3       3       3       3       3       3       3       3
       3       3       3       3       3       3       3       3       3       3
       3       3       3       3       3       3       3       3       3       3
       3       3       3       3       3       3       3       3       3       3
       3       3       3       3       3       3       3       3       3       3
       3       3       3       3       3       3       3       3       3       3
       3       3       3       3       3       3       3       3       3       3
       3       3       3       3       3       3       3       3       3       3
       3       3       3       3       3       3       3       3       3       3
       3       3       3       3       3       3       3       3       3       3
       3       3       3       3       3       3       3       3       3       3
       3       3       3       3       3       3       3       3       3       3
       3       3       3       3       3       3       3       3       3       3
       3       3       3       3       3       3       3       3       3       3
       3       3       3       3       3       3       3       3       3       3
       3       3       3       3       3       3       3       3       3       3
       3       3       3       3       3       3       3       3       3       3
       3       3       3       3       3       3       3       3       3       3
       3       3       3       3       3       3       3       3       3       3
       3       3       3       3       3       3       3       3       3       3
       3       3       3       3       3       3       3       3       3       3
       3       3       3       3       3       3       3       3       3       3
       3       3       3       3       3       3       3       3       3       3
       3       3       3       3       3       3       3       3       3       3
       3       3       3       3       3       3       3       3       3       3
       3       3       3       3       3       3       3       3       3       3
       3       3       3       3       3       3       3       3       3       3
       3       3       3       3       3       3       3       3       3       3
       3       3       3       3       3       3       3       3       3       3
       3       3       3       3       3       3       3       3       3       3
       3       3       3       3       3       3       3       3       3       3
       3       3       3       3       3       3       3       3       3       3
       3       3       3       3       3       3       3       3       3       3
       3       3       3       3       3       3       3       3       3       3
       3       3       3       3       3       3       3       3       3       3
       3       3       3       3       3       3       3       3       3       3
       3       3       3       3       3       3       3       3       3       3
       3       3       3       3       3       3       3       3       3       3
       3       3       3       3       3       3       3       3       3       3
       3       3       3       3       3       3       3       3       3       3
       3       3       3       3       3       3       3       3       3       3
       3       3       3       3       3       3       3       3       3       3
       3       3       3       3       3       3       3       3       3       3
       3       3       3       3       3       3       3       3       3       3
       3       3       3       3       3       3       3       3       3       3
       3       3       3       3       3       3       3       3       3       3
       3       3       3       3       3       3       3       3       3       3
       3       3       3       3       3       3       3       3       3       3
       3       3       3       3       3       3       3       3       3       3
       3       3       3       3       3       3       3       3       3       3
       3       3       3       3       3       3       3       3       3       3
       3       3       3       3       3       3       3       3       3       3
       3       3       3       3       3       3       3       3       3       3
       3       3       3       3       3       3       3       3       3       3
       3
%FLAG BOX_DIMENSIONS
%FORMAT(5E16.8)
  9.00000000E+01  7.73548390E+01  6.93336180E+01  6.94037960E+01
%FLAG RADIUS_SET
%FORMAT(1a80)
H(N)-modified Bondi radii (mbondi2)                                             
%FLAG RADII
%FORMAT(5E16.8)
  1.55000000E+00  1.30000000E+00  1.30000000E+00  1.30000000E+00  1.70000000E+00
  1.20000000E+00  1.20000000E+00  1.70000000E+00  1.50000000E+00  1.55000000E+00
  1.30000000E+00  1.70000000E+00  1.20000000E+00  1.70000000E+00  1.20000000E+00
  1.70000000E+00  1.20000000E+00  1.20000000E+00  1.20000000E+00  1.70000000E+00
  1.20000000E+00  1.20000000E+00  1.70000000E+00  1.20000000E+00  1.20000000E+00
  1.20000000E+00  1.70000000E+00  1.50000000E+00  1.55000000E+00  1.30000000E+00
  1.70000000E+00  1.20000000E+00  1.70000000E+00  1.20000000E+00  1.70000000E+00
  1.20000000E+00  1.20000000E+00  1.20000000E+00  1.70000000E+00  1.20000000E+00
  1.20000000E+00  1.20000000E+00  1.70000000E+00  1.50000000E+00  1.55000000E+00
  1.30000000E+00  1.70000000E+00  1.20000000E+00  1.70000000E+00  1.20000000E+00
  1.20000000E+00  1.70000000E+00  1.20000000E+00  1.20000000E+00  1.70000000E+00
  1.30000000E+00  1.30000000E+00  1.20000000E+00  1.70000000E+00  1.50000000E+00
  1.20000000E+00  1.20000000E+00  1.20000000E+00  1.55000000E+00  1.30000000E+00
  1.70000000E+00  1.20000000E+00  1.70000000E+00  1.20000000E+00  1.20000000E+00
  1.70000000E+00  1.20000000E+00  1.20000000E+00  1.70000000E+00  1.50000000E+00
  1.55000000E+00  1.30000000E+00  1.30000000E+00  1.70000000E+00  1.50000000E+00
  1.55000000E+00  1.30000000E+00  1.70000000E+00  1.20000000E+00  1.70000000E+00
  1.20000000E+00  1.20000000E+00  1.80000000E+00  1.70000000E+00  1.50000000E+00
  1.55000000E+00  1.30000000E+00  1.70000000E+00  1.20000000E+00  1.70000000E+00
  1.20000000E+00  1.20000000E+00  1.80000000E+00  1.70000000E+00  1.50000000E+00
  1.55000000E+00  1.30000000E+00  1.70000000E+00  1.20000000E+00  1.70000000E+00
  1.20000000E+00  1.70000000E+00  1.20000000E+00  1.20000000E+00  1.20000000E+00
  1.50000000E+00  1.20000000E+00  1.70000000E+00  1.50000000E+00  1.55000000E+00
  1.30000000E+00  1.70000000E+00  1.20000000E+00  1.70000000E+00  1.20000000E+00
  1.20000000E+00  1.50000000E+00  1.20000000E+00  1.70000000E+00  1.50000000E+00
  1.55000000E+00  1.30000000E+00  1.70000000E+00  1.20000000E+00  1.70000000E+00
  1.20000000E+00  1.70000000E+00  1.20000000E+00  1.20000000E+00  1.20000000E+00
  1.70000000E+00  1.20000000E+00  1.20000000E+00  1.70000000E+00  1.20000000E+00
  1.20000000E+00  1.20000000E+00  1.70000000E+00  1.50000000E+00  1.55000000E+00
  1.30000000E+00  1.70000000E+00  1.20000000E+00  1.70000000E+00  1.20000000E+00
  1.20000000E+00  1.80000000E+00  1.70000000E+00  1.50000000E+00  1.55000000E+00
  1.30000000E+00  1.70000000E+00  1.20000000E+00  1.70000000E+00  1.20000000E+00
  1.20000000E+00  1.50000000E+00  1.20000000E+00  1.70000000E+00  1.50000000E+00
  1.55000000E+00  1.30000000E+00  1.70000000E+00  1.20000000E+00  1.70000000E+00
  1.20000000E+00  1.20000000E+00  1.70000000E+00  1.20000000E+00  1.70000000E+00
  1.20000000E+00  1.20000000E+00  1.20000000E+00  1.70000000E+00  1.20000000E+00
  1.20000000E+00  1.20000000E+00  1.70000000E+00  1.50000000E+00  1.55000000E+00
  1.30000000E+00  1.70000000E+00  1.20000000E+00  1.70000000E+00  1.20000000E+00
  1.20000000E+00  1.70000000E+00  1.70000000E+00  1.20000000E+00  1.70000000E+00
  1.20000000E+00  1.70000000E+00  1.50000000E+00  1.20000000E+00  1.70000000E+00
  1.20000000E+00  1.70000000E+00  1.20000000E+00  1.70000000E+00  1.50000000E+00
  1.55000000E+00  1.30000000E+00  1.70000000E+00  1.20000000E+00  1.70000000E+00
  1.20000000E+00  1.20000000E+00  1.70000000E+00  1.20000000E+00  1.20000000E+00
  1.70000000E+00  1.50000000E+00  1.55000000E+00  1.30000000E+00  1.30000000E+00
  1.70000000E+00  1.50000000E+00  1.55000000E+00  1.30000000E+00  1.70000000E+00
  1.20000000E+00  1.70000000E+00  1.20000000E+00  1.20000000E+00  1.70000000E+00
  1.20000000E+00  1.70000000E+00  1.20000000E+00  1.20000000E+00  1.20000000E+00
  1.70000000E+00  1.20000000E+00  1.20000000E+00  1.20000000E+00  1.70000000E+00
  1.50000000E+00  1.55000000E+00  1.30000000E+00  1.70000000E+00  1.20000000E+00
  1.70000000E+00  1.20000000E+00  1.20000000E+00  1.70000000E+00  1.20000000E+00
  1.20000000E+00  1.70000000E+00  1.30000000E+00  1.30000000E+00  1.20000000E+00
  1.70000000E+00  1.50000000E+00  1.20000000E+00  1.20000000E+00  1.20000000E+00
  1.55000000E+00  1.30000000E+00  1.70000000E+00  1.20000000E+00  1.70000000E+00
  1.20000000E+00  1.20000000E+00  1.70000000E+00  1.50000000E+00  1.55000000E+00
  1.30000000E+00  1.30000000E+00  1.70000000E+00  1.50000000E+00  1.55000000E+00
  1.30000000E+00  1.70000000E+00  1.20000000E+00  1.70000000E+00  1.20000000E+00
  1.20000000E+00  1.70000000E+00  1.70000000E+00  1.20000000E+00  1.70000000E+00
  1.20000000E+00  1.70000000E+00  1.50000000E+00  1.20000000E+00  1.70000000E+00
  1.20000000E+00  1.70000000E+00  1.20000000E+00  1.70000000E+00  1.50000000E+00
  1.55000000E+00  1.30000000E+00  1.70000000E+00  1.20000000E+00  1.70000000E+00
  1.20000000E+00  1.20000000E+00  1.80000000E+00  1.70000000E+00  1.50000000E+00
  1.55000000E+00  1.30000000E+00  1.70000000E+00  1.20000000E+00  1.70000000E+00
  1.20000000E+00  1.20000000E+00  1.70000000E+00  1.50000000E+00  1.55000000E+00
  1.30000000E+00  1.30000000E+00  1.70000000E+00  1.50000000E+00  1.50000000E+00
  1.55000000E+00  1.30000000E+00  1.30000000E+00  1.30000000E+00  1.70000000E+00
  1.20000000E+00  1.70000000E+00  1.20000000E+00  1.20000000E+00  1.70000000E+00
  1.70000000E+00  1.20000000E+00  1.70000000E+00  1.20000000E+00  1.70000000E+00
  1.20000000E+00  1.70000000E+00  1.20000000E+00  1.70000000E+00  1.20000000E+00
  1.70000000E+00  1.50000000E+00  1.55000000E+00  1.30000000E+00  1.70000000E+00
  1.20000000E+00  1.70000000E+00  1.20000000E+00  1.70000000E+00  1.20000000E+00
  1.20000000E+00  1.20000000E+00  1.70000000E+00  1.20000000E+00  1.20000000E+00
  1.20000000E+00  1.70000000E+00  1.50000000E+00  1.55000000E+00  1.30000000E+00
  1.70000000E+00  1.20000000E+00  1.70000000E+00  1.20000000E+00  1.20000000E+00
  1.70000000E+00  1.50000000E+00  1.55000000E+00  1.30000000E+00  1.30000000E+00
  1.70000000E+00  1.50000000E+00  1.55000000E+00  1.30000000E+00  1.70000000E+00
  1.20000000E+00  1.70000000E+00  1.20000000E+00  1.20000000E+00  1.70000000E+00
  1.20000000E+00  1.20000000E+00  1.70000000E+00  1.50000000E+00  1.55000000E+00
  1.30000000E+00  1.30000000E+00  1.70000000E+00  1.50000000E+00  1.55000000E+00
  1.30000000E+00  1.70000000E+00  1.20000000E+00  1.70000000E+00  1.20000000E+00
  1.20000000E+00  1.70000000E+00  1.55000000E+00  1.30000000E+00  1.70000000E+00
  1.20000000E+00  1.55000000E+00  1.30000000E+00  1.70000000E+00  1.20000000E+00
  1.70000000E+00  1.50000000E+00  1.55000000E+00  1.30000000E+00  1.70000000E+00
  1.20000000E+00  1.70000000E+00  1.20000000E+00  1.20000000E+00  1.70000000E+00
  1.20000000E+00  1.70000000E+00  1.20000000E+00  1.20000000E+00  1.20000000E+00
  1.70000000E+00  1.20000000E+00  1.20000000E+00  1.20000000E+00  1.70000000E+00
  1.50000000E+00  1.55000000E+00  1.30000000E+00  1.70000000E+00  1.20000000E+00
  1.70000000E+00  1.20000000E+00  1.20000000E+00  1.80000000E+00  1.70000000E+00
  1.50000000E+00  1.55000000E+00  1.30000000E+00  1.70000000E+00  1.20000000E+00
  1.20000000E+00  1.70000000E+00  1.50000000E+00  1.55000000E+00  1.30000000E+00
  1.70000000E+00  1.20000000E+00  1.70000000E+00  1.20000000E+00  1.20000000E+00
  1.50000000E+00  1.20000000E+00  1.70000000E+00  1.50000000E+00  1.55000000E+00
  1.30000000E+00  1.70000000E+00  1.20000000E+00  1.70000000E+00  1.20000000E+00
  1.20000000E+00  1.70000000E+00  1.55000000E+00  1.30000000E+00  1.70000000E+00
  1.20000000E+00  1.55000000E+00  1.30000000E+00  1.70000000E+00  1.20000000E+00
  1.70000000E+00  1.50000000E+00  1.55000000E+00  1.30000000E+00  1.70000000E+00
  1.20000000E+00  1.70000000E+00  1.20000000E+00  1.20000000E+00  1.70000000E+00
  1.20000000E+00  1.70000000E+00  1.20000000E+00  1.20000000E+00  1.20000000E+00
  1.70000000E+00  1.20000000E+00  1.20000000E+00  1.20000000E+00  1.70000000E+00
  1.50000000E+00  1.55000000E+00  1.30000000E+00  1.70000000E+00  1.20000000E+00
  1.70000000E+00  1.20000000E+00  1.70000000E+00  1.20000000E+00  1.20000000E+00
  1.20000000E+00  1.70000000E+00  1.20000000E+00  1.20000000E+00  1.20000000E+00
  1.70000000E+00  1.50000000E+00  1.55000000E+00  1.30000000E+00  1.70000000E+00
  1.20000000E+00  1.70000000E+00  1.20000000E+00  1.20000000E+00  1.70000000E+00
  1.20000000E+00  1.20000000E+00  1.70000000E+00  1.30000000E+00  1.30000000E+00
  1.20000000E+00  1.70000000E+00  1.50000000E+00  1.20000000E+00  1.20000000E+00
  1.20000000E+00  1.55000000E+00  1.30000000E+00  1.70000000E+00  1.20000000E+00
  1.70000000E+00  1.20000000E+00  1.20000000E+00  1.20000000E+00  1.70000000E+00
  1.50000000E+00  1.55000000E+00  1.30000000E+00  1.70000000E+00  1.20000000E+00
  1.70000000E+00  1.20000000E+00  1.20000000E+00  1.70000000E+00  1.20000000E+00
  1.70000000E+00  1.20000000E+00  1.20000000E+00  1.20000000E+00  1.70000000E+00
  1.20000000E+00  1.20000000E+00  1.20000000E+00  1.70000000E+00  1.50000000E+00
  1.55000000E+00  1.30000000E+00  1.70000000E+00  1.20000000E+00  1.70000000E+00
  1.20000000E+00  1.20000000E+00  1.70000000E+00  1.70000000E+00  1.20000000E+00
  1.70000000E+00  1.20000000E+00  1.70000000E+00  1.50000000E+00  1.20000000E+00
  1.70000000E+00  1.20000000E+00  1.70000000E+00  1.20000000E+00  1.70000000E+00
  1.50000000E+00  1.55000000E+00  1.30000000E+00  1.70000000E+00  1.20000000E+00
  1.70000000E+00  1.20000000E+00  1.20000000E+00  1.70000000E+00  1.20000000E+00
  1.70000000E+00  1.20000000E+00  1.20000000E+00  1.20000000E+00  1.70000000E+00
  1.20000000E+00  1.20000000E+00  1.20000000E+00  1.70000000E+00  1.50000000E+00
  1.55000000E+00  1.30000000E+00  1.70000000E+00  1.20000000E+00  1.70000000E+00
  1.20000000E+00  1.70000000E+00  1.20000000E+00  1.20000000E+00  1.20000000E+00
  1.70000000E+00  1.20000000E+00  1.20000000E+00  1.20000000E+00  1.70000000E+00
  1.50000000E+00  1.55000000E+00  1.30000000E+00  1.70000000E+00  1.20000000E+00
  1.70000000E+00  1.20000000E+00  1.20000000E+00  1.80000000E+00  1.70000000E+00
  1.50000000E+00  1.55000000E+00  1.30000000E+00  1.70000000E+00  1.20000000E+00
  1.20000000E+00  1.70000000E+00  1.50000000E+00  1.55000000E+00  1.30000000E+00
  1.70000000E+00  1.20000000E+00  1.70000000E+00  1.20000000E+00  1.20000000E+00
  1.70000000E+00  1.20000000E+00  1.20000000E+00  1.70000000E+00  1.30000000E+00
  1.30000000E+00  1.20000000E+00  1.70000000E+00  1.50000000E+00  1.20000000E+00
  1.20000000E+00  1.20000000E+00  1.55000000E+00  1.30000000E+00  1.70000000E+00
  1.20000000E+00  1.70000000E+00  1.20000000E+00  1.20000000E+00  1.70000000E+00
  1.20000000E+00  1.20000000E+00  1.70000000E+00  1.20000000E+00  1.20000000E+00
  1.55000000E+00  1.30000000E+00  1.70000000E+00  1.55000000E+00  1.30000000E+00
  1.30000000E+00  1.55000000E+00  1.30000000E+00  1.30000000E+00  1.70000000E+00
  1.50000000E+00  1.55000000E+00  1.30000000E+00  1.70000000E+00  1.20000000E+00
  1.20000000E+00  1.70000000E+00  1.50000000E+00  1.55000000E+00  1.30000000E+00
  1.70000000E+00  1.20000000E+00  1.70000000E+00  1.20000000E+00  1.20000000E+00
  1.70000000E+00  1.70000000E+00  1.20000000E+00  1.70000000E+00  1.20000000E+00
  1.70000000E+00  1.20000000E+00  1.70000000E+00  1.20000000E+00  1.70000000E+00
  1.20000000E+00  1.70000000E+00  1.50000000E+00  1.55000000E+00  1.30000000E+00
  1.70000000E+00  1.20000000E+00  1.70000000E+00  1.20000000E+00  1.20000000E+00
  1.70000000E+00  1.70000000E+00  1.20000000E+00  1.70000000E+00  1.20000000E+00
  1.70000000E+00  1.20000000E+00  1.70000000E+00  1.20000000E+00  1.70000000E+00
  1.20000000E+00  1.70000000E+00  1.50000000E+00  1.55000000E+00  1.30000000E+00
  1.70000000E+00  1.20000000E+00  1.70000000E+00  1.20000000E+00  1.20000000E+00
  1.70000000E+00  1.70000000E+00  1.20000000E+00  1.70000000E+00  1.20000000E+00
  1.70000000E+00  1.50000000E+00  1.20000000E+00  1.70000000E+00  1.20000000E+00
  1.70000000E+00  1.20000000E+00  1.70000000E+00  1.50000000E+00  1.55000000E+00
  1.30000000E+00  1.70000000E+00  1.20000000E+00  1.70000000E+00  1.20000000E+00
  1.70000000E+00  1.20000000E+00  1.20000000E+00  1.20000000E+00  1.50000000E+00
  1.20000000E+00  1.70000000E+00  1.50000000E+00  1.55000000E+00  1.70000000E+00
  1.20000000E+00  1.20000000E+00  1.70000000E+00  1.20000000E+00  1.20000000E+00
  1.70000000E+00  1.20000000E+00  1.20000000E+00  1.70000000E+00  1.20000000E+00
  1.70000000E+00  1.50000000E+00  1.55000000E+00  1.30000000E+00  1.70000000E+00
  1.20000000E+00  1.70000000E+00  1.20000000E+00  1.20000000E+00  1.70000000E+00
  1.20000000E+00  1.20000000E+00  1.70000000E+00  1.20000000E+00  1.20000000E+00
  1.70000000E+00  1.20000000E+00  1.20000000E+00  1.55000000E+00  1.30000000E+00
  1.30000000E+00  1.30000000E+00  1.70000000E+00  1.50000000E+00  1.55000000E+00
  1.30000000E+00  1.70000000E+00  1.20000000E+00  1.70000000E+00  1.20000000E+00
  1.20000000E+00  1.20000000E+00  1.70000000E+00  1.50000000E+00  1.50000000E+00
  1.50000000E+00  1.20000000E+00  1.20000000E+00  1.50000000E+00  1.20000000E+00
  1.20000000E+00  1.50000000E+00  1.20000000E+00  1.20000000E+00  1.50000000E+00
  1.20000000E+00  1.20000000E+00  1.50000000E+00  1.20000000E+00  1.20000000E+00
  1.50000000E+00  1.20000000E+00  1.20000000E+00  1.50000000E+00  1.20000000E+00
  1.20000000E+00  1.50000000E+00  1.20000000E+00  1.20000000E+00  1.50000000E+00
  1.20000000E+00  1.20000000E+00  1.50000000E+00  1.20000000E+00  1.20000000E+00
  1.50000000E+00  1.20000000E+00  1.20000000E+00  1.50000000E+00  1.20000000E+00
  1.20000000E+00  1.50000000E+00  1.20000000E+00  1.20000000E+00  1.50000000E+00
  1.20000000E+00  1.20000000E+00  1.50000000E+00  1.20000000E+00  1.20000000E+00
  1.50000000E+00  1.20000000E+00  1.20000000E+00  1.50000000E+00  1.20000000E+00
  1.20000000E+00  1.50000000E+00  1.20000000E+00  1.20000000E+00  1.50000000E+00
  1.20000000E+00  1.20000000E+00  1.50000000E+00  1.20000000E+00  1.20000000E+00
  1.50000000E+00  1.20000000E+00  1.20000000E+00  1.50000000E+00  1.20000000E+00
  1.20000000E+00  1.50000000E+00  1.20000000E+00  1.20000000E+00  1.50000000E+00
  1.20000000E+00  1.20000000E+00  1.50000000E+00  1.20000000E+00  1.20000000E+00
  1.50000000E+00  1.20000000E+00  1.20000000E+00  1.50000000E+00  1.20000000E+00
  1.20000000E+00  1.50000000E+00  1.20000000E+00  1.20000000E+00  1.50000000E+00
  1.20000000E+00  1.20000000E+00  1.50000000E+00  1.20000000E+00  1.20000000E+00
  1.50000000E+00  1.20000000E+00  1.20000000E+00  1.50000000E+00  1.20000000E+00
  1.20000000E+00  1.50000000E+00  1.20000000E+00  1.20000000E+00  1.50000000E+00
  1.20000000E+00  1.20000000E+00  1.50000000E+00  1.20000000E+00  1.20000000E+00
  1.50000000E+00  1.20000000E+00  1.20000000E+00  1.50000000E+00  1.20000000E+00
  1.20000000E+00  1.50000000E+00  1.20000000E+00  1.20000000E+00  1.50000000E+00
  1.20000000E+00  1.20000000E+00  1.50000000E+00  1.20000000E+00  1.20000000E+00
  1.50000000E+00  1.20000000E+00  1.20000000E+00  1.50000000E+00  1.20000000E+00
  1.20000000E+00  1.50000000E+00  1.20000000E+00  1.20000000E+00  1.50000000E+00
  1.20000000E+00  1.20000000E+00  1.50000000E+00  1.20000000E+00  1.20000000E+00
  1.50000000E+00  1.20000000E+00  1.20000000E+00  1.50000000E+00  1.20000000E+00
  1.20000000E+00  1.50000000E+00  1.20000000E+00  1.20000000E+00  1.50000000E+00
  1.20000000E+00  1.20000000E+00  1.50000000E+00  1.20000000E+00  1.20000000E+00
  1.50000000E+00  1.20000000E+00  1.20000000E+00  1.50000000E+00  1.20000000E+00
  1.20000000E+00  1.50000000E+00  1.20000000E+00  1.20000000E+00  1.50000000E+00
  1.20000000E+00  1.20000000E+00  1.50000000E+00  1.20000000E+00  1.20000000E+00
  1.50000000E+00  1.20000000E+00  1.20000000E+00  1.50000000E+00  1.20000000E+00
  1.20000000E+00  1.50000000E+00  1.20000000E+00  1.20000000E+00  1.50000000E+00
  1.20000000E+00  1.20000000E+00  1.50000000E+00  1.20000000E+00  1.20000000E+00
  1.50000000E+00  1.20000000E+00  1.20000000E+00  1.50000000E+00  1.20000000E+00
  1.20000000E+00  1.50000000E+00  1.20000000E+00  1.20000000E+00  1.50000000E+00
  1.20000000E+00  1.20000000E+00  1.50000000E+00  1.20000000E+00  1.20000000E+00
  1.50000000E+00  1.20000000E+00  1.20000000E+00  1.50000000E+00  1.20000000E+00
  1.20000000E+00  1.50000000E+00  1.20000000E+00  1.20000000E+00  1.50000000E+00
  1.20000000E+00  1.20000000E+00  1.50000000E+00  1.20000000E+00  1.20000000E+00
  1.50000000E+00  1.20000000E+00  1.20000000E+00  1.50000000E+00  1.20000000E+00
  1.20000000E+00  1.50000000E+00  1.20000000E+00  1.20000000E+00  1.50000000E+00
  1.20000000E+00  1.20000000E+00  1.50000000E+00  1.20000000E+00  1.20000000E+00
  1.50000000E+00  1.20000000E+00  1.20000000E+00  1.50000000E+00  1.20000000E+00
  1.20000000E+00  1.50000000E+00  1.20000000E+00  1.20000000E+00  1.50000000E+00
  1.20000000E+00  1.20000000E+00  1.50000000E+00  1.20000000E+00  1.20000000E+00
  1.50000000E+00  1.20000000E+00  1.20000000E+00  1.50000000E+00  1.20000000E+00
  1.20000000E+00  1.50000000E+00  1.20000000E+00  1.20000000E+00  1.50000000E+00
  1.20000000E+00  1.20000000E+00  1.50000000E+00  1.20000000E+00  1.20000000E+00
  1.50000000E+00  1.20000000E+00  1.20000000E+00  1.50000000E+00  1.20000000E+00
  1.20000000E+00  1.50000000E+00  1.20000000E+00  1.20000000E+00  1.50000000E+00
  1.20000000E+00  1.20000000E+00  1.50000000E+00  1.20000000E+00  1.20000000E+00
  1.50000000E+00  1.20000000E+00  1.20000000E+00  1.50000000E+00  1.20000000E+00
  1.20000000E+00  1.50000000E+00  1.20000000E+00  1.20000000E+00  1.50000000E+00
  1.20000000E+00  1.20000000E+00  1.50000000E+00  1.20000000E+00  1.20000000E+00
  1.50000000E+00  1.20000000E+00  1.20000000E+00  1.50000000E+00  1.20000000E+00
  1.20000000E+00  1.50000000E+00  1.20000000E+00  1.20000000E+00  1.50000000E+00
  1.20000000E+00  1.20000000E+00  1.50000000E+00  1.20000000E+00  1.20000000E+00
  1.50000000E+00  1.20000000E+00  1.20000000E+00  1.50000000E+00  1.20000000E+00
  1.20000000E+00  1.50000000E+00  1.20000000E+00  1.20000000E+00  1.50000000E+00
  1.20000000E+00  1.20000000E+00  1.50000000E+00  1.20000000E+00  1.20000000E+00
  1.50000000E+00  1.20000000E+00  1.20000000E+00  1.50000000E+00  1.20000000E+00
  1.20000000E+00  1.50000000E+00  1.20000000E+00  1.20000000E+00  1.50000000E+00
  1.20000000E+00  1.20000000E+00  1.50000000E+00  1.20000000E+00  1.20000000E+00
  1.50000000E+00  1.20000000E+00  1.20000000E+00  1.50000000E+00  1.20000000E+00
  1.20000000E+00  1.50000000E+00  1.20000000E+00  1.20000000E+00  1.50000000E+00
  1.20000000E+00  1.20000000E+00  1.50000000E+00  1.20000000E+00  1.20000000E+00
  1.50000000E+00  1.20000000E+00  1.20000000E+00  1.50000000E+00  1.20000000E+00
  1.20000000E+00  1.50000000E+00  1.20000000E+00  1.20000000E+00  1.50000000E+00
  1.20000000E+00  1.20000000E+00  1.50000000E+00  1.20000000E+00  1.20000000E+00
  1.50000000E+00  1.20000000E+00  1.20000000E+00  1.50000000E+00  1.20000000E+00
  1.20000000E+00  1.50000000E+00  1.20000000E+00  1.20000000E+00  1.50000000E+00
  1.20000000E+00  1.20000000E+00  1.50000000E+00  1.20000000E+00  1.20000000E+00
  1.50000000E+00  1.20000000E+00  1.20000000E+00  1.50000000E+00  1.20000000E+00
  1.20000000E+00  1.50000000E+00  1.20000000E+00  1.20000000E+00  1.50000000E+00
  1.20000000E+00  1.20000000E+00  1.50000000E+00  1.20000000E+00  1.20000000E+00
  1.50000000E+00  1.20000000E+00  1.20000000E+00  1.50000000E+00  1.20000000E+00
  1.20000000E+00  1.50000000E+00  1.20000000E+00  1.20000000E+00  1.50000000E+00
  1.20000000E+00  1.20000000E+00  1.50000000E+00  1.20000000E+00  1.20000000E+00
  1.50000000E+00  1.20000000E+00  1.20000000E+00  1.50000000E+00  1.20000000E+00
  1.20000000E+00  1.50000000E+00  1.20000000E+00  1.20000000E+00  1.50000000E+00
  1.20000000E+00  1.20000000E+00  1.50000000E+00  1.20000000E+00  1.20000000E+00
  1.50000000E+00  1.20000000E+00  1.20000000E+00  1.50000000E+00  1.20000000E+00
  1.20000000E+00  1.50000000E+00  1.20000000E+00  1.20000000E+00  1.50000000E+00
  1.20000000E+00  1.20000000E+00  1.50000000E+00  1.20000000E+00  1.20000000E+00
  1.50000000E+00  1.20000000E+00  1.20000000E+00  1.50000000E+00  1.20000000E+00
  1.20000000E+00  1.50000000E+00  1.20000000E+00  1.20000000E+00  1.50000000E+00
  1.20000000E+00  1.20000000E+00  1.50000000E+00  1.20000000E+00  1.20000000E+00
  1.50000000E+00  1.20000000E+00  1.20000000E+00  1.50000000E+00  1.20000000E+00
  1.20000000E+00  1.50000000E+00  1.20000000E+00  1.20000000E+00  1.50000000E+00
  1.20000000E+00  1.20000000E+00  1.50000000E+00  1.20000000E+00  1.20000000E+00
  1.50000000E+00  1.20000000E+00  1.20000000E+00  1.50000000E+00  1.20000000E+00
  1.20000000E+00  1.50000000E+00  1.20000000E+00  1.20000000E+00  1.50000000E+00
  1.20000000E+00  1.20000000E+00  1.50000000E+00  1.20000000E+00  1.20000000E+00
  1.50000000E+00  1.20000000E+00  1.20000000E+00  1.50000000E+00  1.20000000E+00
  1.20000000E+00  1.50000000E+00  1.20000000E+00  1.20000000E+00  1.50000000E+00
  1.20000000E+00  1.20000000E+00  1.50000000E+00  1.20000000E+00  1.20000000E+00
  1.50000000E+00  1.20000000E+00  1.20000000E+00  1.50000000E+00  1.20000000E+00
  1.20000000E+00  1.50000000E+00  1.20000000E+00  1.20000000E+00  1.50000000E+00
  1.20000000E+00  1.20000000E+00  1.50000000E+00  1.20000000E+00  1.20000000E+00
  1.50000000E+00  1.20000000E+00  1.20000000E+00  1.50000000E+00  1.20000000E+00
  1.20000000E+00  1.50000000E+00  1.20000000E+00  1.20000000E+00  1.50000000E+00
  1.20000000E+00  1.20000000E+00  1.50000000E+00  1.20000000E+00  1.20000000E+00
  1.50000000E+00  1.20000000E+00  1.20000000E+00  1.50000000E+00  1.20000000E+00
  1.20000000E+00  1.50000000E+00  1.20000000E+00  1.20000000E+00  1.50000000E+00
  1.20000000E+00  1.20000000E+00  1.50000000E+00  1.20000000E+00  1.20000000E+00
  1.50000000E+00  1.20000000E+00  1.20000000E+00  1.50000000E+00  1.20000000E+00
  1.20000000E+00  1.50000000E+00  1.20000000E+00  1.20000000E+00  1.50000000E+00
  1.20000000E+00  1.20000000E+00  1.50000000E+00  1.20000000E+00  1.20000000E+00
  1.50000000E+00  1.20000000E+00  1.20000000E+00  1.50000000E+00  1.20000000E+00
  1.20000000E+00  1.50000000E+00  1.20000000E+00  1.20000000E+00  1.50000000E+00
  1.20000000E+00  1.20000000E+00  1.50000000E+00  1.20000000E+00  1.20000000E+00
  1.50000000E+00  1.20000000E+00  1.20000000E+00  1.50000000E+00  1.20000000E+00
  1.20000000E+00  1.50000000E+00  1.20000000E+00  1.20000000E+00  1.50000000E+00
  1.20000000E+00  1.20000000E+00  1.50000000E+00  1.20000000E+00  1.20000000E+00
  1.50000000E+00  1.20000000E+00  1.20000000E+00  1.50000000E+00  1.20000000E+00
  1.20000000E+00  1.50000000E+00  1.20000000E+00  1.20000000E+00  1.50000000E+00
  1.20000000E+00  1.20000000E+00  1.50000000E+00  1.20000000E+00  1.20000000E+00
  1.50000000E+00  1.20000000E+00  1.20000000E+00  1.50000000E+00  1.20000000E+00
  1.20000000E+00  1.50000000E+00  1.20000000E+00  1.20000000E+00  1.50000000E+00
  1.20000000E+00  1.20000000E+00  1.50000000E+00  1.20000000E+00  1.20000000E+00
  1.50000000E+00  1.20000000E+00  1.20000000E+00  1.50000000E+00  1.20000000E+00
  1.20000000E+00  1.50000000E+00  1.20000000E+00  1.20000000E+00  1.50000000E+00
  1.20000000E+00  1.20000000E+00  1.50000000E+00  1.20000000E+00  1.20000000E+00
  1.50000000E+00  1.20000000E+00  1.20000000E+00  1.50000000E+00  1.20000000E+00
  1.20000000E+00  1.50000000E+00  1.20000000E+00  1.20000000E+00  1.50000000E+00
  1.20000000E+00  1.20000000E+00  1.50000000E+00  1.20000000E+00  1.20000000E+00
  1.50000000E+00  1.20000000E+00  1.20000000E+00  1.50000000E+00  1.20000000E+00
  1.20000000E+00  1.50000000E+00  1.20000000E+00  1.20000000E+00  1.50000000E+00
  1.20000000E+00  1.20000000E+00  1.50000000E+00  1.20000000E+00  1.20000000E+00
  1.50000000E+00  1.20000000E+00  1.20000000E+00  1.50000000E+00  1.20000000E+00
  1.20000000E+00  1.50000000E+00  1.20000000E+00  1.20000000E+00  1.50000000E+00
  1.20000000E+00  1.20000000E+00  1.50000000E+00  1.20000000E+00  1.20000000E+00
  1.50000000E+00  1.20000000E+00  1.20000000E+00  1.50000000E+00  1.20000000E+00
  1.20000000E+00  1.50000000E+00  1.20000000E+00  1.20000000E+00  1.50000000E+00
  1.20000000E+00  1.20000000E+00  1.50000000E+00  1.20000000E+00  1.20000000E+00
  1.50000000E+00  1.20000000E+00  1.20000000E+00  1.50000000E+00  1.20000000E+00
  1.20000000E+00  1.50000000E+00  1.20000000E+00  1.20000000E+00  1.50000000E+00
  1.20000000E+00  1.20000000E+00  1.50000000E+00  1.20000000E+00  1.20000000E+00
  1.50000000E+00  1.20000000E+00  1.20000000E+00  1.50000000E+00  1.20000000E+00
  1.20000000E+00  1.50000000E+00  1.20000000E+00  1.20000000E+00  1.50000000E+00
  1.20000000E+00  1.20000000E+00  1.50000000E+00  1.20000000E+00  1.20000000E+00
  1.50000000E+00  1.20000000E+00  1.20000000E+00  1.50000000E+00  1.20000000E+00
  1.20000000E+00  1.50000000E+00  1.20000000E+00  1.20000000E+00  1.50000000E+00
  1.20000000E+00  1.20000000E+00  1.50000000E+00  1.20000000E+00  1.20000000E+00
  1.50000000E+00  1.20000000E+00  1.20000000E+00  1.50000000E+00  1.20000000E+00
  1.20000000E+00  1.50000000E+00  1.20000000E+00  1.20000000E+00  1.50000000E+00
  1.20000000E+00  1.20000000E+00  1.50000000E+00  1.20000000E+00  1.20000000E+00
  1.50000000E+00  1.20000000E+00  1.20000000E+00  1.50000000E+00  1.20000000E+00
  1.20000000E+00  1.50000000E+00  1.20000000E+00  1.20000000E+00  1.50000000E+00
  1.20000000E+00  1.20000000E+00  1.50000000E+00  1.20000000E+00  1.20000000E+00
  1.50000000E+00  1.20000000E+00  1.20000000E+00  1.50000000E+00  1.20000000E+00
  1.20000000E+00  1.50000000E+00  1.20000000E+00  1.20000000E+00  1.50000000E+00
  1.20000000E+00  1.20000000E+00  1.50000000E+00  1.20000000E+00  1.20000000E+00
  1.50000000E+00  1.20000000E+00  1.20000000E+00  1.50000000E+00  1.20000000E+00
  1.20000000E+00  1.50000000E+00  1.20000000E+00  1.20000000E+00  1.50000000E+00
  1.20000000E+00  1.20000000E+00  1.50000000E+00  1.20000000E+00  1.20000000E+00
  1.50000000E+00  1.20000000E+00  1.20000000E+00  1.50000000E+00  1.20000000E+00
  1.20000000E+00  1.50000000E+00  1.20000000E+00  1.20000000E+00  1.50000000E+00
  1.20000000E+00  1.20000000E+00  1.50000000E+00  1.20000000E+00  1.20000000E+00
  1.50000000E+00  1.20000000E+00  1.20000000E+00  1.50000000E+00  1.20000000E+00
  1.20000000E+00  1.50000000E+00  1.20000000E+00  1.20000000E+00  1.50000000E+00
  1.20000000E+00  1.20000000E+00  1.50000000E+00  1.20000000E+00  1.20000000E+00
  1.50000000E+00  1.20000000E+00  1.20000000E+00  1.50000000E+00  1.20000000E+00
  1.20000000E+00  1.50000000E+00  1.20000000E+00  1.20000000E+00  1.50000000E+00
  1.20000000E+00  1.20000000E+00  1.50000000E+00  1.20000000E+00  1.20000000E+00
  1.50000000E+00  1.20000000E+00  1.20000000E+00  1.50000000E+00  1.20000000E+00
  1.20000000E+00  1.50000000E+00  1.20000000E+00  1.20000000E+00  1.50000000E+00
  1.20000000E+00  1.20000000E+00  1.50000000E+00  1.20000000E+00  1.20000000E+00
  1.50000000E+00  1.20000000E+00  1.20000000E+00  1.50000000E+00  1.20000000E+00
  1.20000000E+00  1.50000000E+00  1.20000000E+00  1.20000000E+00  1.50000000E+00
  1.20000000E+00  1.20000000E+00  1.50000000E+00  1.20000000E+00  1.20000000E+00
  1.50000000E+00  1.20000000E+00  1.20000000E+00  1.50000000E+00  1.20000000E+00
  1.20000000E+00  1.50000000E+00  1.20000000E+00  1.20000000E+00  1.50000000E+00
  1.20000000E+00  1.20000000E+00  1.50000000E+00  1.20000000E+00  1.20000000E+00
  1.50000000E+00  1.20000000E+00  1.20000000E+00  1.50000000E+00  1.20000000E+00
  1.20000000E+00  1.50000000E+00  1.20000000E+00  1.20000000E+00  1.50000000E+00
  1.20000000E+00  1.20000000E+00  1.50000000E+00  1.20000000E+00  1.20000000E+00
  1.50000000E+00  1.20000000E+00  1.20000000E+00  1.50000000E+00  1.20000000E+00
  1.20000000E+00  1.50000000E+00  1.20000000E+00  1.20000000E+00  1.50000000E+00
  1.20000000E+00  1.20000000E+00  1.50000000E+00  1.20000000E+00  1.20000000E+00
  1.50000000E+00  1.20000000E+00  1.20000000E+00  1.50000000E+00  1.20000000E+00
  1.20000000E+00  1.50000000E+00  1.20000000E+00  1.20000000E+00  1.50000000E+00
  1.20000000E+00  1.20000000E+00  1.50000000E+00  1.20000000E+00  1.20000000E+00
  1.50000000E+00  1.20000000E+00  1.20000000E+00  1.50000000E+00  1.20000000E+00
  1.20000000E+00  1.50000000E+00  1.20000000E+00  1.20000000E+00  1.50000000E+00
  1.20000000E+00  1.20000000E+00  1.50000000E+00  1.20000000E+00  1.20000000E+00
  1.50000000E+00  1.20000000E+00  1.20000000E+00  1.50000000E+00  1.20000000E+00
  1.20000000E+00  1.50000000E+00  1.20000000E+00  1.20000000E+00  1.50000000E+00
  1.20000000E+00  1.20000000E+00  1.50000000E+00  1.20000000E+00  1.20000000E+00
  1.50000000E+00  1.20000000E+00  1.20000000E+00  1.50000000E+00  1.20000000E+00
  1.20000000E+00  1.50000000E+00  1.20000000E+00  1.20000000E+00  1.50000000E+00
  1.20000000E+00  1.20000000E+00  1.50000000E+00  1.20000000E+00  1.20000000E+00
  1.50000000E+00  1.20000000E+00  1.20000000E+00  1.50000000E+00  1.20000000E+00
  1.20000000E+00  1.50000000E+00  1.20000000E+00  1.20000000E+00  1.50000000E+00
  1.20000000E+00  1.20000000E+00  1.50000000E+00  1.20000000E+00  1.20000000E+00
  1.50000000E+00  1.20000000E+00  1.20000000E+00  1.50000000E+00  1.20000000E+00
  1.20000000E+00  1.50000000E+00  1.20000000E+00  1.20000000E+00  1.50000000E+00
  1.20000000E+00  1.20000000E+00  1.50000000E+00  1.20000000E+00  1.20000000E+00
  1.50000000E+00  1.20000000E+00  1.20000000E+00  1.50000000E+00  1.20000000E+00
  1.20000000E+00  1.50000000E+00  1.20000000E+00  1.20000000E+00  1.50000000E+00
  1.20000000E+00  1.20000000E+00  1.50000000E+00  1.20000000E+00  1.20000000E+00
  1.50000000E+00  1.20000000E+00  1.20000000E+00  1.50000000E+00  1.20000000E+00
  1.20000000E+00  1.50000000E+00  1.20000000E+00  1.20000000E+00  1.50000000E+00
  1.20000000E+00  1.20000000E+00  1.50000000E+00  1.20000000E+00  1.20000000E+00
  1.50000000E+00  1.20000000E+00  1.20000000E+00  1.50000000E+00  1.20000000E+00
  1.20000000E+00  1.50000000E+00  1.20000000E+00  1.20000000E+00  1.50000000E+00
  1.20000000E+00  1.20000000E+00  1.50000000E+00  1.20000000E+00  1.20000000E+00
  1.50000000E+00  1.20000000E+00  1.20000000E+00  1.50000000E+00  1.20000000E+00
  1.20000000E+00  1.50000000E+00  1.20000000E+00  1.20000000E+00  1.50000000E+00
  1.20000000E+00  1.20000000E+00  1.50000000E+00  1.20000000E+00  1.20000000E+00
  1.50000000E+00  1.20000000E+00  1.20000000E+00  1.50000000E+00  1.20000000E+00
  1.20000000E+00  1.50000000E+00  1.20000000E+00  1.20000000E+00  1.50000000E+00
  1.20000000E+00  1.20000000E+00  1.50000000E+00  1.20000000E+00  1.20000000E+00
  1.50000000E+00  1.20000000E+00  1.20000000E+00  1.50000000E+00  1.20000000E+00
  1.20000000E+00  1.50000000E+00  1.20000000E+00  1.20000000E+00  1.50000000E+00
  1.20000000E+00  1.20000000E+00  1.50000000E+00  1.20000000E+00  1.20000000E+00
  1.50000000E+00  1.20000000E+00  1.20000000E+00  1.50000000E+00  1.20000000E+00
  1.20000000E+00  1.50000000E+00  1.20000000E+00  1.20000000E+00  1.50000000E+00
  1.20000000E+00  1.20000000E+00  1.50000000E+00  1.20000000E+00  1.20000000E+00
  1.50000000E+00  1.20000000E+00  1.20000000E+00  1.50000000E+00  1.20000000E+00
  1.20000000E+00  1.50000000E+00  1.20000000E+00  1.20000000E+00  1.50000000E+00
  1.20000000E+00  1.20000000E+00  1.50000000E+00  1.20000000E+00  1.20000000E+00
  1.50000000E+00  1.20000000E+00  1.20000000E+00  1.50000000E+00  1.20000000E+00
  1.20000000E+00  1.50000000E+00  1.20000000E+00  1.20000000E+00  1.50000000E+00
  1.20000000E+00  1.20000000E+00  1.50000000E+00  1.20000000E+00  1.20000000E+00
  1.50000000E+00  1.20000000E+00  1.20000000E+00  1.50000000E+00  1.20000000E+00
  1.20000000E+00  1.50000000E+00  1.20000000E+00  1.20000000E+00  1.50000000E+00
  1.20000000E+00  1.20000000E+00  1.50000000E+00  1.20000000E+00  1.20000000E+00
  1.50000000E+00  1.20000000E+00  1.20000000E+00  1.50000000E+00  1.20000000E+00
  1.20000000E+00  1.50000000E+00  1.20000000E+00  1.20000000E+00  1.50000000E+00
  1.20000000E+00  1.20000000E+00  1.50000000E+00  1.20000000E+00  1.20000000E+00
  1.50000000E+00  1.20000000E+00  1.20000000E+00  1.50000000E+00  1.20000000E+00
  1.20000000E+00  1.50000000E+00  1.20000000E+00  1.20000000E+00  1.50000000E+00
  1.20000000E+00  1.20000000E+00  1.50000000E+00  1.20000000E+00  1.20000000E+00
  1.50000000E+00  1.20000000E+00  1.20000000E+00  1.50000000E+00  1.20000000E+00
  1.20000000E+00  1.50000000E+00  1.20000000E+00  1.20000000E+00  1.50000000E+00
  1.20000000E+00  1.20000000E+00  1.50000000E+00  1.20000000E+00  1.20000000E+00
  1.50000000E+00  1.20000000E+00  1.20000000E+00  1.50000000E+00  1.20000000E+00
  1.20000000E+00  1.50000000E+00  1.20000000E+00  1.20000000E+00  1.50000000E+00
  1.20000000E+00  1.20000000E+00  1.50000000E+00  1.20000000E+00  1.20000000E+00
  1.50000000E+00  1.20000000E+00  1.20000000E+00  1.50000000E+00  1.20000000E+00
  1.20000000E+00  1.50000000E+00  1.20000000E+00  1.20000000E+00  1.50000000E+00
  1.20000000E+00  1.20000000E+00  1.50000000E+00  1.20000000E+00  1.20000000E+00
  1.50000000E+00  1.20000000E+00  1.20000000E+00  1.50000000E+00  1.20000000E+00
  1.20000000E+00  1.50000000E+00  1.20000000E+00  1.20000000E+00  1.50000000E+00
  1.20000000E+00  1.20000000E+00  1.50000000E+00  1.20000000E+00  1.20000000E+00
  1.50000000E+00  1.20000000E+00  1.20000000E+00  1.50000000E+00  1.20000000E+00
  1.20000000E+00  1.50000000E+00  1.20000000E+00  1.20000000E+00  1.50000000E+00
  1.20000000E+00  1.20000000E+00  1.50000000E+00  1.20000000E+00  1.20000000E+00
  1.50000000E+00  1.20000000E+00  1.20000000E+00  1.50000000E+00  1.20000000E+00
  1.20000000E+00  1.50000000E+00  1.20000000E+00  1.20000000E+00  1.50000000E+00
  1.20000000E+00  1.20000000E+00  1.50000000E+00  1.20000000E+00  1.20000000E+00
  1.50000000E+00  1.20000000E+00  1.20000000E+00  1.50000000E+00  1.20000000E+00
  1.20000000E+00  1.50000000E+00  1.20000000E+00  1.20000000E+00  1.50000000E+00
  1.20000000E+00  1.20000000E+00  1.50000000E+00  1.20000000E+00  1.20000000E+00
  1.50000000E+00  1.20000000E+00  1.20000000E+00  1.50000000E+00  1.20000000E+00
  1.20000000E+00  1.50000000E+00  1.20000000E+00  1.20000000E+00  1.50000000E+00
  1.20000000E+00  1.20000000E+00  1.50000000E+00  1.20000000E+00  1.20000000E+00
  1.50000000E+00  1.20000000E+00  1.20000000E+00  1.50000000E+00  1.20000000E+00
  1.20000000E+00  1.50000000E+00  1.20000000E+00  1.20000000E+00  1.50000000E+00
  1.20000000E+00  1.20000000E+00  1.50000000E+00  1.20000000E+00  1.20000000E+00
  1.50000000E+00  1.20000000E+00  1.20000000E+00  1.50000000E+00  1.20000000E+00
  1.20000000E+00  1.50000000E+00  1.20000000E+00  1.20000000E+00  1.50000000E+00
  1.20000000E+00  1.20000000E+00  1.50000000E+00  1.20000000E+00  1.20000000E+00
  1.50000000E+00  1.20000000E+00  1.20000000E+00  1.50000000E+00  1.20000000E+00
  1.20000000E+00  1.50000000E+00  1.20000000E+00  1.20000000E+00  1.50000000E+00
  1.20000000E+00  1.20000000E+00  1.50000000E+00  1.20000000E+00  1.20000000E+00
  1.50000000E+00  1.20000000E+00  1.20000000E+00  1.50000000E+00  1.20000000E+00
  1.20000000E+00  1.50000000E+00  1.20000000E+00  1.20000000E+00  1.50000000E+00
  1.20000000E+00  1.20000000E+00  1.50000000E+00  1.20000000E+00  1.20000000E+00
  1.50000000E+00  1.20000000E+00  1.20000000E+00  1.50000000E+00  1.20000000E+00
  1.20000000E+00  1.50000000E+00  1.20000000E+00  1.20000000E+00  1.50000000E+00
  1.20000000E+00  1.20000000E+00  1.50000000E+00  1.20000000E+00  1.20000000E+00
  1.50000000E+00  1.20000000E+00  1.20000000E+00  1.50000000E+00  1.20000000E+00
  1.20000000E+00  1.50000000E+00  1.20000000E+00  1.20000000E+00  1.50000000E+00
  1.20000000E+00  1.20000000E+00  1.50000000E+00  1.20000000E+00  1.20000000E+00
  1.50000000E+00  1.20000000E+00  1.20000000E+00  1.50000000E+00  1.20000000E+00
  1.20000000E+00  1.50000000E+00  1.20000000E+00  1.20000000E+00  1.50000000E+00
  1.20000000E+00  1.20000000E+00  1.50000000E+00  1.20000000E+00  1.20000000E+00
  1.50000000E+00  1.20000000E+00  1.20000000E+00  1.50000000E+00  1.20000000E+00
  1.20000000E+00  1.50000000E+00  1.20000000E+00  1.20000000E+00  1.50000000E+00
  1.20000000E+00  1.20000000E+00  1.50000000E+00  1.20000000E+00  1.20000000E+00
  1.50000000E+00  1.20000000E+00  1.20000000E+00  1.50000000E+00  1.20000000E+00
  1.20000000E+00  1.50000000E+00  1.20000000E+00  1.20000000E+00  1.50000000E+00
  1.20000000E+00  1.20000000E+00  1.50000000E+00  1.20000000E+00  1.20000000E+00
  1.50000000E+00  1.20000000E+00  1.20000000E+00  1.50000000E+00  1.20000000E+00
  1.20000000E+00  1.50000000E+00  1.20000000E+00  1.20000000E+00  1.50000000E+00
  1.20000000E+00  1.20000000E+00  1.50000000E+00  1.20000000E+00  1.20000000E+00
  1.50000000E+00  1.20000000E+00  1.20000000E+00  1.50000000E+00  1.20000000E+00
  1.20000000E+00  1.50000000E+00  1.20000000E+00  1.20000000E+00  1.50000000E+00
  1.20000000E+00  1.20000000E+00  1.50000000E+00  1.20000000E+00  1.20000000E+00
  1.50000000E+00  1.20000000E+00  1.20000000E+00  1.50000000E+00  1.20000000E+00
  1.20000000E+00  1.50000000E+00  1.20000000E+00  1.20000000E+00  1.50000000E+00
  1.20000000E+00  1.20000000E+00  1.50000000E+00  1.20000000E+00  1.20000000E+00
  1.50000000E+00  1.20000000E+00  1.20000000E+00  1.50000000E+00  1.20000000E+00
  1.20000000E+00  1.50000000E+00  1.20000000E+00  1.20000000E+00  1.50000000E+00
  1.20000000E+00  1.20000000E+00  1.50000000E+00  1.20000000E+00  1.20000000E+00
  1.50000000E+00  1.20000000E+00  1.20000000E+00  1.50000000E+00  1.20000000E+00
  1.20000000E+00  1.50000000E+00  1.20000000E+00  1.20000000E+00  1.50000000E+00
  1.20000000E+00  1.20000000E+00  1.50000000E+00  1.20000000E+00  1.20000000E+00
  1.50000000E+00  1.20000000E+00  1.20000000E+00  1.50000000E+00  1.20000000E+00
  1.20000000E+00  1.50000000E+00  1.20000000E+00  1.20000000E+00  1.50000000E+00
  1.20000000E+00  1.20000000E+00  1.50000000E+00  1.20000000E+00  1.20000000E+00
  1.50000000E+00  1.20000000E+00  1.20000000E+00  1.50000000E+00  1.20000000E+00
  1.20000000E+00  1.50000000E+00  1.20000000E+00  1.20000000E+00  1.50000000E+00
  1.20000000E+00  1.20000000E+00  1.50000000E+00  1.20000000E+00  1.20000000E+00
  1.50000000E+00  1.20000000E+00  1.20000000E+00  1.50000000E+00  1.20000000E+00
  1.20000000E+00  1.50000000E+00  1.20000000E+00  1.20000000E+00  1.50000000E+00
  1.20000000E+00  1.20000000E+00  1.50000000E+00  1.20000000E+00  1.20000000E+00
  1.50000000E+00  1.20000000E+00  1.20000000E+00  1.50000000E+00  1.20000000E+00
  1.20000000E+00  1.50000000E+00  1.20000000E+00  1.20000000E+00  1.50000000E+00
  1.20000000E+00  1.20000000E+00  1.50000000E+00  1.20000000E+00  1.20000000E+00
  1.50000000E+00  1.20000000E+00  1.20000000E+00  1.50000000E+00  1.20000000E+00
  1.20000000E+00  1.50000000E+00  1.20000000E+00  1.20000000E+00  1.50000000E+00
  1.20000000E+00  1.20000000E+00  1.50000000E+00  1.20000000E+00  1.20000000E+00
  1.50000000E+00  1.20000000E+00  1.20000000E+00  1.50000000E+00  1.20000000E+00
  1.20000000E+00  1.50000000E+00  1.20000000E+00  1.20000000E+00  1.50000000E+00
  1.20000000E+00  1.20000000E+00  1.50000000E+00  1.20000000E+00  1.20000000E+00
  1.50000000E+00  1.20000000E+00  1.20000000E+00  1.50000000E+00  1.20000000E+00
  1.20000000E+00  1.50000000E+00  1.20000000E+00  1.20000000E+00  1.50000000E+00
  1.20000000E+00  1.20000000E+00  1.50000000E+00  1.20000000E+00  1.20000000E+00
  1.50000000E+00  1.20000000E+00  1.20000000E+00  1.50000000E+00  1.20000000E+00
  1.20000000E+00  1.50000000E+00  1.20000000E+00  1.20000000E+00  1.50000000E+00
  1.20000000E+00  1.20000000E+00  1.50000000E+00  1.20000000E+00  1.20000000E+00
  1.50000000E+00  1.20000000E+00  1.20000000E+00  1.50000000E+00  1.20000000E+00
  1.20000000E+00  1.50000000E+00  1.20000000E+00  1.20000000E+00  1.50000000E+00
  1.20000000E+00  1.20000000E+00  1.50000000E+00  1.20000000E+00  1.20000000E+00
  1.50000000E+00  1.20000000E+00  1.20000000E+00  1.50000000E+00  1.20000000E+00
  1.20000000E+00  1.50000000E+00  1.20000000E+00  1.20000000E+00  1.50000000E+00
  1.20000000E+00  1.20000000E+00  1.50000000E+00  1.20000000E+00  1.20000000E+00
  1.50000000E+00  1.20000000E+00  1.20000000E+00  1.50000000E+00  1.20000000E+00
  1.20000000E+00  1.50000000E+00  1.20000000E+00  1.20000000E+00  1.50000000E+00
  1.20000000E+00  1.20000000E+00  1.50000000E+00  1.20000000E+00  1.20000000E+00
  1.50000000E+00  1.20000000E+00  1.20000000E+00  1.50000000E+00  1.20000000E+00
  1.20000000E+00  1.50000000E+00  1.20000000E+00  1.20000000E+00  1.50000000E+00
  1.20000000E+00  1.20000000E+00  1.50000000E+00  1.20000000E+00  1.20000000E+00
  1.50000000E+00  1.20000000E+00  1.20000000E+00  1.50000000E+00  1.20000000E+00
  1.20000000E+00  1.50000000E+00  1.20000000E+00  1.20000000E+00  1.50000000E+00
  1.20000000E+00  1.20000000E+00  1.50000000E+00  1.20000000E+00  1.20000000E+00
  1.50000000E+00  1.20000000E+00  1.20000000E+00  1.50000000E+00  1.20000000E+00
  1.20000000E+00  1.50000000E+00  1.20000000E+00  1.20000000E+00  1.50000000E+00
  1.20000000E+00  1.20000000E+00  1.50000000E+00  1.20000000E+00  1.20000000E+00
  1.50000000E+00  1.20000000E+00  1.20000000E+00  1.50000000E+00  1.20000000E+00
  1.20000000E+00  1.50000000E+00  1.20000000E+00  1.20000000E+00  1.50000000E+00
  1.20000000E+00  1.20000000E+00  1.50000000E+00  1.20000000E+00  1.20000000E+00
  1.50000000E+00  1.20000000E+00  1.20000000E+00  1.50000000E+00  1.20000000E+00
  1.20000000E+00  1.50000000E+00  1.20000000E+00  1.20000000E+00  1.50000000E+00
  1.20000000E+00  1.20000000E+00  1.50000000E+00  1.20000000E+00  1.20000000E+00
  1.50000000E+00  1.20000000E+00  1.20000000E+00  1.50000000E+00  1.20000000E+00
  1.20000000E+00  1.50000000E+00  1.20000000E+00  1.20000000E+00  1.50000000E+00
  1.20000000E+00  1.20000000E+00  1.50000000E+00  1.20000000E+00  1.20000000E+00
  1.50000000E+00  1.20000000E+00  1.20000000E+00  1.50000000E+00  1.20000000E+00
  1.20000000E+00  1.50000000E+00  1.20000000E+00  1.20000000E+00  1.50000000E+00
  1.20000000E+00  1.20000000E+00  1.50000000E+00  1.20000000E+00  1.20000000E+00
  1.50000000E+00  1.20000000E+00  1.20000000E+00  1.50000000E+00  1.20000000E+00
  1.20000000E+00  1.50000000E+00  1.20000000E+00  1.20000000E+00  1.50000000E+00
  1.20000000E+00  1.20000000E+00  1.50000000E+00  1.20000000E+00  1.20000000E+00
  1.50000000E+00  1.20000000E+00  1.20000000E+00  1.50000000E+00  1.20000000E+00
  1.20000000E+00  1.50000000E+00  1.20000000E+00  1.20000000E+00  1.50000000E+00
  1.20000000E+00  1.20000000E+00  1.50000000E+00  1.20000000E+00  1.20000000E+00
  1.50000000E+00  1.20000000E+00  1.20000000E+00  1.50000000E+00  1.20000000E+00
  1.20000000E+00  1.50000000E+00  1.20000000E+00  1.20000000E+00  1.50000000E+00
  1.20000000E+00  1.20000000E+00  1.50000000E+00  1.20000000E+00  1.20000000E+00
  1.50000000E+00  1.20000000E+00  1.20000000E+00  1.50000000E+00  1.20000000E+00
  1.20000000E+00  1.50000000E+00  1.20000000E+00  1.20000000E+00  1.50000000E+00
  1.20000000E+00  1.20000000E+00  1.50000000E+00  1.20000000E+00  1.20000000E+00
  1.50000000E+00  1.20000000E+00  1.20000000E+00  1.50000000E+00  1.20000000E+00
  1.20000000E+00  1.50000000E+00  1.20000000E+00  1.20000000E+00  1.50000000E+00
  1.20000000E+00  1.20000000E+00  1.50000000E+00  1.20000000E+00  1.20000000E+00
  1.50000000E+00  1.20000000E+00  1.20000000E+00  1.50000000E+00  1.20000000E+00
  1.20000000E+00  1.50000000E+00  1.20000000E+00  1.20000000E+00  1.50000000E+00
  1.20000000E+00  1.20000000E+00  1.50000000E+00  1.20000000E+00  1.20000000E+00
  1.50000000E+00  1.20000000E+00  1.20000000E+00  1.50000000E+00  1.20000000E+00
  1.20000000E+00  1.50000000E+00  1.20000000E+00  1.20000000E+00  1.50000000E+00
  1.20000000E+00  1.20000000E+00  1.50000000E+00  1.20000000E+00  1.20000000E+00
  1.50000000E+00  1.20000000E+00  1.20000000E+00  1.50000000E+00  1.20000000E+00
  1.20000000E+00  1.50000000E+00  1.20000000E+00  1.20000000E+00  1.50000000E+00
  1.20000000E+00  1.20000000E+00  1.50000000E+00  1.20000000E+00  1.20000000E+00
  1.50000000E+00  1.20000000E+00  1.20000000E+00  1.50000000E+00  1.20000000E+00
  1.20000000E+00  1.50000000E+00  1.20000000E+00  1.20000000E+00  1.50000000E+00
  1.20000000E+00  1.20000000E+00  1.50000000E+00  1.20000000E+00  1.20000000E+00
  1.50000000E+00  1.20000000E+00  1.20000000E+00  1.50000000E+00  1.20000000E+00
  1.20000000E+00  1.50000000E+00  1.20000000E+00  1.20000000E+00  1.50000000E+00
  1.20000000E+00  1.20000000E+00  1.50000000E+00  1.20000000E+00  1.20000000E+00
  1.50000000E+00  1.20000000E+00  1.20000000E+00  1.50000000E+00  1.20000000E+00
  1.20000000E+00  1.50000000E+00  1.20000000E+00  1.20000000E+00  1.50000000E+00
  1.20000000E+00  1.20000000E+00  1.50000000E+00  1.20000000E+00  1.20000000E+00
  1.50000000E+00  1.20000000E+00  1.20000000E+00  1.50000000E+00  1.20000000E+00
  1.20000000E+00  1.50000000E+00  1.20000000E+00  1.20000000E+00  1.50000000E+00
  1.20000000E+00  1.20000000E+00  1.50000000E+00  1.20000000E+00  1.20000000E+00
  1.50000000E+00  1.20000000E+00  1.20000000E+00  1.50000000E+00  1.20000000E+00
  1.20000000E+00  1.50000000E+00  1.20000000E+00  1.20000000E+00  1.50000000E+00
  1.20000000E+00  1.20000000E+00  1.50000000E+00  1.20000000E+00  1.20000000E+00
  1.50000000E+00  1.20000000E+00  1.20000000E+00  1.50000000E+00  1.20000000E+00
  1.20000000E+00  1.50000000E+00  1.20000000E+00  1.20000000E+00  1.50000000E+00
  1.20000000E+00  1.20000000E+00  1.50000000E+00  1.20000000E+00  1.20000000E+00
  1.50000000E+00  1.20000000E+00  1.20000000E+00  1.50000000E+00  1.20000000E+00
  1.20000000E+00  1.50000000E+00  1.20000000E+00  1.20000000E+00  1.50000000E+00
  1.20000000E+00  1.20000000E+00  1.50000000E+00  1.20000000E+00  1.20000000E+00
  1.50000000E+00  1.20000000E+00  1.20000000E+00  1.50000000E+00  1.20000000E+00
  1.20000000E+00  1.50000000E+00  1.20000000E+00  1.20000000E+00  1.50000000E+00
  1.20000000E+00  1.20000000E+00  1.50000000E+00  1.20000000E+00  1.20000000E+00
  1.50000000E+00  1.20000000E+00  1.20000000E+00  1.50000000E+00  1.20000000E+00
  1.20000000E+00  1.50000000E+00  1.20000000E+00  1.20000000E+00  1.50000000E+00
  1.20000000E+00  1.20000000E+00  1.50000000E+00  1.20000000E+00  1.20000000E+00
  1.50000000E+00  1.20000000E+00  1.20000000E+00  1.50000000E+00  1.20000000E+00
  1.20000000E+00  1.50000000E+00  1.20000000E+00  1.20000000E+00  1.50000000E+00
  1.20000000E+00  1.20000000E+00  1.50000000E+00  1.20000000E+00  1.20000000E+00
  1.50000000E+00  1.20000000E+00  1.20000000E+00  1.50000000E+00  1.20000000E+00
  1.20000000E+00  1.50000000E+00  1.20000000E+00  1.20000000E+00  1.50000000E+00
  1.20000000E+00  1.20000000E+00  1.50000000E+00  1.20000000E+00  1.20000000E+00
  1.50000000E+00  1.20000000E+00  1.20000000E+00  1.50000000E+00  1.20000000E+00
  1.20000000E+00  1.50000000E+00  1.20000000E+00  1.20000000E+00  1.50000000E+00
  1.20000000E+00  1.20000000E+00  1.50000000E+00  1.20000000E+00  1.20000000E+00
  1.50000000E+00  1.20000000E+00  1.20000000E+00  1.50000000E+00  1.20000000E+00
  1.20000000E+00  1.50000000E+00  1.20000000E+00  1.20000000E+00  1.50000000E+00
  1.20000000E+00  1.20000000E+00  1.50000000E+00  1.20000000E+00  1.20000000E+00
  1.50000000E+00  1.20000000E+00  1.20000000E+00  1.50000000E+00  1.20000000E+00
  1.20000000E+00  1.50000000E+00  1.20000000E+00  1.20000000E+00  1.50000000E+00
  1.20000000E+00  1.20000000E+00  1.50000000E+00  1.20000000E+00  1.20000000E+00
  1.50000000E+00  1.20000000E+00  1.20000000E+00  1.50000000E+00  1.20000000E+00
  1.20000000E+00  1.50000000E+00  1.20000000E+00  1.20000000E+00  1.50000000E+00
  1.20000000E+00  1.20000000E+00  1.50000000E+00  1.20000000E+00  1.20000000E+00
  1.50000000E+00  1.20000000E+00  1.20000000E+00  1.50000000E+00  1.20000000E+00
  1.20000000E+00  1.50000000E+00  1.20000000E+00  1.20000000E+00  1.50000000E+00
  1.20000000E+00  1.20000000E+00  1.50000000E+00  1.20000000E+00  1.20000000E+00
  1.50000000E+00  1.20000000E+00  1.20000000E+00  1.50000000E+00  1.20000000E+00
  1.20000000E+00  1.50000000E+00  1.20000000E+00  1.20000000E+00  1.50000000E+00
  1.20000000E+00  1.20000000E+00  1.50000000E+00  1.20000000E+00  1.20000000E+00
  1.50000000E+00  1.20000000E+00  1.20000000E+00  1.50000000E+00  1.20000000E+00
  1.20000000E+00  1.50000000E+00  1.20000000E+00  1.20000000E+00  1.50000000E+00
  1.20000000E+00  1.20000000E+00  1.50000000E+00  1.20000000E+00  1.20000000E+00
  1.50000000E+00  1.20000000E+00  1.20000000E+00  1.50000000E+00  1.20000000E+00
  1.20000000E+00  1.50000000E+00  1.20000000E+00  1.20000000E+00  1.50000000E+00
  1.20000000E+00  1.20000000E+00  1.50000000E+00  1.20000000E+00  1.20000000E+00
  1.50000000E+00  1.20000000E+00  1.20000000E+00  1.50000000E+00  1.20000000E+00
  1.20000000E+00  1.50000000E+00  1.20000000E+00  1.20000000E+00  1.50000000E+00
  1.20000000E+00  1.20000000E+00  1.50000000E+00  1.20000000E+00  1.20000000E+00
  1.50000000E+00  1.20000000E+00  1.20000000E+00  1.50000000E+00  1.20000000E+00
  1.20000000E+00  1.50000000E+00  1.20000000E+00  1.20000000E+00  1.50000000E+00
  1.20000000E+00  1.20000000E+00  1.50000000E+00  1.20000000E+00  1.20000000E+00
  1.50000000E+00  1.20000000E+00  1.20000000E+00  1.50000000E+00  1.20000000E+00
  1.20000000E+00  1.50000000E+00  1.20000000E+00  1.20000000E+00  1.50000000E+00
  1.20000000E+00  1.20000000E+00  1.50000000E+00  1.20000000E+00  1.20000000E+00
  1.50000000E+00  1.20000000E+00  1.20000000E+00  1.50000000E+00  1.20000000E+00
  1.20000000E+00  1.50000000E+00  1.20000000E+00  1.20000000E+00  1.50000000E+00
  1.20000000E+00  1.20000000E+00  1.50000000E+00  1.20000000E+00  1.20000000E+00
  1.50000000E+00  1.20000000E+00  1.20000000E+00  1.50000000E+00  1.20000000E+00
  1.20000000E+00  1.50000000E+00  1.20000000E+00  1.20000000E+00  1.50000000E+00
  1.20000000E+00  1.20000000E+00  1.50000000E+00  1.20000000E+00  1.20000000E+00
  1.50000000E+00  1.20000000E+00  1.20000000E+00  1.50000000E+00  1.20000000E+00
  1.20000000E+00  1.50000000E+00  1.20000000E+00  1.20000000E+00  1.50000000E+00
  1.20000000E+00  1.20000000E+00  1.50000000E+00  1.20000000E+00  1.20000000E+00
  1.50000000E+00  1.20000000E+00  1.20000000E+00  1.50000000E+00  1.20000000E+00
  1.20000000E+00  1.50000000E+00  1.20000000E+00  1.20000000E+00  1.50000000E+00
  1.20000000E+00  1.20000000E+00  1.50000000E+00  1.20000000E+00  1.20000000E+00
  1.50000000E+00  1.20000000E+00  1.20000000E+00  1.50000000E+00  1.20000000E+00
  1.20000000E+00  1.50000000E+00  1.20000000E+00  1.20000000E+00  1.50000000E+00
  1.20000000E+00  1.20000000E+00  1.50000000E+00  1.20000000E+00  1.20000000E+00
  1.50000000E+00  1.20000000E+00  1.20000000E+00  1.50000000E+00  1.20000000E+00
  1.20000000E+00  1.50000000E+00  1.20000000E+00  1.20000000E+00  1.50000000E+00
  1.20000000E+00  1.20000000E+00  1.50000000E+00  1.20000000E+00  1.20000000E+00
  1.50000000E+00  1.20000000E+00  1.20000000E+00  1.50000000E+00  1.20000000E+00
  1.20000000E+00  1.50000000E+00  1.20000000E+00  1.20000000E+00  1.50000000E+00
  1.20000000E+00  1.20000000E+00  1.50000000E+00  1.20000000E+00  1.20000000E+00
  1.50000000E+00  1.20000000E+00  1.20000000E+00  1.50000000E+00  1.20000000E+00
  1.20000000E+00  1.50000000E+00  1.20000000E+00  1.20000000E+00  1.50000000E+00
  1.20000000E+00  1.20000000E+00  1.50000000E+00  1.20000000E+00  1.20000000E+00
  1.50000000E+00  1.20000000E+00  1.20000000E+00  1.50000000E+00  1.20000000E+00
  1.20000000E+00  1.50000000E+00  1.20000000E+00  1.20000000E+00  1.50000000E+00
  1.20000000E+00  1.20000000E+00  1.50000000E+00  1.20000000E+00  1.20000000E+00
  1.50000000E+00  1.20000000E+00  1.20000000E+00  1.50000000E+00  1.20000000E+00
  1.20000000E+00  1.50000000E+00  1.20000000E+00  1.20000000E+00  1.50000000E+00
  1.20000000E+00  1.20000000E+00  1.50000000E+00  1.20000000E+00  1.20000000E+00
  1.50000000E+00  1.20000000E+00  1.20000000E+00  1.50000000E+00  1.20000000E+00
  1.20000000E+00  1.50000000E+00  1.20000000E+00  1.20000000E+00  1.50000000E+00
  1.20000000E+00  1.20000000E+00  1.50000000E+00  1.20000000E+00  1.20000000E+00
  1.50000000E+00  1.20000000E+00  1.20000000E+00  1.50000000E+00  1.20000000E+00
  1.20000000E+00  1.50000000E+00  1.20000000E+00  1.20000000E+00  1.50000000E+00
  1.20000000E+00  1.20000000E+00  1.50000000E+00  1.20000000E+00  1.20000000E+00
  1.50000000E+00  1.20000000E+00  1.20000000E+00  1.50000000E+00  1.20000000E+00
  1.20000000E+00  1.50000000E+00  1.20000000E+00  1.20000000E+00  1.50000000E+00
  1.20000000E+00  1.20000000E+00  1.50000000E+00  1.20000000E+00  1.20000000E+00
  1.50000000E+00  1.20000000E+00  1.20000000E+00  1.50000000E+00  1.20000000E+00
  1.20000000E+00  1.50000000E+00  1.20000000E+00  1.20000000E+00  1.50000000E+00
  1.20000000E+00  1.20000000E+00  1.50000000E+00  1.20000000E+00  1.20000000E+00
  1.50000000E+00  1.20000000E+00  1.20000000E+00  1.50000000E+00  1.20000000E+00
  1.20000000E+00  1.50000000E+00  1.20000000E+00  1.20000000E+00  1.50000000E+00
  1.20000000E+00  1.20000000E+00  1.50000000E+00  1.20000000E+00  1.20000000E+00
  1.50000000E+00  1.20000000E+00  1.20000000E+00  1.50000000E+00  1.20000000E+00
  1.20000000E+00  1.50000000E+00  1.20000000E+00  1.20000000E+00  1.50000000E+00
  1.20000000E+00  1.20000000E+00  1.50000000E+00  1.20000000E+00  1.20000000E+00
  1.50000000E+00  1.20000000E+00  1.20000000E+00  1.50000000E+00  1.20000000E+00
  1.20000000E+00  1.50000000E+00  1.20000000E+00  1.20000000E+00  1.50000000E+00
  1.20000000E+00  1.20000000E+00  1.50000000E+00  1.20000000E+00  1.20000000E+00
  1.50000000E+00  1.20000000E+00  1.20000000E+00  1.50000000E+00  1.20000000E+00
  1.20000000E+00  1.50000000E+00  1.20000000E+00  1.20000000E+00  1.50000000E+00
  1.20000000E+00  1.20000000E+00  1.50000000E+00  1.20000000E+00  1.20000000E+00
  1.50000000E+00  1.20000000E+00  1.20000000E+00  1.50000000E+00  1.20000000E+00
  1.20000000E+00  1.50000000E+00  1.20000000E+00  1.20000000E+00  1.50000000E+00
  1.20000000E+00  1.20000000E+00  1.50000000E+00  1.20000000E+00  1.20000000E+00
  1.50000000E+00  1.20000000E+00  1.20000000E+00  1.50000000E+00  1.20000000E+00
  1.20000000E+00  1.50000000E+00  1.20000000E+00  1.20000000E+00  1.50000000E+00
  1.20000000E+00  1.20000000E+00  1.50000000E+00  1.20000000E+00  1.20000000E+00
  1.50000000E+00  1.20000000E+00  1.20000000E+00  1.50000000E+00  1.20000000E+00
  1.20000000E+00  1.50000000E+00  1.20000000E+00  1.20000000E+00  1.50000000E+00
  1.20000000E+00  1.20000000E+00  1.50000000E+00  1.20000000E+00  1.20000000E+00
  1.50000000E+00  1.20000000E+00  1.20000000E+00  1.50000000E+00  1.20000000E+00
  1.20000000E+00  1.50000000E+00  1.20000000E+00  1.20000000E+00  1.50000000E+00
  1.20000000E+00  1.20000000E+00  1.50000000E+00  1.20000000E+00  1.20000000E+00
  1.50000000E+00  1.20000000E+00  1.20000000E+00  1.50000000E+00  1.20000000E+00
  1.20000000E+00  1.50000000E+00  1.20000000E+00  1.20000000E+00  1.50000000E+00
  1.20000000E+00  1.20000000E+00  1.50000000E+00  1.20000000E+00  1.20000000E+00
  1.50000000E+00  1.20000000E+00  1.20000000E+00  1.50000000E+00  1.20000000E+00
  1.20000000E+00  1.50000000E+00  1.20000000E+00  1.20000000E+00  1.50000000E+00
  1.20000000E+00  1.20000000E+00  1.50000000E+00  1.20000000E+00  1.20000000E+00
  1.50000000E+00  1.20000000E+00  1.20000000E+00  1.50000000E+00  1.20000000E+00
  1.20000000E+00  1.50000000E+00  1.20000000E+00  1.20000000E+00  1.50000000E+00
  1.20000000E+00  1.20000000E+00  1.50000000E+00  1.20000000E+00  1.20000000E+00
  1.50000000E+00  1.20000000E+00  1.20000000E+00  1.50000000E+00  1.20000000E+00
  1.20000000E+00  1.50000000E+00  1.20000000E+00  1.20000000E+00  1.50000000E+00
  1.20000000E+00  1.20000000E+00  1.50000000E+00  1.20000000E+00  1.20000000E+00
  1.50000000E+00  1.20000000E+00  1.20000000E+00  1.50000000E+00  1.20000000E+00
  1.20000000E+00  1.50000000E+00  1.20000000E+00  1.20000000E+00  1.50000000E+00
  1.20000000E+00  1.20000000E+00  1.50000000E+00  1.20000000E+00  1.20000000E+00
  1.50000000E+00  1.20000000E+00  1.20000000E+00  1.50000000E+00  1.20000000E+00
  1.20000000E+00  1.50000000E+00  1.20000000E+00  1.20000000E+00  1.50000000E+00
  1.20000000E+00  1.20000000E+00  1.50000000E+00  1.20000000E+00  1.20000000E+00
  1.50000000E+00  1.20000000E+00  1.20000000E+00  1.50000000E+00  1.20000000E+00
  1.20000000E+00  1.50000000E+00  1.20000000E+00  1.20000000E+00  1.50000000E+00
  1.20000000E+00  1.20000000E+00  1.50000000E+00  1.20000000E+00  1.20000000E+00
  1.50000000E+00  1.20000000E+00  1.20000000E+00  1.50000000E+00  1.20000000E+00
  1.20000000E+00  1.50000000E+00  1.20000000E+00  1.20000000E+00  1.50000000E+00
  1.20000000E+00  1.20000000E+00  1.50000000E+00  1.20000000E+00  1.20000000E+00
  1.50000000E+00  1.20000000E+00  1.20000000E+00  1.50000000E+00  1.20000000E+00
  1.20000000E+00  1.50000000E+00  1.20000000E+00  1.20000000E+00  1.50000000E+00
  1.20000000E+00  1.20000000E+00  1.50000000E+00  1.20000000E+00  1.20000000E+00
  1.50000000E+00  1.20000000E+00  1.20000000E+00  1.50000000E+00  1.20000000E+00
  1.20000000E+00  1.50000000E+00  1.20000000E+00  1.20000000E+00  1.50000000E+00
  1.20000000E+00  1.20000000E+00  1.50000000E+00  1.20000000E+00  1.20000000E+00
  1.50000000E+00  1.20000000E+00  1.20000000E+00  1.50000000E+00  1.20000000E+00
  1.20000000E+00  1.50000000E+00  1.20000000E+00  1.20000000E+00  1.50000000E+00
  1.20000000E+00  1.20000000E+00  1.50000000E+00  1.20000000E+00  1.20000000E+00
  1.50000000E+00  1.20000000E+00  1.20000000E+00  1.50000000E+00  1.20000000E+00
  1.20000000E+00  1.50000000E+00  1.20000000E+00  1.20000000E+00  1.50000000E+00
  1.20000000E+00  1.20000000E+00  1.50000000E+00  1.20000000E+00  1.20000000E+00
  1.50000000E+00  1.20000000E+00  1.20000000E+00  1.50000000E+00  1.20000000E+00
  1.20000000E+00  1.50000000E+00  1.20000000E+00  1.20000000E+00  1.50000000E+00
  1.20000000E+00  1.20000000E+00  1.50000000E+00  1.20000000E+00  1.20000000E+00
  1.50000000E+00  1.20000000E+00  1.20000000E+00  1.50000000E+00  1.20000000E+00
  1.20000000E+00  1.50000000E+00  1.20000000E+00  1.20000000E+00  1.50000000E+00
  1.20000000E+00  1.20000000E+00  1.50000000E+00  1.20000000E+00  1.20000000E+00
  1.50000000E+00  1.20000000E+00  1.20000000E+00  1.50000000E+00  1.20000000E+00
  1.20000000E+00  1.50000000E+00  1.20000000E+00  1.20000000E+00  1.50000000E+00
  1.20000000E+00  1.20000000E+00  1.50000000E+00  1.20000000E+00  1.20000000E+00
  1.50000000E+00  1.20000000E+00  1.20000000E+00  1.50000000E+00  1.20000000E+00
  1.20000000E+00  1.50000000E+00  1.20000000E+00  1.20000000E+00  1.50000000E+00
  1.20000000E+00  1.20000000E+00  1.50000000E+00  1.20000000E+00  1.20000000E+00
  1.50000000E+00  1.20000000E+00  1.20000000E+00  1.50000000E+00  1.20000000E+00
  1.20000000E+00  1.50000000E+00  1.20000000E+00  1.20000000E+00  1.50000000E+00
  1.20000000E+00  1.20000000E+00  1.50000000E+00  1.20000000E+00  1.20000000E+00
  1.50000000E+00  1.20000000E+00  1.20000000E+00  1.50000000E+00  1.20000000E+00
  1.20000000E+00  1.50000000E+00  1.20000000E+00  1.20000000E+00  1.50000000E+00
  1.20000000E+00  1.20000000E+00  1.50000000E+00  1.20000000E+00  1.20000000E+00
  1.50000000E+00  1.20000000E+00  1.20000000E+00  1.50000000E+00  1.20000000E+00
  1.20000000E+00  1.50000000E+00  1.20000000E+00  1.20000000E+00  1.50000000E+00
  1.20000000E+00  1.20000000E+00  1.50000000E+00  1.20000000E+00  1.20000000E+00
  1.50000000E+00  1.20000000E+00  1.20000000E+00  1.50000000E+00  1.20000000E+00
  1.20000000E+00  1.50000000E+00  1.20000000E+00  1.20000000E+00  1.50000000E+00
  1.20000000E+00  1.20000000E+00  1.50000000E+00  1.20000000E+00  1.20000000E+00
  1.50000000E+00  1.20000000E+00  1.20000000E+00  1.50000000E+00  1.20000000E+00
  1.20000000E+00  1.50000000E+00  1.20000000E+00  1.20000000E+00  1.50000000E+00
  1.20000000E+00  1.20000000E+00  1.50000000E+00  1.20000000E+00  1.20000000E+00
  1.50000000E+00  1.20000000E+00  1.20000000E+00  1.50000000E+00  1.20000000E+00
  1.20000000E+00  1.50000000E+00  1.20000000E+00  1.20000000E+00  1.50000000E+00
  1.20000000E+00  1.20000000E+00  1.50000000E+00  1.20000000E+00  1.20000000E+00
  1.50000000E+00  1.20000000E+00  1.20000000E+00  1.50000000E+00  1.20000000E+00
  1.20000000E+00  1.50000000E+00  1.20000000E+00  1.20000000E+00  1.50000000E+00
  1.20000000E+00  1.20000000E+00  1.50000000E+00  1.20000000E+00  1.20000000E+00
  1.50000000E+00  1.20000000E+00  1.20000000E+00  1.50000000E+00  1.20000000E+00
  1.20000000E+00  1.50000000E+00  1.20000000E+00  1.20000000E+00  1.50000000E+00
  1.20000000E+00  1.20000000E+00  1.50000000E+00  1.20000000E+00  1.20000000E+00
  1.50000000E+00  1.20000000E+00  1.20000000E+00  1.50000000E+00  1.20000000E+00
  1.20000000E+00  1.50000000E+00  1.20000000E+00  1.20000000E+00  1.50000000E+00
  1.20000000E+00  1.20000000E+00  1.50000000E+00  1.20000000E+00  1.20000000E+00
  1.50000000E+00  1.20000000E+00  1.20000000E+00  1.50000000E+00  1.20000000E+00
  1.20000000E+00  1.50000000E+00  1.20000000E+00  1.20000000E+00  1.50000000E+00
  1.20000000E+00  1.20000000E+00  1.50000000E+00  1.20000000E+00  1.20000000E+00
  1.50000000E+00  1.20000000E+00  1.20000000E+00  1.50000000E+00  1.20000000E+00
  1.20000000E+00  1.50000000E+00  1.20000000E+00  1.20000000E+00  1.50000000E+00
  1.20000000E+00  1.20000000E+00  1.50000000E+00  1.20000000E+00  1.20000000E+00
  1.50000000E+00  1.20000000E+00  1.20000000E+00  1.50000000E+00  1.20000000E+00
  1.20000000E+00  1.50000000E+00  1.20000000E+00  1.20000000E+00  1.50000000E+00
  1.20000000E+00  1.20000000E+00  1.50000000E+00  1.20000000E+00  1.20000000E+00
  1.50000000E+00  1.20000000E+00  1.20000000E+00  1.50000000E+00  1.20000000E+00
  1.20000000E+00  1.50000000E+00  1.20000000E+00  1.20000000E+00  1.50000000E+00
  1.20000000E+00  1.20000000E+00  1.50000000E+00  1.20000000E+00  1.20000000E+00
  1.50000000E+00  1.20000000E+00  1.20000000E+00  1.50000000E+00  1.20000000E+00
  1.20000000E+00  1.50000000E+00  1.20000000E+00  1.20000000E+00  1.50000000E+00
  1.20000000E+00  1.20000000E+00  1.50000000E+00  1.20000000E+00  1.20000000E+00
  1.50000000E+00  1.20000000E+00  1.20000000E+00  1.50000000E+00  1.20000000E+00
  1.20000000E+00  1.50000000E+00  1.20000000E+00  1.20000000E+00  1.50000000E+00
  1.20000000E+00  1.20000000E+00  1.50000000E+00  1.20000000E+00  1.20000000E+00
  1.50000000E+00  1.20000000E+00  1.20000000E+00  1.50000000E+00  1.20000000E+00
  1.20000000E+00  1.50000000E+00  1.20000000E+00  1.20000000E+00  1.50000000E+00
  1.20000000E+00  1.20000000E+00  1.50000000E+00  1.20000000E+00  1.20000000E+00
  1.50000000E+00  1.20000000E+00  1.20000000E+00  1.50000000E+00  1.20000000E+00
  1.20000000E+00  1.50000000E+00  1.20000000E+00  1.20000000E+00  1.50000000E+00
  1.20000000E+00  1.20000000E+00  1.50000000E+00  1.20000000E+00  1.20000000E+00
  1.50000000E+00  1.20000000E+00  1.20000000E+00  1.50000000E+00  1.20000000E+00
  1.20000000E+00  1.50000000E+00  1.20000000E+00  1.20000000E+00  1.50000000E+00
  1.20000000E+00  1.20000000E+00  1.50000000E+00  1.20000000E+00  1.20000000E+00
  1.50000000E+00  1.20000000E+00  1.20000000E+00  1.50000000E+00  1.20000000E+00
  1.20000000E+00  1.50000000E+00  1.20000000E+00  1.20000000E+00  1.50000000E+00
  1.20000000E+00  1.20000000E+00  1.50000000E+00  1.20000000E+00  1.20000000E+00
  1.50000000E+00  1.20000000E+00  1.20000000E+00  1.50000000E+00  1.20000000E+00
  1.20000000E+00  1.50000000E+00  1.20000000E+00  1.20000000E+00  1.50000000E+00
  1.20000000E+00  1.20000000E+00  1.50000000E+00  1.20000000E+00  1.20000000E+00
  1.50000000E+00  1.20000000E+00  1.20000000E+00  1.50000000E+00  1.20000000E+00
  1.20000000E+00  1.50000000E+00  1.20000000E+00  1.20000000E+00  1.50000000E+00
  1.20000000E+00  1.20000000E+00  1.50000000E+00  1.20000000E+00  1.20000000E+00
  1.50000000E+00  1.20000000E+00  1.20000000E+00  1.50000000E+00  1.20000000E+00
  1.20000000E+00  1.50000000E+00  1.20000000E+00  1.20000000E+00  1.50000000E+00
  1.20000000E+00  1.20000000E+00  1.50000000E+00  1.20000000E+00  1.20000000E+00
  1.50000000E+00  1.20000000E+00  1.20000000E+00  1.50000000E+00  1.20000000E+00
  1.20000000E+00  1.50000000E+00  1.20000000E+00  1.20000000E+00  1.50000000E+00
  1.20000000E+00  1.20000000E+00  1.50000000E+00  1.20000000E+00  1.20000000E+00
  1.50000000E+00  1.20000000E+00  1.20000000E+00  1.50000000E+00  1.20000000E+00
  1.20000000E+00  1.50000000E+00  1.20000000E+00  1.20000000E+00  1.50000000E+00
  1.20000000E+00  1.20000000E+00  1.50000000E+00  1.20000000E+00  1.20000000E+00
  1.50000000E+00  1.20000000E+00  1.20000000E+00  1.50000000E+00  1.20000000E+00
  1.20000000E+00  1.50000000E+00  1.20000000E+00  1.20000000E+00  1.50000000E+00
  1.20000000E+00  1.20000000E+00  1.50000000E+00  1.20000000E+00  1.20000000E+00
  1.50000000E+00  1.20000000E+00  1.20000000E+00  1.50000000E+00  1.20000000E+00
  1.20000000E+00  1.50000000E+00  1.20000000E+00  1.20000000E+00  1.50000000E+00
  1.20000000E+00  1.20000000E+00  1.50000000E+00  1.20000000E+00  1.20000000E+00
  1.50000000E+00  1.20000000E+00  1.20000000E+00  1.50000000E+00  1.20000000E+00
  1.20000000E+00  1.50000000E+00  1.20000000E+00  1.20000000E+00  1.50000000E+00
  1.20000000E+00  1.20000000E+00  1.50000000E+00  1.20000000E+00  1.20000000E+00
  1.50000000E+00  1.20000000E+00  1.20000000E+00  1.50000000E+00  1.20000000E+00
  1.20000000E+00  1.50000000E+00  1.20000000E+00  1.20000000E+00  1.50000000E+00
  1.20000000E+00  1.20000000E+00  1.50000000E+00  1.20000000E+00  1.20000000E+00
  1.50000000E+00  1.20000000E+00  1.20000000E+00  1.50000000E+00  1.20000000E+00
  1.20000000E+00  1.50000000E+00  1.20000000E+00  1.20000000E+00  1.50000000E+00
  1.20000000E+00  1.20000000E+00  1.50000000E+00  1.20000000E+00  1.20000000E+00
  1.50000000E+00  1.20000000E+00  1.20000000E+00  1.50000000E+00  1.20000000E+00
  1.20000000E+00  1.50000000E+00  1.20000000E+00  1.20000000E+00  1.50000000E+00
  1.20000000E+00  1.20000000E+00  1.50000000E+00  1.20000000E+00  1.20000000E+00
  1.50000000E+00  1.20000000E+00  1.20000000E+00  1.50000000E+00  1.20000000E+00
  1.20000000E+00  1.50000000E+00  1.20000000E+00  1.20000000E+00  1.50000000E+00
  1.20000000E+00  1.20000000E+00  1.50000000E+00  1.20000000E+00  1.20000000E+00
  1.50000000E+00  1.20000000E+00  1.20000000E+00  1.50000000E+00  1.20000000E+00
  1.20000000E+00  1.50000000E+00  1.20000000E+00  1.20000000E+00  1.50000000E+00
  1.20000000E+00  1.20000000E+00  1.50000000E+00  1.20000000E+00  1.20000000E+00
  1.50000000E+00  1.20000000E+00  1.20000000E+00  1.50000000E+00  1.20000000E+00
  1.20000000E+00  1.50000000E+00  1.20000000E+00  1.20000000E+00  1.50000000E+00
  1.20000000E+00  1.20000000E+00  1.50000000E+00  1.20000000E+00  1.20000000E+00
  1.50000000E+00  1.20000000E+00  1.20000000E+00  1.50000000E+00  1.20000000E+00
  1.20000000E+00  1.50000000E+00  1.20000000E+00  1.20000000E+00  1.50000000E+00
  1.20000000E+00  1.20000000E+00  1.50000000E+00  1.20000000E+00  1.20000000E+00
  1.50000000E+00  1.20000000E+00  1.20000000E+00  1.50000000E+00  1.20000000E+00
  1.20000000E+00  1.50000000E+00  1.20000000E+00  1.20000000E+00  1.50000000E+00
  1.20000000E+00  1.20000000E+00  1.50000000E+00  1.20000000E+00  1.20000000E+00
  1.50000000E+00  1.20000000E+00  1.20000000E+00  1.50000000E+00  1.20000000E+00
  1.20000000E+00  1.50000000E+00  1.20000000E+00  1.20000000E+00  1.50000000E+00
  1.20000000E+00  1.20000000E+00  1.50000000E+00  1.20000000E+00  1.20000000E+00
  1.50000000E+00  1.20000000E+00  1.20000000E+00  1.50000000E+00  1.20000000E+00
  1.20000000E+00  1.50000000E+00  1.20000000E+00  1.20000000E+00  1.50000000E+00
  1.20000000E+00  1.20000000E+00  1.50000000E+00  1.20000000E+00  1.20000000E+00
  1.50000000E+00  1.20000000E+00  1.20000000E+00  1.50000000E+00  1.20000000E+00
  1.20000000E+00  1.50000000E+00  1.20000000E+00  1.20000000E+00  1.50000000E+00
  1.20000000E+00  1.20000000E+00  1.50000000E+00  1.20000000E+00  1.20000000E+00
  1.50000000E+00  1.20000000E+00  1.20000000E+00  1.50000000E+00  1.20000000E+00
  1.20000000E+00  1.50000000E+00  1.20000000E+00  1.20000000E+00  1.50000000E+00
  1.20000000E+00  1.20000000E+00  1.50000000E+00  1.20000000E+00  1.20000000E+00
  1.50000000E+00  1.20000000E+00  1.20000000E+00  1.50000000E+00  1.20000000E+00
  1.20000000E+00  1.50000000E+00  1.20000000E+00  1.20000000E+00  1.50000000E+00
  1.20000000E+00  1.20000000E+00  1.50000000E+00  1.20000000E+00  1.20000000E+00
  1.50000000E+00  1.20000000E+00  1.20000000E+00  1.50000000E+00  1.20000000E+00
  1.20000000E+00  1.50000000E+00  1.20000000E+00  1.20000000E+00  1.50000000E+00
  1.20000000E+00  1.20000000E+00  1.50000000E+00  1.20000000E+00  1.20000000E+00
  1.50000000E+00  1.20000000E+00  1.20000000E+00  1.50000000E+00  1.20000000E+00
  1.20000000E+00  1.50000000E+00  1.20000000E+00  1.20000000E+00  1.50000000E+00
  1.20000000E+00  1.20000000E+00  1.50000000E+00  1.20000000E+00  1.20000000E+00
  1.50000000E+00  1.20000000E+00  1.20000000E+00  1.50000000E+00  1.20000000E+00
  1.20000000E+00  1.50000000E+00  1.20000000E+00  1.20000000E+00  1.50000000E+00
  1.20000000E+00  1.20000000E+00  1.50000000E+00  1.20000000E+00  1.20000000E+00
  1.50000000E+00  1.20000000E+00  1.20000000E+00  1.50000000E+00  1.20000000E+00
  1.20000000E+00  1.50000000E+00  1.20000000E+00  1.20000000E+00  1.50000000E+00
  1.20000000E+00  1.20000000E+00  1.50000000E+00  1.20000000E+00  1.20000000E+00
  1.50000000E+00  1.20000000E+00  1.20000000E+00  1.50000000E+00  1.20000000E+00
  1.20000000E+00  1.50000000E+00  1.20000000E+00  1.20000000E+00  1.50000000E+00
  1.20000000E+00  1.20000000E+00  1.50000000E+00  1.20000000E+00  1.20000000E+00
  1.50000000E+00  1.20000000E+00  1.20000000E+00  1.50000000E+00  1.20000000E+00
  1.20000000E+00  1.50000000E+00  1.20000000E+00  1.20000000E+00  1.50000000E+00
  1.20000000E+00  1.20000000E+00  1.50000000E+00  1.20000000E+00  1.20000000E+00
  1.50000000E+00  1.20000000E+00  1.20000000E+00  1.50000000E+00  1.20000000E+00
  1.20000000E+00  1.50000000E+00  1.20000000E+00  1.20000000E+00  1.50000000E+00
  1.20000000E+00  1.20000000E+00  1.50000000E+00  1.20000000E+00  1.20000000E+00
  1.50000000E+00  1.20000000E+00  1.20000000E+00  1.50000000E+00  1.20000000E+00
  1.20000000E+00  1.50000000E+00  1.20000000E+00  1.20000000E+00  1.50000000E+00
  1.20000000E+00  1.20000000E+00  1.50000000E+00  1.20000000E+00  1.20000000E+00
  1.50000000E+00  1.20000000E+00  1.20000000E+00  1.50000000E+00  1.20000000E+00
  1.20000000E+00  1.50000000E+00  1.20000000E+00  1.20000000E+00  1.50000000E+00
  1.20000000E+00  1.20000000E+00  1.50000000E+00  1.20000000E+00  1.20000000E+00
  1.50000000E+00  1.20000000E+00  1.20000000E+00  1.50000000E+00  1.20000000E+00
  1.20000000E+00  1.50000000E+00  1.20000000E+00  1.20000000E+00  1.50000000E+00
  1.20000000E+00  1.20000000E+00  1.50000000E+00  1.20000000E+00  1.20000000E+00
  1.50000000E+00  1.20000000E+00  1.20000000E+00  1.50000000E+00  1.20000000E+00
  1.20000000E+00  1.50000000E+00  1.20000000E+00  1.20000000E+00  1.50000000E+00
  1.20000000E+00  1.20000000E+00  1.50000000E+00  1.20000000E+00  1.20000000E+00
  1.50000000E+00  1.20000000E+00  1.20000000E+00  1.50000000E+00  1.20000000E+00
  1.20000000E+00  1.50000000E+00  1.20000000E+00  1.20000000E+00  1.50000000E+00
  1.20000000E+00  1.20000000E+00  1.50000000E+00  1.20000000E+00  1.20000000E+00
  1.50000000E+00  1.20000000E+00  1.20000000E+00  1.50000000E+00  1.20000000E+00
  1.20000000E+00  1.50000000E+00  1.20000000E+00  1.20000000E+00  1.50000000E+00
  1.20000000E+00  1.20000000E+00  1.50000000E+00  1.20000000E+00  1.20000000E+00
  1.50000000E+00  1.20000000E+00  1.20000000E+00  1.50000000E+00  1.20000000E+00
  1.20000000E+00  1.50000000E+00  1.20000000E+00  1.20000000E+00  1.50000000E+00
  1.20000000E+00  1.20000000E+00  1.50000000E+00  1.20000000E+00  1.20000000E+00
  1.50000000E+00  1.20000000E+00  1.20000000E+00  1.50000000E+00  1.20000000E+00
  1.20000000E+00  1.50000000E+00  1.20000000E+00  1.20000000E+00  1.50000000E+00
  1.20000000E+00  1.20000000E+00  1.50000000E+00  1.20000000E+00  1.20000000E+00
  1.50000000E+00  1.20000000E+00  1.20000000E+00  1.50000000E+00  1.20000000E+00
  1.20000000E+00  1.50000000E+00  1.20000000E+00  1.20000000E+00  1.50000000E+00
  1.20000000E+00  1.20000000E+00  1.50000000E+00  1.20000000E+00  1.20000000E+00
  1.50000000E+00  1.20000000E+00  1.20000000E+00  1.50000000E+00  1.20000000E+00
  1.20000000E+00  1.50000000E+00  1.20000000E+00  1.20000000E+00  1.50000000E+00
  1.20000000E+00  1.20000000E+00  1.50000000E+00  1.20000000E+00  1.20000000E+00
  1.50000000E+00  1.20000000E+00  1.20000000E+00  1.50000000E+00  1.20000000E+00
  1.20000000E+00  1.50000000E+00  1.20000000E+00  1.20000000E+00  1.50000000E+00
  1.20000000E+00  1.20000000E+00  1.50000000E+00  1.20000000E+00  1.20000000E+00
  1.50000000E+00  1.20000000E+00  1.20000000E+00  1.50000000E+00  1.20000000E+00
  1.20000000E+00  1.50000000E+00  1.20000000E+00  1.20000000E+00  1.50000000E+00
  1.20000000E+00  1.20000000E+00  1.50000000E+00  1.20000000E+00  1.20000000E+00
  1.50000000E+00  1.20000000E+00  1.20000000E+00  1.50000000E+00  1.20000000E+00
  1.20000000E+00  1.50000000E+00  1.20000000E+00  1.20000000E+00  1.50000000E+00
  1.20000000E+00  1.20000000E+00  1.50000000E+00  1.20000000E+00  1.20000000E+00
  1.50000000E+00  1.20000000E+00  1.20000000E+00  1.50000000E+00  1.20000000E+00
  1.20000000E+00  1.50000000E+00  1.20000000E+00  1.20000000E+00  1.50000000E+00
  1.20000000E+00  1.20000000E+00  1.50000000E+00  1.20000000E+00  1.20000000E+00
  1.50000000E+00  1.20000000E+00  1.20000000E+00  1.50000000E+00  1.20000000E+00
  1.20000000E+00  1.50000000E+00  1.20000000E+00  1.20000000E+00  1.50000000E+00
  1.20000000E+00  1.20000000E+00  1.50000000E+00  1.20000000E+00  1.20000000E+00
  1.50000000E+00  1.20000000E+00  1.20000000E+00  1.50000000E+00  1.20000000E+00
  1.20000000E+00  1.50000000E+00  1.20000000E+00  1.20000000E+00  1.50000000E+00
  1.20000000E+00  1.20000000E+00  1.50000000E+00  1.20000000E+00  1.20000000E+00
  1.50000000E+00  1.20000000E+00  1.20000000E+00  1.50000000E+00  1.20000000E+00
  1.20000000E+00  1.50000000E+00  1.20000000E+00  1.20000000E+00  1.50000000E+00
  1.20000000E+00  1.20000000E+00  1.50000000E+00  1.20000000E+00  1.20000000E+00
  1.50000000E+00  1.20000000E+00  1.20000000E+00  1.50000000E+00  1.20000000E+00
  1.20000000E+00  1.50000000E+00  1.20000000E+00  1.20000000E+00  1.50000000E+00
  1.20000000E+00  1.20000000E+00  1.50000000E+00  1.20000000E+00  1.20000000E+00
  1.50000000E+00  1.20000000E+00  1.20000000E+00  1.50000000E+00  1.20000000E+00
  1.20000000E+00  1.50000000E+00  1.20000000E+00  1.20000000E+00  1.50000000E+00
  1.20000000E+00  1.20000000E+00  1.50000000E+00  1.20000000E+00  1.20000000E+00
  1.50000000E+00  1.20000000E+00  1.20000000E+00  1.50000000E+00  1.20000000E+00
  1.20000000E+00  1.50000000E+00  1.20000000E+00  1.20000000E+00  1.50000000E+00
  1.20000000E+00  1.20000000E+00  1.50000000E+00  1.20000000E+00  1.20000000E+00
  1.50000000E+00  1.20000000E+00  1.20000000E+00  1.50000000E+00  1.20000000E+00
  1.20000000E+00  1.50000000E+00  1.20000000E+00  1.20000000E+00  1.50000000E+00
  1.20000000E+00  1.20000000E+00  1.50000000E+00  1.20000000E+00  1.20000000E+00
  1.50000000E+00  1.20000000E+00  1.20000000E+00  1.50000000E+00  1.20000000E+00
  1.20000000E+00  1.50000000E+00  1.20000000E+00  1.20000000E+00  1.50000000E+00
  1.20000000E+00  1.20000000E+00  1.50000000E+00  1.20000000E+00  1.20000000E+00
  1.50000000E+00  1.20000000E+00  1.20000000E+00  1.50000000E+00  1.20000000E+00
  1.20000000E+00  1.50000000E+00  1.20000000E+00  1.20000000E+00  1.50000000E+00
  1.20000000E+00  1.20000000E+00  1.50000000E+00  1.20000000E+00  1.20000000E+00
  1.50000000E+00  1.20000000E+00  1.20000000E+00  1.50000000E+00  1.20000000E+00
  1.20000000E+00  1.50000000E+00  1.20000000E+00  1.20000000E+00  1.50000000E+00
  1.20000000E+00  1.20000000E+00  1.50000000E+00  1.20000000E+00  1.20000000E+00
  1.50000000E+00  1.20000000E+00  1.20000000E+00  1.50000000E+00  1.20000000E+00
  1.20000000E+00  1.50000000E+00  1.20000000E+00  1.20000000E+00  1.50000000E+00
  1.20000000E+00  1.20000000E+00  1.50000000E+00  1.20000000E+00  1.20000000E+00
  1.50000000E+00  1.20000000E+00  1.20000000E+00  1.50000000E+00  1.20000000E+00
  1.20000000E+00  1.50000000E+00  1.20000000E+00  1.20000000E+00  1.50000000E+00
  1.20000000E+00  1.20000000E+00  1.50000000E+00  1.20000000E+00  1.20000000E+00
  1.50000000E+00  1.20000000E+00  1.20000000E+00  1.50000000E+00  1.20000000E+00
  1.20000000E+00  1.50000000E+00  1.20000000E+00  1.20000000E+00  1.50000000E+00
  1.20000000E+00  1.20000000E+00  1.50000000E+00  1.20000000E+00  1.20000000E+00
  1.50000000E+00  1.20000000E+00  1.20000000E+00  1.50000000E+00  1.20000000E+00
  1.20000000E+00  1.50000000E+00  1.20000000E+00  1.20000000E+00  1.50000000E+00
  1.20000000E+00  1.20000000E+00  1.50000000E+00  1.20000000E+00  1.20000000E+00
  1.50000000E+00  1.20000000E+00  1.20000000E+00  1.50000000E+00  1.20000000E+00
  1.20000000E+00  1.50000000E+00  1.20000000E+00  1.20000000E+00  1.50000000E+00
  1.20000000E+00  1.20000000E+00  1.50000000E+00  1.20000000E+00  1.20000000E+00
  1.50000000E+00  1.20000000E+00  1.20000000E+00  1.50000000E+00  1.20000000E+00
  1.20000000E+00  1.50000000E+00  1.20000000E+00  1.20000000E+00  1.50000000E+00
  1.20000000E+00  1.20000000E+00  1.50000000E+00  1.20000000E+00  1.20000000E+00
  1.50000000E+00  1.20000000E+00  1.20000000E+00  1.50000000E+00  1.20000000E+00
  1.20000000E+00  1.50000000E+00  1.20000000E+00  1.20000000E+00  1.50000000E+00
  1.20000000E+00  1.20000000E+00  1.50000000E+00  1.20000000E+00  1.20000000E+00
  1.50000000E+00  1.20000000E+00  1.20000000E+00  1.50000000E+00  1.20000000E+00
  1.20000000E+00  1.50000000E+00  1.20000000E+00  1.20000000E+00  1.50000000E+00
  1.20000000E+00  1.20000000E+00  1.50000000E+00  1.20000000E+00  1.20000000E+00
  1.50000000E+00  1.20000000E+00  1.20000000E+00  1.50000000E+00  1.20000000E+00
  1.20000000E+00  1.50000000E+00  1.20000000E+00  1.20000000E+00  1.50000000E+00
  1.20000000E+00  1.20000000E+00  1.50000000E+00  1.20000000E+00  1.20000000E+00
  1.50000000E+00  1.20000000E+00  1.20000000E+00  1.50000000E+00  1.20000000E+00
  1.20000000E+00  1.50000000E+00  1.20000000E+00  1.20000000E+00  1.50000000E+00
  1.20000000E+00  1.20000000E+00  1.50000000E+00  1.20000000E+00  1.20000000E+00
  1.50000000E+00  1.20000000E+00  1.20000000E+00  1.50000000E+00  1.20000000E+00
  1.20000000E+00  1.50000000E+00  1.20000000E+00  1.20000000E+00  1.50000000E+00
  1.20000000E+00  1.20000000E+00  1.50000000E+00  1.20000000E+00  1.20000000E+00
  1.50000000E+00  1.20000000E+00  1.20000000E+00  1.50000000E+00  1.20000000E+00
  1.20000000E+00  1.50000000E+00  1.20000000E+00  1.20000000E+00  1.50000000E+00
  1.20000000E+00  1.20000000E+00  1.50000000E+00  1.20000000E+00  1.20000000E+00
  1.50000000E+00  1.20000000E+00  1.20000000E+00  1.50000000E+00  1.20000000E+00
  1.20000000E+00  1.50000000E+00  1.20000000E+00  1.20000000E+00  1.50000000E+00
  1.20000000E+00  1.20000000E+00  1.50000000E+00  1.20000000E+00  1.20000000E+00
  1.50000000E+00  1.20000000E+00  1.20000000E+00  1.50000000E+00  1.20000000E+00
  1.20000000E+00  1.50000000E+00  1.20000000E+00  1.20000000E+00  1.50000000E+00
  1.20000000E+00  1.20000000E+00  1.50000000E+00  1.20000000E+00  1.20000000E+00
  1.50000000E+00  1.20000000E+00  1.20000000E+00  1.50000000E+00  1.20000000E+00
  1.20000000E+00  1.50000000E+00  1.20000000E+00  1.20000000E+00  1.50000000E+00
  1.20000000E+00  1.20000000E+00  1.50000000E+00  1.20000000E+00  1.20000000E+00
  1.50000000E+00  1.20000000E+00  1.20000000E+00  1.50000000E+00  1.20000000E+00
  1.20000000E+00  1.50000000E+00  1.20000000E+00  1.20000000E+00  1.50000000E+00
  1.20000000E+00  1.20000000E+00  1.50000000E+00  1.20000000E+00  1.20000000E+00
  1.50000000E+00  1.20000000E+00  1.20000000E+00  1.50000000E+00  1.20000000E+00
  1.20000000E+00  1.50000000E+00  1.20000000E+00  1.20000000E+00  1.50000000E+00
  1.20000000E+00  1.20000000E+00  1.50000000E+00  1.20000000E+00  1.20000000E+00
  1.50000000E+00  1.20000000E+00  1.20000000E+00  1.50000000E+00  1.20000000E+00
  1.20000000E+00  1.50000000E+00  1.20000000E+00  1.20000000E+00  1.50000000E+00
  1.20000000E+00  1.20000000E+00  1.50000000E+00  1.20000000E+00  1.20000000E+00
  1.50000000E+00  1.20000000E+00  1.20000000E+00  1.50000000E+00  1.20000000E+00
  1.20000000E+00  1.50000000E+00  1.20000000E+00  1.20000000E+00  1.50000000E+00
  1.20000000E+00  1.20000000E+00  1.50000000E+00  1.20000000E+00  1.20000000E+00
  1.50000000E+00  1.20000000E+00  1.20000000E+00  1.50000000E+00  1.20000000E+00
  1.20000000E+00  1.50000000E+00  1.20000000E+00  1.20000000E+00  1.50000000E+00
  1.20000000E+00  1.20000000E+00  1.50000000E+00  1.20000000E+00  1.20000000E+00
  1.50000000E+00  1.20000000E+00  1.20000000E+00  1.50000000E+00  1.20000000E+00
  1.20000000E+00  1.50000000E+00  1.20000000E+00  1.20000000E+00  1.50000000E+00
  1.20000000E+00  1.20000000E+00  1.50000000E+00  1.20000000E+00  1.20000000E+00
  1.50000000E+00  1.20000000E+00  1.20000000E+00  1.50000000E+00  1.20000000E+00
  1.20000000E+00  1.50000000E+00  1.20000000E+00  1.20000000E+00  1.50000000E+00
  1.20000000E+00  1.20000000E+00  1.50000000E+00  1.20000000E+00  1.20000000E+00
  1.50000000E+00  1.20000000E+00  1.20000000E+00  1.50000000E+00  1.20000000E+00
  1.20000000E+00  1.50000000E+00  1.20000000E+00  1.20000000E+00  1.50000000E+00
  1.20000000E+00  1.20000000E+00  1.50000000E+00  1.20000000E+00  1.20000000E+00
  1.50000000E+00  1.20000000E+00  1.20000000E+00  1.50000000E+00  1.20000000E+00
  1.20000000E+00  1.50000000E+00  1.20000000E+00  1.20000000E+00  1.50000000E+00
  1.20000000E+00  1.20000000E+00  1.50000000E+00  1.20000000E+00  1.20000000E+00
  1.50000000E+00  1.20000000E+00  1.20000000E+00  1.50000000E+00  1.20000000E+00
  1.20000000E+00  1.50000000E+00  1.20000000E+00  1.20000000E+00  1.50000000E+00
  1.20000000E+00  1.20000000E+00  1.50000000E+00  1.20000000E+00  1.20000000E+00
  1.50000000E+00  1.20000000E+00  1.20000000E+00  1.50000000E+00  1.20000000E+00
  1.20000000E+00  1.50000000E+00  1.20000000E+00  1.20000000E+00  1.50000000E+00
  1.20000000E+00  1.20000000E+00  1.50000000E+00  1.20000000E+00  1.20000000E+00
  1.50000000E+00  1.20000000E+00  1.20000000E+00  1.50000000E+00  1.20000000E+00
  1.20000000E+00  1.50000000E+00  1.20000000E+00  1.20000000E+00  1.50000000E+00
  1.20000000E+00  1.20000000E+00  1.50000000E+00  1.20000000E+00  1.20000000E+00
  1.50000000E+00  1.20000000E+00  1.20000000E+00  1.50000000E+00  1.20000000E+00
  1.20000000E+00  1.50000000E+00  1.20000000E+00  1.20000000E+00  1.50000000E+00
  1.20000000E+00  1.20000000E+00  1.50000000E+00  1.20000000E+00  1.20000000E+00
  1.50000000E+00  1.20000000E+00  1.20000000E+00  1.50000000E+00  1.20000000E+00
  1.20000000E+00  1.50000000E+00  1.20000000E+00  1.20000000E+00  1.50000000E+00
  1.20000000E+00  1.20000000E+00  1.50000000E+00  1.20000000E+00  1.20000000E+00
  1.50000000E+00  1.20000000E+00  1.20000000E+00  1.50000000E+00  1.20000000E+00
  1.20000000E+00  1.50000000E+00  1.20000000E+00  1.20000000E+00  1.50000000E+00
  1.20000000E+00  1.20000000E+00  1.50000000E+00  1.20000000E+00  1.20000000E+00
  1.50000000E+00  1.20000000E+00  1.20000000E+00  1.50000000E+00  1.20000000E+00
  1.20000000E+00  1.50000000E+00  1.20000000E+00  1.20000000E+00  1.50000000E+00
  1.20000000E+00  1.20000000E+00  1.50000000E+00  1.20000000E+00  1.20000000E+00
  1.50000000E+00  1.20000000E+00  1.20000000E+00  1.50000000E+00  1.20000000E+00
  1.20000000E+00  1.50000000E+00  1.20000000E+00  1.20000000E+00  1.50000000E+00
  1.20000000E+00  1.20000000E+00  1.50000000E+00  1.20000000E+00  1.20000000E+00
  1.50000000E+00  1.20000000E+00  1.20000000E+00  1.50000000E+00  1.20000000E+00
  1.20000000E+00  1.50000000E+00  1.20000000E+00  1.20000000E+00  1.50000000E+00
  1.20000000E+00  1.20000000E+00  1.50000000E+00  1.20000000E+00  1.20000000E+00
  1.50000000E+00  1.20000000E+00  1.20000000E+00  1.50000000E+00  1.20000000E+00
  1.20000000E+00  1.50000000E+00  1.20000000E+00  1.20000000E+00  1.50000000E+00
  1.20000000E+00  1.20000000E+00  1.50000000E+00  1.20000000E+00  1.20000000E+00
  1.50000000E+00  1.20000000E+00  1.20000000E+00  1.50000000E+00  1.20000000E+00
  1.20000000E+00  1.50000000E+00  1.20000000E+00  1.20000000E+00  1.50000000E+00
  1.20000000E+00  1.20000000E+00  1.50000000E+00  1.20000000E+00  1.20000000E+00
  1.50000000E+00  1.20000000E+00  1.20000000E+00  1.50000000E+00  1.20000000E+00
  1.20000000E+00  1.50000000E+00  1.20000000E+00  1.20000000E+00  1.50000000E+00
  1.20000000E+00  1.20000000E+00  1.50000000E+00  1.20000000E+00  1.20000000E+00
  1.50000000E+00  1.20000000E+00  1.20000000E+00  1.50000000E+00  1.20000000E+00
  1.20000000E+00  1.50000000E+00  1.20000000E+00  1.20000000E+00  1.50000000E+00
  1.20000000E+00  1.20000000E+00  1.50000000E+00  1.20000000E+00  1.20000000E+00
  1.50000000E+00  1.20000000E+00  1.20000000E+00  1.50000000E+00  1.20000000E+00
  1.20000000E+00  1.50000000E+00  1.20000000E+00  1.20000000E+00  1.50000000E+00
  1.20000000E+00  1.20000000E+00  1.50000000E+00  1.20000000E+00  1.20000000E+00
  1.50000000E+00  1.20000000E+00  1.20000000E+00  1.50000000E+00  1.20000000E+00
  1.20000000E+00  1.50000000E+00  1.20000000E+00  1.20000000E+00  1.50000000E+00
  1.20000000E+00  1.20000000E+00  1.50000000E+00  1.20000000E+00  1.20000000E+00
  1.50000000E+00  1.20000000E+00  1.20000000E+00  1.50000000E+00  1.20000000E+00
  1.20000000E+00  1.50000000E+00  1.20000000E+00  1.20000000E+00  1.50000000E+00
  1.20000000E+00  1.20000000E+00  1.50000000E+00  1.20000000E+00  1.20000000E+00
  1.50000000E+00  1.20000000E+00  1.20000000E+00  1.50000000E+00  1.20000000E+00
  1.20000000E+00  1.50000000E+00  1.20000000E+00  1.20000000E+00  1.50000000E+00
  1.20000000E+00  1.20000000E+00  1.50000000E+00  1.20000000E+00  1.20000000E+00
  1.50000000E+00  1.20000000E+00  1.20000000E+00  1.50000000E+00  1.20000000E+00
  1.20000000E+00  1.50000000E+00  1.20000000E+00  1.20000000E+00  1.50000000E+00
  1.20000000E+00  1.20000000E+00  1.50000000E+00  1.20000000E+00  1.20000000E+00
  1.50000000E+00  1.20000000E+00  1.20000000E+00  1.50000000E+00  1.20000000E+00
  1.20000000E+00  1.50000000E+00  1.20000000E+00  1.20000000E+00  1.50000000E+00
  1.20000000E+00  1.20000000E+00  1.50000000E+00  1.20000000E+00  1.20000000E+00
  1.50000000E+00  1.20000000E+00  1.20000000E+00  1.50000000E+00  1.20000000E+00
  1.20000000E+00  1.50000000E+00  1.20000000E+00  1.20000000E+00  1.50000000E+00
  1.20000000E+00  1.20000000E+00  1.50000000E+00  1.20000000E+00  1.20000000E+00
  1.50000000E+00  1.20000000E+00  1.20000000E+00  1.50000000E+00  1.20000000E+00
  1.20000000E+00  1.50000000E+00  1.20000000E+00  1.20000000E+00  1.50000000E+00
  1.20000000E+00  1.20000000E+00  1.50000000E+00  1.20000000E+00  1.20000000E+00
  1.50000000E+00  1.20000000E+00  1.20000000E+00  1.50000000E+00  1.20000000E+00
  1.20000000E+00  1.50000000E+00  1.20000000E+00  1.20000000E+00  1.50000000E+00
  1.20000000E+00  1.20000000E+00  1.50000000E+00  1.20000000E+00  1.20000000E+00
  1.50000000E+00  1.20000000E+00  1.20000000E+00  1.50000000E+00  1.20000000E+00
  1.20000000E+00  1.50000000E+00  1.20000000E+00  1.20000000E+00  1.50000000E+00
  1.20000000E+00  1.20000000E+00  1.50000000E+00  1.20000000E+00  1.20000000E+00
  1.50000000E+00  1.20000000E+00  1.20000000E+00  1.50000000E+00  1.20000000E+00
  1.20000000E+00  1.50000000E+00  1.20000000E+00  1.20000000E+00  1.50000000E+00
  1.20000000E+00  1.20000000E+00  1.50000000E+00  1.20000000E+00  1.20000000E+00
  1.50000000E+00  1.20000000E+00  1.20000000E+00  1.50000000E+00  1.20000000E+00
  1.20000000E+00  1.50000000E+00  1.20000000E+00  1.20000000E+00  1.50000000E+00
  1.20000000E+00  1.20000000E+00  1.50000000E+00  1.20000000E+00  1.20000000E+00
  1.50000000E+00  1.20000000E+00  1.20000000E+00  1.50000000E+00  1.20000000E+00
  1.20000000E+00  1.50000000E+00  1.20000000E+00  1.20000000E+00  1.50000000E+00
  1.20000000E+00  1.20000000E+00  1.50000000E+00  1.20000000E+00  1.20000000E+00
  1.50000000E+00  1.20000000E+00  1.20000000E+00  1.50000000E+00  1.20000000E+00
  1.20000000E+00  1.50000000E+00  1.20000000E+00  1.20000000E+00  1.50000000E+00
  1.20000000E+00  1.20000000E+00  1.50000000E+00  1.20000000E+00  1.20000000E+00
  1.50000000E+00  1.20000000E+00  1.20000000E+00  1.50000000E+00  1.20000000E+00
  1.20000000E+00  1.50000000E+00  1.20000000E+00  1.20000000E+00  1.50000000E+00
  1.20000000E+00  1.20000000E+00  1.50000000E+00  1.20000000E+00  1.20000000E+00
  1.50000000E+00  1.20000000E+00  1.20000000E+00  1.50000000E+00  1.20000000E+00
  1.20000000E+00  1.50000000E+00  1.20000000E+00  1.20000000E+00  1.50000000E+00
  1.20000000E+00  1.20000000E+00  1.50000000E+00  1.20000000E+00  1.20000000E+00
  1.50000000E+00  1.20000000E+00  1.20000000E+00  1.50000000E+00  1.20000000E+00
  1.20000000E+00  1.50000000E+00  1.20000000E+00  1.20000000E+00  1.50000000E+00
  1.20000000E+00  1.20000000E+00  1.50000000E+00  1.20000000E+00  1.20000000E+00
  1.50000000E+00  1.20000000E+00  1.20000000E+00  1.50000000E+00  1.20000000E+00
  1.20000000E+00  1.50000000E+00  1.20000000E+00  1.20000000E+00  1.50000000E+00
  1.20000000E+00  1.20000000E+00  1.50000000E+00  1.20000000E+00  1.20000000E+00
  1.50000000E+00  1.20000000E+00  1.20000000E+00  1.50000000E+00  1.20000000E+00
  1.20000000E+00  1.50000000E+00  1.20000000E+00  1.20000000E+00  1.50000000E+00
  1.20000000E+00  1.20000000E+00  1.50000000E+00  1.20000000E+00  1.20000000E+00
  1.50000000E+00  1.20000000E+00  1.20000000E+00  1.50000000E+00  1.20000000E+00
  1.20000000E+00  1.50000000E+00  1.20000000E+00  1.20000000E+00  1.50000000E+00
  1.20000000E+00  1.20000000E+00  1.50000000E+00  1.20000000E+00  1.20000000E+00
  1.50000000E+00  1.20000000E+00  1.20000000E+00  1.50000000E+00  1.20000000E+00
  1.20000000E+00  1.50000000E+00  1.20000000E+00  1.20000000E+00  1.50000000E+00
  1.20000000E+00  1.20000000E+00  1.50000000E+00  1.20000000E+00  1.20000000E+00
  1.50000000E+00  1.20000000E+00  1.20000000E+00  1.50000000E+00  1.20000000E+00
  1.20000000E+00  1.50000000E+00  1.20000000E+00  1.20000000E+00  1.50000000E+00
  1.20000000E+00  1.20000000E+00  1.50000000E+00  1.20000000E+00  1.20000000E+00
  1.50000000E+00  1.20000000E+00  1.20000000E+00  1.50000000E+00  1.20000000E+00
  1.20000000E+00  1.50000000E+00  1.20000000E+00  1.20000000E+00  1.50000000E+00
  1.20000000E+00  1.20000000E+00  1.50000000E+00  1.20000000E+00  1.20000000E+00
  1.50000000E+00  1.20000000E+00  1.20000000E+00  1.50000000E+00  1.20000000E+00
  1.20000000E+00  1.50000000E+00  1.20000000E+00  1.20000000E+00  1.50000000E+00
  1.20000000E+00  1.20000000E+00  1.50000000E+00  1.20000000E+00  1.20000000E+00
  1.50000000E+00  1.20000000E+00  1.20000000E+00  1.50000000E+00  1.20000000E+00
  1.20000000E+00  1.50000000E+00  1.20000000E+00  1.20000000E+00  1.50000000E+00
  1.20000000E+00  1.20000000E+00  1.50000000E+00  1.20000000E+00  1.20000000E+00
  1.50000000E+00  1.20000000E+00  1.20000000E+00  1.50000000E+00  1.20000000E+00
  1.20000000E+00  1.50000000E+00  1.20000000E+00  1.20000000E+00  1.50000000E+00
  1.20000000E+00  1.20000000E+00  1.50000000E+00  1.20000000E+00  1.20000000E+00
  1.50000000E+00  1.20000000E+00  1.20000000E+00  1.50000000E+00  1.20000000E+00
  1.20000000E+00  1.50000000E+00  1.20000000E+00  1.20000000E+00  1.50000000E+00
  1.20000000E+00  1.20000000E+00  1.50000000E+00  1.20000000E+00  1.20000000E+00
  1.50000000E+00  1.20000000E+00  1.20000000E+00  1.50000000E+00  1.20000000E+00
  1.20000000E+00  1.50000000E+00  1.20000000E+00  1.20000000E+00  1.50000000E+00
  1.20000000E+00  1.20000000E+00  1.50000000E+00  1.20000000E+00  1.20000000E+00
  1.50000000E+00  1.20000000E+00  1.20000000E+00  1.50000000E+00  1.20000000E+00
  1.20000000E+00  1.50000000E+00  1.20000000E+00  1.20000000E+00  1.50000000E+00
  1.20000000E+00  1.20000000E+00  1.50000000E+00  1.20000000E+00  1.20000000E+00
  1.50000000E+00  1.20000000E+00  1.20000000E+00  1.50000000E+00  1.20000000E+00
  1.20000000E+00  1.50000000E+00  1.20000000E+00  1.20000000E+00  1.50000000E+00
  1.20000000E+00  1.20000000E+00  1.50000000E+00  1.20000000E+00  1.20000000E+00
  1.50000000E+00  1.20000000E+00  1.20000000E+00  1.50000000E+00  1.20000000E+00
  1.20000000E+00  1.50000000E+00  1.20000000E+00  1.20000000E+00  1.50000000E+00
  1.20000000E+00  1.20000000E+00  1.50000000E+00  1.20000000E+00  1.20000000E+00
  1.50000000E+00  1.20000000E+00  1.20000000E+00  1.50000000E+00  1.20000000E+00
  1.20000000E+00  1.50000000E+00  1.20000000E+00  1.20000000E+00  1.50000000E+00
  1.20000000E+00  1.20000000E+00  1.50000000E+00  1.20000000E+00  1.20000000E+00
  1.50000000E+00  1.20000000E+00  1.20000000E+00  1.50000000E+00  1.20000000E+00
  1.20000000E+00  1.50000000E+00  1.20000000E+00  1.20000000E+00  1.50000000E+00
  1.20000000E+00  1.20000000E+00  1.50000000E+00  1.20000000E+00  1.20000000E+00
  1.50000000E+00  1.20000000E+00  1.20000000E+00  1.50000000E+00  1.20000000E+00
  1.20000000E+00  1.50000000E+00  1.20000000E+00  1.20000000E+00  1.50000000E+00
  1.20000000E+00  1.20000000E+00  1.50000000E+00  1.20000000E+00  1.20000000E+00
  1.50000000E+00  1.20000000E+00  1.20000000E+00  1.50000000E+00  1.20000000E+00
  1.20000000E+00  1.50000000E+00  1.20000000E+00  1.20000000E+00  1.50000000E+00
  1.20000000E+00  1.20000000E+00  1.50000000E+00  1.20000000E+00  1.20000000E+00
  1.50000000E+00  1.20000000E+00  1.20000000E+00  1.50000000E+00  1.20000000E+00
  1.20000000E+00  1.50000000E+00  1.20000000E+00  1.20000000E+00  1.50000000E+00
  1.20000000E+00  1.20000000E+00  1.50000000E+00  1.20000000E+00  1.20000000E+00
  1.50000000E+00  1.20000000E+00  1.20000000E+00  1.50000000E+00  1.20000000E+00
  1.20000000E+00  1.50000000E+00  1.20000000E+00  1.20000000E+00  1.50000000E+00
  1.20000000E+00  1.20000000E+00  1.50000000E+00  1.20000000E+00  1.20000000E+00
  1.50000000E+00  1.20000000E+00  1.20000000E+00  1.50000000E+00  1.20000000E+00
  1.20000000E+00  1.50000000E+00  1.20000000E+00  1.20000000E+00  1.50000000E+00
  1.20000000E+00  1.20000000E+00  1.50000000E+00  1.20000000E+00  1.20000000E+00
  1.50000000E+00  1.20000000E+00  1.20000000E+00  1.50000000E+00  1.20000000E+00
  1.20000000E+00  1.50000000E+00  1.20000000E+00  1.20000000E+00  1.50000000E+00
  1.20000000E+00  1.20000000E+00  1.50000000E+00  1.20000000E+00  1.20000000E+00
  1.50000000E+00  1.20000000E+00  1.20000000E+00  1.50000000E+00  1.20000000E+00
  1.20000000E+00  1.50000000E+00  1.20000000E+00  1.20000000E+00  1.50000000E+00
  1.20000000E+00  1.20000000E+00  1.50000000E+00  1.20000000E+00  1.20000000E+00
  1.50000000E+00  1.20000000E+00  1.20000000E+00  1.50000000E+00  1.20000000E+00
  1.20000000E+00  1.50000000E+00  1.20000000E+00  1.20000000E+00  1.50000000E+00
  1.20000000E+00  1.20000000E+00  1.50000000E+00  1.20000000E+00  1.20000000E+00
  1.50000000E+00  1.20000000E+00  1.20000000E+00  1.50000000E+00  1.20000000E+00
  1.20000000E+00  1.50000000E+00  1.20000000E+00  1.20000000E+00  1.50000000E+00
  1.20000000E+00  1.20000000E+00  1.50000000E+00  1.20000000E+00  1.20000000E+00
  1.50000000E+00  1.20000000E+00  1.20000000E+00  1.50000000E+00  1.20000000E+00
  1.20000000E+00  1.50000000E+00  1.20000000E+00  1.20000000E+00  1.50000000E+00
  1.20000000E+00  1.20000000E+00  1.50000000E+00  1.20000000E+00  1.20000000E+00
  1.50000000E+00  1.20000000E+00  1.20000000E+00  1.50000000E+00  1.20000000E+00
  1.20000000E+00  1.50000000E+00  1.20000000E+00  1.20000000E+00  1.50000000E+00
  1.20000000E+00  1.20000000E+00  1.50000000E+00  1.20000000E+00  1.20000000E+00
  1.50000000E+00  1.20000000E+00  1.20000000E+00  1.50000000E+00  1.20000000E+00
  1.20000000E+00  1.50000000E+00  1.20000000E+00  1.20000000E+00  1.50000000E+00
  1.20000000E+00  1.20000000E+00  1.50000000E+00  1.20000000E+00  1.20000000E+00
  1.50000000E+00  1.20000000E+00  1.20000000E+00  1.50000000E+00  1.20000000E+00
  1.20000000E+00  1.50000000E+00  1.20000000E+00  1.20000000E+00  1.50000000E+00
  1.20000000E+00  1.20000000E+00  1.50000000E+00  1.20000000E+00  1.20000000E+00
  1.50000000E+00  1.20000000E+00  1.20000000E+00  1.50000000E+00  1.20000000E+00
  1.20000000E+00  1.50000000E+00  1.20000000E+00  1.20000000E+00  1.50000000E+00
  1.20000000E+00  1.20000000E+00  1.50000000E+00  1.20000000E+00  1.20000000E+00
  1.50000000E+00  1.20000000E+00  1.20000000E+00  1.50000000E+00  1.20000000E+00
  1.20000000E+00  1.50000000E+00  1.20000000E+00  1.20000000E+00  1.50000000E+00
  1.20000000E+00  1.20000000E+00  1.50000000E+00  1.20000000E+00  1.20000000E+00
  1.50000000E+00  1.20000000E+00  1.20000000E+00  1.50000000E+00  1.20000000E+00
  1.20000000E+00  1.50000000E+00  1.20000000E+00  1.20000000E+00  1.50000000E+00
  1.20000000E+00  1.20000000E+00  1.50000000E+00  1.20000000E+00  1.20000000E+00
  1.50000000E+00  1.20000000E+00  1.20000000E+00  1.50000000E+00  1.20000000E+00
  1.20000000E+00  1.50000000E+00  1.20000000E+00  1.20000000E+00  1.50000000E+00
  1.20000000E+00  1.20000000E+00  1.50000000E+00  1.20000000E+00  1.20000000E+00
  1.50000000E+00  1.20000000E+00  1.20000000E+00  1.50000000E+00  1.20000000E+00
  1.20000000E+00  1.50000000E+00  1.20000000E+00  1.20000000E+00  1.50000000E+00
  1.20000000E+00  1.20000000E+00  1.50000000E+00  1.20000000E+00  1.20000000E+00
  1.50000000E+00  1.20000000E+00  1.20000000E+00  1.50000000E+00  1.20000000E+00
  1.20000000E+00  1.50000000E+00  1.20000000E+00  1.20000000E+00  1.50000000E+00
  1.20000000E+00  1.20000000E+00  1.50000000E+00  1.20000000E+00  1.20000000E+00
  1.50000000E+00  1.20000000E+00  1.20000000E+00  1.50000000E+00  1.20000000E+00
  1.20000000E+00  1.50000000E+00  1.20000000E+00  1.20000000E+00  1.50000000E+00
  1.20000000E+00  1.20000000E+00  1.50000000E+00  1.20000000E+00  1.20000000E+00
  1.50000000E+00  1.20000000E+00  1.20000000E+00  1.50000000E+00  1.20000000E+00
  1.20000000E+00  1.50000000E+00  1.20000000E+00  1.20000000E+00  1.50000000E+00
  1.20000000E+00  1.20000000E+00  1.50000000E+00  1.20000000E+00  1.20000000E+00
  1.50000000E+00  1.20000000E+00  1.20000000E+00  1.50000000E+00  1.20000000E+00
  1.20000000E+00  1.50000000E+00  1.20000000E+00  1.20000000E+00  1.50000000E+00
  1.20000000E+00  1.20000000E+00  1.50000000E+00  1.20000000E+00  1.20000000E+00
  1.50000000E+00  1.20000000E+00  1.20000000E+00  1.50000000E+00  1.20000000E+00
  1.20000000E+00  1.50000000E+00  1.20000000E+00  1.20000000E+00  1.50000000E+00
  1.20000000E+00  1.20000000E+00  1.50000000E+00  1.20000000E+00  1.20000000E+00
  1.50000000E+00  1.20000000E+00  1.20000000E+00  1.50000000E+00  1.20000000E+00
  1.20000000E+00  1.50000000E+00  1.20000000E+00  1.20000000E+00  1.50000000E+00
  1.20000000E+00  1.20000000E+00  1.50000000E+00  1.20000000E+00  1.20000000E+00
  1.50000000E+00  1.20000000E+00  1.20000000E+00  1.50000000E+00  1.20000000E+00
  1.20000000E+00  1.50000000E+00  1.20000000E+00  1.20000000E+00  1.50000000E+00
  1.20000000E+00  1.20000000E+00  1.50000000E+00  1.20000000E+00  1.20000000E+00
  1.50000000E+00  1.20000000E+00  1.20000000E+00  1.50000000E+00  1.20000000E+00
  1.20000000E+00  1.50000000E+00  1.20000000E+00  1.20000000E+00  1.50000000E+00
  1.20000000E+00  1.20000000E+00  1.50000000E+00  1.20000000E+00  1.20000000E+00
  1.50000000E+00  1.20000000E+00  1.20000000E+00  1.50000000E+00  1.20000000E+00
  1.20000000E+00  1.50000000E+00  1.20000000E+00  1.20000000E+00  1.50000000E+00
  1.20000000E+00  1.20000000E+00  1.50000000E+00  1.20000000E+00  1.20000000E+00
  1.50000000E+00  1.20000000E+00  1.20000000E+00  1.50000000E+00  1.20000000E+00
  1.20000000E+00  1.50000000E+00  1.20000000E+00  1.20000000E+00  1.50000000E+00
  1.20000000E+00  1.20000000E+00  1.50000000E+00  1.20000000E+00  1.20000000E+00
  1.50000000E+00  1.20000000E+00  1.20000000E+00  1.50000000E+00  1.20000000E+00
  1.20000000E+00  1.50000000E+00  1.20000000E+00  1.20000000E+00  1.50000000E+00
  1.20000000E+00  1.20000000E+00  1.50000000E+00  1.20000000E+00  1.20000000E+00
  1.50000000E+00  1.20000000E+00  1.20000000E+00  1.50000000E+00  1.20000000E+00
  1.20000000E+00  1.50000000E+00  1.20000000E+00  1.20000000E+00  1.50000000E+00
  1.20000000E+00  1.20000000E+00  1.50000000E+00  1.20000000E+00  1.20000000E+00
  1.50000000E+00  1.20000000E+00  1.20000000E+00  1.50000000E+00  1.20000000E+00
  1.20000000E+00  1.50000000E+00  1.20000000E+00  1.20000000E+00  1.50000000E+00
  1.20000000E+00  1.20000000E+00  1.50000000E+00  1.20000000E+00  1.20000000E+00
  1.50000000E+00  1.20000000E+00  1.20000000E+00  1.50000000E+00  1.20000000E+00
  1.20000000E+00  1.50000000E+00  1.20000000E+00  1.20000000E+00  1.50000000E+00
  1.20000000E+00  1.20000000E+00  1.50000000E+00  1.20000000E+00  1.20000000E+00
  1.50000000E+00  1.20000000E+00  1.20000000E+00  1.50000000E+00  1.20000000E+00
  1.20000000E+00  1.50000000E+00  1.20000000E+00  1.20000000E+00  1.50000000E+00
  1.20000000E+00  1.20000000E+00  1.50000000E+00  1.20000000E+00  1.20000000E+00
  1.50000000E+00  1.20000000E+00  1.20000000E+00  1.50000000E+00  1.20000000E+00
  1.20000000E+00  1.50000000E+00  1.20000000E+00  1.20000000E+00  1.50000000E+00
  1.20000000E+00  1.20000000E+00  1.50000000E+00  1.20000000E+00  1.20000000E+00
  1.50000000E+00  1.20000000E+00  1.20000000E+00  1.50000000E+00  1.20000000E+00
  1.20000000E+00  1.50000000E+00  1.20000000E+00  1.20000000E+00  1.50000000E+00
  1.20000000E+00  1.20000000E+00  1.50000000E+00  1.20000000E+00  1.20000000E+00
  1.50000000E+00  1.20000000E+00  1.20000000E+00  1.50000000E+00  1.20000000E+00
  1.20000000E+00  1.50000000E+00  1.20000000E+00  1.20000000E+00  1.50000000E+00
  1.20000000E+00  1.20000000E+00  1.50000000E+00  1.20000000E+00  1.20000000E+00
  1.50000000E+00  1.20000000E+00  1.20000000E+00  1.50000000E+00  1.20000000E+00
  1.20000000E+00  1.50000000E+00  1.20000000E+00  1.20000000E+00  1.50000000E+00
  1.20000000E+00  1.20000000E+00  1.50000000E+00  1.20000000E+00  1.20000000E+00
  1.50000000E+00  1.20000000E+00  1.20000000E+00  1.50000000E+00  1.20000000E+00
  1.20000000E+00  1.50000000E+00  1.20000000E+00  1.20000000E+00  1.50000000E+00
  1.20000000E+00  1.20000000E+00  1.50000000E+00  1.20000000E+00  1.20000000E+00
  1.50000000E+00  1.20000000E+00  1.20000000E+00  1.50000000E+00  1.20000000E+00
  1.20000000E+00  1.50000000E+00  1.20000000E+00  1.20000000E+00  1.50000000E+00
  1.20000000E+00  1.20000000E+00  1.50000000E+00  1.20000000E+00  1.20000000E+00
  1.50000000E+00  1.20000000E+00  1.20000000E+00  1.50000000E+00  1.20000000E+00
  1.20000000E+00  1.50000000E+00  1.20000000E+00  1.20000000E+00  1.50000000E+00
  1.20000000E+00  1.20000000E+00  1.50000000E+00  1.20000000E+00  1.20000000E+00
  1.50000000E+00  1.20000000E+00  1.20000000E+00  1.50000000E+00  1.20000000E+00
  1.20000000E+00  1.50000000E+00  1.20000000E+00  1.20000000E+00  1.50000000E+00
  1.20000000E+00  1.20000000E+00  1.50000000E+00  1.20000000E+00  1.20000000E+00
  1.50000000E+00  1.20000000E+00  1.20000000E+00  1.50000000E+00  1.20000000E+00
  1.20000000E+00  1.50000000E+00  1.20000000E+00  1.20000000E+00  1.50000000E+00
  1.20000000E+00  1.20000000E+00  1.50000000E+00  1.20000000E+00  1.20000000E+00
  1.50000000E+00  1.20000000E+00  1.20000000E+00  1.50000000E+00  1.20000000E+00
  1.20000000E+00  1.50000000E+00  1.20000000E+00  1.20000000E+00  1.50000000E+00
  1.20000000E+00  1.20000000E+00  1.50000000E+00  1.20000000E+00  1.20000000E+00
  1.50000000E+00  1.20000000E+00  1.20000000E+00  1.50000000E+00  1.20000000E+00
  1.20000000E+00  1.50000000E+00  1.20000000E+00  1.20000000E+00  1.50000000E+00
  1.20000000E+00  1.20000000E+00  1.50000000E+00  1.20000000E+00  1.20000000E+00
  1.50000000E+00  1.20000000E+00  1.20000000E+00  1.50000000E+00  1.20000000E+00
  1.20000000E+00  1.50000000E+00  1.20000000E+00  1.20000000E+00  1.50000000E+00
  1.20000000E+00  1.20000000E+00  1.50000000E+00  1.20000000E+00  1.20000000E+00
  1.50000000E+00  1.20000000E+00  1.20000000E+00  1.50000000E+00  1.20000000E+00
  1.20000000E+00  1.50000000E+00  1.20000000E+00  1.20000000E+00  1.50000000E+00
  1.20000000E+00  1.20000000E+00  1.50000000E+00  1.20000000E+00  1.20000000E+00
  1.50000000E+00  1.20000000E+00  1.20000000E+00  1.50000000E+00  1.20000000E+00
  1.20000000E+00  1.50000000E+00  1.20000000E+00  1.20000000E+00  1.50000000E+00
  1.20000000E+00  1.20000000E+00  1.50000000E+00  1.20000000E+00  1.20000000E+00
  1.50000000E+00  1.20000000E+00  1.20000000E+00  1.50000000E+00  1.20000000E+00
  1.20000000E+00  1.50000000E+00  1.20000000E+00  1.20000000E+00  1.50000000E+00
  1.20000000E+00  1.20000000E+00  1.50000000E+00  1.20000000E+00  1.20000000E+00
  1.50000000E+00  1.20000000E+00  1.20000000E+00  1.50000000E+00  1.20000000E+00
  1.20000000E+00  1.50000000E+00  1.20000000E+00  1.20000000E+00  1.50000000E+00
  1.20000000E+00  1.20000000E+00  1.50000000E+00  1.20000000E+00  1.20000000E+00
  1.50000000E+00  1.20000000E+00  1.20000000E+00  1.50000000E+00  1.20000000E+00
  1.20000000E+00  1.50000000E+00  1.20000000E+00  1.20000000E+00  1.50000000E+00
  1.20000000E+00  1.20000000E+00  1.50000000E+00  1.20000000E+00  1.20000000E+00
  1.50000000E+00  1.20000000E+00  1.20000000E+00  1.50000000E+00  1.20000000E+00
  1.20000000E+00  1.50000000E+00  1.20000000E+00  1.20000000E+00  1.50000000E+00
  1.20000000E+00  1.20000000E+00  1.50000000E+00  1.20000000E+00  1.20000000E+00
  1.50000000E+00  1.20000000E+00  1.20000000E+00  1.50000000E+00  1.20000000E+00
  1.20000000E+00  1.50000000E+00  1.20000000E+00  1.20000000E+00  1.50000000E+00
  1.20000000E+00  1.20000000E+00  1.50000000E+00  1.20000000E+00  1.20000000E+00
  1.50000000E+00  1.20000000E+00  1.20000000E+00  1.50000000E+00  1.20000000E+00
  1.20000000E+00  1.50000000E+00  1.20000000E+00  1.20000000E+00  1.50000000E+00
  1.20000000E+00  1.20000000E+00  1.50000000E+00  1.20000000E+00  1.20000000E+00
  1.50000000E+00  1.20000000E+00  1.20000000E+00  1.50000000E+00  1.20000000E+00
  1.20000000E+00  1.50000000E+00  1.20000000E+00  1.20000000E+00  1.50000000E+00
  1.20000000E+00  1.20000000E+00  1.50000000E+00  1.20000000E+00  1.20000000E+00
  1.50000000E+00  1.20000000E+00  1.20000000E+00  1.50000000E+00  1.20000000E+00
  1.20000000E+00  1.50000000E+00  1.20000000E+00  1.20000000E+00  1.50000000E+00
  1.20000000E+00  1.20000000E+00  1.50000000E+00  1.20000000E+00  1.20000000E+00
  1.50000000E+00  1.20000000E+00  1.20000000E+00  1.50000000E+00  1.20000000E+00
  1.20000000E+00  1.50000000E+00  1.20000000E+00  1.20000000E+00  1.50000000E+00
  1.20000000E+00  1.20000000E+00  1.50000000E+00  1.20000000E+00  1.20000000E+00
  1.50000000E+00  1.20000000E+00  1.20000000E+00  1.50000000E+00  1.20000000E+00
  1.20000000E+00  1.50000000E+00  1.20000000E+00  1.20000000E+00  1.50000000E+00
  1.20000000E+00  1.20000000E+00  1.50000000E+00  1.20000000E+00  1.20000000E+00
  1.50000000E+00  1.20000000E+00  1.20000000E+00  1.50000000E+00  1.20000000E+00
  1.20000000E+00  1.50000000E+00  1.20000000E+00  1.20000000E+00  1.50000000E+00
  1.20000000E+00  1.20000000E+00  1.50000000E+00  1.20000000E+00  1.20000000E+00
  1.50000000E+00  1.20000000E+00  1.20000000E+00  1.50000000E+00  1.20000000E+00
  1.20000000E+00  1.50000000E+00  1.20000000E+00  1.20000000E+00  1.50000000E+00
  1.20000000E+00  1.20000000E+00  1.50000000E+00  1.20000000E+00  1.20000000E+00
  1.50000000E+00  1.20000000E+00  1.20000000E+00  1.50000000E+00  1.20000000E+00
  1.20000000E+00  1.50000000E+00  1.20000000E+00  1.20000000E+00  1.50000000E+00
  1.20000000E+00  1.20000000E+00  1.50000000E+00  1.20000000E+00  1.20000000E+00
  1.50000000E+00  1.20000000E+00  1.20000000E+00  1.50000000E+00  1.20000000E+00
  1.20000000E+00  1.50000000E+00  1.20000000E+00  1.20000000E+00  1.50000000E+00
  1.20000000E+00  1.20000000E+00  1.50000000E+00  1.20000000E+00  1.20000000E+00
  1.50000000E+00  1.20000000E+00  1.20000000E+00  1.50000000E+00  1.20000000E+00
  1.20000000E+00  1.50000000E+00  1.20000000E+00  1.20000000E+00  1.50000000E+00
  1.20000000E+00  1.20000000E+00  1.50000000E+00  1.20000000E+00  1.20000000E+00
  1.50000000E+00  1.20000000E+00  1.20000000E+00  1.50000000E+00  1.20000000E+00
  1.20000000E+00  1.50000000E+00  1.20000000E+00  1.20000000E+00  1.50000000E+00
  1.20000000E+00  1.20000000E+00  1.50000000E+00  1.20000000E+00  1.20000000E+00
  1.50000000E+00  1.20000000E+00  1.20000000E+00  1.50000000E+00  1.20000000E+00
  1.20000000E+00  1.50000000E+00  1.20000000E+00  1.20000000E+00  1.50000000E+00
  1.20000000E+00  1.20000000E+00  1.50000000E+00  1.20000000E+00  1.20000000E+00
  1.50000000E+00  1.20000000E+00  1.20000000E+00  1.50000000E+00  1.20000000E+00
  1.20000000E+00  1.50000000E+00  1.20000000E+00  1.20000000E+00  1.50000000E+00
  1.20000000E+00  1.20000000E+00  1.50000000E+00  1.20000000E+00  1.20000000E+00
  1.50000000E+00  1.20000000E+00  1.20000000E+00  1.50000000E+00  1.20000000E+00
  1.20000000E+00  1.50000000E+00  1.20000000E+00  1.20000000E+00  1.50000000E+00
  1.20000000E+00  1.20000000E+00  1.50000000E+00  1.20000000E+00  1.20000000E+00
  1.50000000E+00  1.20000000E+00  1.20000000E+00  1.50000000E+00  1.20000000E+00
  1.20000000E+00  1.50000000E+00  1.20000000E+00  1.20000000E+00  1.50000000E+00
  1.20000000E+00  1.20000000E+00  1.50000000E+00  1.20000000E+00  1.20000000E+00
  1.50000000E+00  1.20000000E+00  1.20000000E+00  1.50000000E+00  1.20000000E+00
  1.20000000E+00  1.50000000E+00  1.20000000E+00  1.20000000E+00  1.50000000E+00
  1.20000000E+00  1.20000000E+00  1.50000000E+00  1.20000000E+00  1.20000000E+00
  1.50000000E+00  1.20000000E+00  1.20000000E+00  1.50000000E+00  1.20000000E+00
  1.20000000E+00  1.50000000E+00  1.20000000E+00  1.20000000E+00  1.50000000E+00
  1.20000000E+00  1.20000000E+00  1.50000000E+00  1.20000000E+00  1.20000000E+00
  1.50000000E+00  1.20000000E+00  1.20000000E+00  1.50000000E+00  1.20000000E+00
  1.20000000E+00  1.50000000E+00  1.20000000E+00  1.20000000E+00  1.50000000E+00
  1.20000000E+00  1.20000000E+00  1.50000000E+00  1.20000000E+00  1.20000000E+00
  1.50000000E+00  1.20000000E+00  1.20000000E+00  1.50000000E+00  1.20000000E+00
  1.20000000E+00  1.50000000E+00  1.20000000E+00  1.20000000E+00  1.50000000E+00
  1.20000000E+00  1.20000000E+00  1.50000000E+00  1.20000000E+00  1.20000000E+00
  1.50000000E+00  1.20000000E+00  1.20000000E+00  1.50000000E+00  1.20000000E+00
  1.20000000E+00  1.50000000E+00  1.20000000E+00  1.20000000E+00  1.50000000E+00
  1.20000000E+00  1.20000000E+00  1.50000000E+00  1.20000000E+00  1.20000000E+00
  1.50000000E+00  1.20000000E+00  1.20000000E+00  1.50000000E+00  1.20000000E+00
  1.20000000E+00  1.50000000E+00  1.20000000E+00  1.20000000E+00  1.50000000E+00
  1.20000000E+00  1.20000000E+00  1.50000000E+00  1.20000000E+00  1.20000000E+00
  1.50000000E+00  1.20000000E+00  1.20000000E+00  1.50000000E+00  1.20000000E+00
  1.20000000E+00  1.50000000E+00  1.20000000E+00  1.20000000E+00  1.50000000E+00
  1.20000000E+00  1.20000000E+00  1.50000000E+00  1.20000000E+00  1.20000000E+00
  1.50000000E+00  1.20000000E+00  1.20000000E+00  1.50000000E+00  1.20000000E+00
  1.20000000E+00  1.50000000E+00  1.20000000E+00  1.20000000E+00  1.50000000E+00
  1.20000000E+00  1.20000000E+00  1.50000000E+00  1.20000000E+00  1.20000000E+00
  1.50000000E+00  1.20000000E+00  1.20000000E+00  1.50000000E+00  1.20000000E+00
  1.20000000E+00  1.50000000E+00  1.20000000E+00  1.20000000E+00  1.50000000E+00
  1.20000000E+00  1.20000000E+00  1.50000000E+00  1.20000000E+00  1.20000000E+00
  1.50000000E+00  1.20000000E+00  1.20000000E+00  1.50000000E+00  1.20000000E+00
  1.20000000E+00  1.50000000E+00  1.20000000E+00  1.20000000E+00  1.50000000E+00
  1.20000000E+00  1.20000000E+00  1.50000000E+00  1.20000000E+00  1.20000000E+00
  1.50000000E+00  1.20000000E+00  1.20000000E+00  1.50000000E+00  1.20000000E+00
  1.20000000E+00  1.50000000E+00  1.20000000E+00  1.20000000E+00  1.50000000E+00
  1.20000000E+00  1.20000000E+00  1.50000000E+00  1.20000000E+00  1.20000000E+00
  1.50000000E+00  1.20000000E+00  1.20000000E+00  1.50000000E+00  1.20000000E+00
  1.20000000E+00  1.50000000E+00  1.20000000E+00  1.20000000E+00  1.50000000E+00
  1.20000000E+00  1.20000000E+00  1.50000000E+00  1.20000000E+00  1.20000000E+00
  1.50000000E+00  1.20000000E+00  1.20000000E+00  1.50000000E+00  1.20000000E+00
  1.20000000E+00  1.50000000E+00  1.20000000E+00  1.20000000E+00  1.50000000E+00
  1.20000000E+00  1.20000000E+00  1.50000000E+00  1.20000000E+00  1.20000000E+00
  1.50000000E+00  1.20000000E+00  1.20000000E+00  1.50000000E+00  1.20000000E+00
  1.20000000E+00  1.50000000E+00  1.20000000E+00  1.20000000E+00  1.50000000E+00
  1.20000000E+00  1.20000000E+00  1.50000000E+00  1.20000000E+00  1.20000000E+00
  1.50000000E+00  1.20000000E+00  1.20000000E+00  1.50000000E+00  1.20000000E+00
  1.20000000E+00  1.50000000E+00  1.20000000E+00  1.20000000E+00  1.50000000E+00
  1.20000000E+00  1.20000000E+00  1.50000000E+00  1.20000000E+00  1.20000000E+00
  1.50000000E+00  1.20000000E+00  1.20000000E+00  1.50000000E+00  1.20000000E+00
  1.20000000E+00  1.50000000E+00  1.20000000E+00  1.20000000E+00  1.50000000E+00
  1.20000000E+00  1.20000000E+00  1.50000000E+00  1.20000000E+00  1.20000000E+00
  1.50000000E+00  1.20000000E+00  1.20000000E+00  1.50000000E+00  1.20000000E+00
  1.20000000E+00  1.50000000E+00  1.20000000E+00  1.20000000E+00  1.50000000E+00
  1.20000000E+00  1.20000000E+00  1.50000000E+00  1.20000000E+00  1.20000000E+00
  1.50000000E+00  1.20000000E+00  1.20000000E+00  1.50000000E+00  1.20000000E+00
  1.20000000E+00  1.50000000E+00  1.20000000E+00  1.20000000E+00  1.50000000E+00
  1.20000000E+00  1.20000000E+00  1.50000000E+00  1.20000000E+00  1.20000000E+00
  1.50000000E+00  1.20000000E+00  1.20000000E+00  1.50000000E+00  1.20000000E+00
  1.20000000E+00  1.50000000E+00  1.20000000E+00  1.20000000E+00  1.50000000E+00
  1.20000000E+00  1.20000000E+00  1.50000000E+00  1.20000000E+00  1.20000000E+00
  1.50000000E+00  1.20000000E+00  1.20000000E+00  1.50000000E+00  1.20000000E+00
  1.20000000E+00  1.50000000E+00  1.20000000E+00  1.20000000E+00  1.50000000E+00
  1.20000000E+00  1.20000000E+00  1.50000000E+00  1.20000000E+00  1.20000000E+00
  1.50000000E+00  1.20000000E+00  1.20000000E+00  1.50000000E+00  1.20000000E+00
  1.20000000E+00  1.50000000E+00  1.20000000E+00  1.20000000E+00  1.50000000E+00
  1.20000000E+00  1.20000000E+00  1.50000000E+00  1.20000000E+00  1.20000000E+00
  1.50000000E+00  1.20000000E+00  1.20000000E+00  1.50000000E+00  1.20000000E+00
  1.20000000E+00  1.50000000E+00  1.20000000E+00  1.20000000E+00  1.50000000E+00
  1.20000000E+00  1.20000000E+00  1.50000000E+00  1.20000000E+00  1.20000000E+00
  1.50000000E+00  1.20000000E+00  1.20000000E+00  1.50000000E+00  1.20000000E+00
  1.20000000E+00  1.50000000E+00  1.20000000E+00  1.20000000E+00  1.50000000E+00
  1.20000000E+00  1.20000000E+00  1.50000000E+00  1.20000000E+00  1.20000000E+00
  1.50000000E+00  1.20000000E+00  1.20000000E+00  1.50000000E+00  1.20000000E+00
  1.20000000E+00  1.50000000E+00  1.20000000E+00  1.20000000E+00  1.50000000E+00
  1.20000000E+00  1.20000000E+00  1.50000000E+00  1.20000000E+00  1.20000000E+00
  1.50000000E+00  1.20000000E+00  1.20000000E+00  1.50000000E+00  1.20000000E+00
  1.20000000E+00  1.50000000E+00  1.20000000E+00  1.20000000E+00  1.50000000E+00
  1.20000000E+00  1.20000000E+00  1.50000000E+00  1.20000000E+00  1.20000000E+00
  1.50000000E+00  1.20000000E+00  1.20000000E+00  1.50000000E+00  1.20000000E+00
  1.20000000E+00  1.50000000E+00  1.20000000E+00  1.20000000E+00  1.50000000E+00
  1.20000000E+00  1.20000000E+00  1.50000000E+00  1.20000000E+00  1.20000000E+00
  1.50000000E+00  1.20000000E+00  1.20000000E+00  1.50000000E+00  1.20000000E+00
  1.20000000E+00  1.50000000E+00  1.20000000E+00  1.20000000E+00  1.50000000E+00
  1.20000000E+00  1.20000000E+00  1.50000000E+00  1.20000000E+00  1.20000000E+00
  1.50000000E+00  1.20000000E+00  1.20000000E+00  1.50000000E+00  1.20000000E+00
  1.20000000E+00  1.50000000E+00  1.20000000E+00  1.20000000E+00  1.50000000E+00
  1.20000000E+00  1.20000000E+00  1.50000000E+00  1.20000000E+00  1.20000000E+00
  1.50000000E+00  1.20000000E+00  1.20000000E+00  1.50000000E+00  1.20000000E+00
  1.20000000E+00  1.50000000E+00  1.20000000E+00  1.20000000E+00  1.50000000E+00
  1.20000000E+00  1.20000000E+00  1.50000000E+00  1.20000000E+00  1.20000000E+00
  1.50000000E+00  1.20000000E+00  1.20000000E+00  1.50000000E+00  1.20000000E+00
  1.20000000E+00  1.50000000E+00  1.20000000E+00  1.20000000E+00  1.50000000E+00
  1.20000000E+00  1.20000000E+00  1.50000000E+00  1.20000000E+00  1.20000000E+00
  1.50000000E+00  1.20000000E+00  1.20000000E+00  1.50000000E+00  1.20000000E+00
  1.20000000E+00  1.50000000E+00  1.20000000E+00  1.20000000E+00  1.50000000E+00
  1.20000000E+00  1.20000000E+00  1.50000000E+00  1.20000000E+00  1.20000000E+00
  1.50000000E+00  1.20000000E+00  1.20000000E+00  1.50000000E+00  1.20000000E+00
  1.20000000E+00  1.50000000E+00  1.20000000E+00  1.20000000E+00  1.50000000E+00
  1.20000000E+00  1.20000000E+00  1.50000000E+00  1.20000000E+00  1.20000000E+00
  1.50000000E+00  1.20000000E+00  1.20000000E+00  1.50000000E+00  1.20000000E+00
  1.20000000E+00  1.50000000E+00  1.20000000E+00  1.20000000E+00  1.50000000E+00
  1.20000000E+00  1.20000000E+00  1.50000000E+00  1.20000000E+00  1.20000000E+00
  1.50000000E+00  1.20000000E+00  1.20000000E+00  1.50000000E+00  1.20000000E+00
  1.20000000E+00  1.50000000E+00  1.20000000E+00  1.20000000E+00  1.50000000E+00
  1.20000000E+00  1.20000000E+00  1.50000000E+00  1.20000000E+00  1.20000000E+00
  1.50000000E+00  1.20000000E+00  1.20000000E+00  1.50000000E+00  1.20000000E+00
  1.20000000E+00  1.50000000E+00  1.20000000E+00  1.20000000E+00  1.50000000E+00
  1.20000000E+00  1.20000000E+00  1.50000000E+00  1.20000000E+00  1.20000000E+00
  1.50000000E+00  1.20000000E+00  1.20000000E+00  1.50000000E+00  1.20000000E+00
  1.20000000E+00  1.50000000E+00  1.20000000E+00  1.20000000E+00  1.50000000E+00
  1.20000000E+00  1.20000000E+00  1.50000000E+00  1.20000000E+00  1.20000000E+00
  1.50000000E+00  1.20000000E+00  1.20000000E+00  1.50000000E+00  1.20000000E+00
  1.20000000E+00  1.50000000E+00  1.20000000E+00  1.20000000E+00  1.50000000E+00
  1.20000000E+00  1.20000000E+00  1.50000000E+00  1.20000000E+00  1.20000000E+00
  1.50000000E+00  1.20000000E+00  1.20000000E+00  1.50000000E+00  1.20000000E+00
  1.20000000E+00  1.50000000E+00  1.20000000E+00  1.20000000E+00  1.50000000E+00
  1.20000000E+00  1.20000000E+00  1.50000000E+00  1.20000000E+00  1.20000000E+00
  1.50000000E+00  1.20000000E+00  1.20000000E+00  1.50000000E+00  1.20000000E+00
  1.20000000E+00  1.50000000E+00  1.20000000E+00  1.20000000E+00  1.50000000E+00
  1.20000000E+00  1.20000000E+00  1.50000000E+00  1.20000000E+00  1.20000000E+00
  1.50000000E+00  1.20000000E+00  1.20000000E+00  1.50000000E+00  1.20000000E+00
  1.20000000E+00  1.50000000E+00  1.20000000E+00  1.20000000E+00  1.50000000E+00
  1.20000000E+00  1.20000000E+00  1.50000000E+00  1.20000000E+00  1.20000000E+00
  1.50000000E+00  1.20000000E+00  1.20000000E+00  1.50000000E+00  1.20000000E+00
  1.20000000E+00  1.50000000E+00  1.20000000E+00  1.20000000E+00  1.50000000E+00
  1.20000000E+00  1.20000000E+00  1.50000000E+00  1.20000000E+00  1.20000000E+00
  1.50000000E+00  1.20000000E+00  1.20000000E+00  1.50000000E+00  1.20000000E+00
  1.20000000E+00  1.50000000E+00  1.20000000E+00  1.20000000E+00  1.50000000E+00
  1.20000000E+00  1.20000000E+00  1.50000000E+00  1.20000000E+00  1.20000000E+00
  1.50000000E+00  1.20000000E+00  1.20000000E+00  1.50000000E+00  1.20000000E+00
  1.20000000E+00  1.50000000E+00  1.20000000E+00  1.20000000E+00  1.50000000E+00
  1.20000000E+00  1.20000000E+00  1.50000000E+00  1.20000000E+00  1.20000000E+00
  1.50000000E+00  1.20000000E+00  1.20000000E+00  1.50000000E+00  1.20000000E+00
  1.20000000E+00  1.50000000E+00  1.20000000E+00  1.20000000E+00  1.50000000E+00
  1.20000000E+00  1.20000000E+00  1.50000000E+00  1.20000000E+00  1.20000000E+00
  1.50000000E+00  1.20000000E+00  1.20000000E+00  1.50000000E+00  1.20000000E+00
  1.20000000E+00  1.50000000E+00  1.20000000E+00  1.20000000E+00  1.50000000E+00
  1.20000000E+00  1.20000000E+00  1.50000000E+00  1.20000000E+00  1.20000000E+00
  1.50000000E+00  1.20000000E+00  1.20000000E+00  1.50000000E+00  1.20000000E+00
  1.20000000E+00  1.50000000E+00  1.20000000E+00  1.20000000E+00  1.50000000E+00
  1.20000000E+00  1.20000000E+00  1.50000000E+00  1.20000000E+00  1.20000000E+00
  1.50000000E+00  1.20000000E+00  1.20000000E+00  1.50000000E+00  1.20000000E+00
  1.20000000E+00  1.50000000E+00  1.20000000E+00  1.20000000E+00  1.50000000E+00
  1.20000000E+00  1.20000000E+00  1.50000000E+00  1.20000000E+00  1.20000000E+00
  1.50000000E+00  1.20000000E+00  1.20000000E+00  1.50000000E+00  1.20000000E+00
  1.20000000E+00  1.50000000E+00  1.20000000E+00  1.20000000E+00  1.50000000E+00
  1.20000000E+00  1.20000000E+00  1.50000000E+00  1.20000000E+00  1.20000000E+00
  1.50000000E+00  1.20000000E+00  1.20000000E+00  1.50000000E+00  1.20000000E+00
  1.20000000E+00  1.50000000E+00  1.20000000E+00  1.20000000E+00  1.50000000E+00
  1.20000000E+00  1.20000000E+00  1.50000000E+00  1.20000000E+00  1.20000000E+00
  1.50000000E+00  1.20000000E+00  1.20000000E+00  1.50000000E+00  1.20000000E+00
  1.20000000E+00  1.50000000E+00  1.20000000E+00  1.20000000E+00  1.50000000E+00
  1.20000000E+00  1.20000000E+00  1.50000000E+00  1.20000000E+00  1.20000000E+00
  1.50000000E+00  1.20000000E+00  1.20000000E+00  1.50000000E+00  1.20000000E+00
  1.20000000E+00  1.50000000E+00  1.20000000E+00  1.20000000E+00  1.50000000E+00
  1.20000000E+00  1.20000000E+00  1.50000000E+00  1.20000000E+00  1.20000000E+00
  1.50000000E+00  1.20000000E+00  1.20000000E+00  1.50000000E+00  1.20000000E+00
  1.20000000E+00  1.50000000E+00  1.20000000E+00  1.20000000E+00  1.50000000E+00
  1.20000000E+00  1.20000000E+00  1.50000000E+00  1.20000000E+00  1.20000000E+00
  1.50000000E+00  1.20000000E+00  1.20000000E+00  1.50000000E+00  1.20000000E+00
  1.20000000E+00  1.50000000E+00  1.20000000E+00  1.20000000E+00  1.50000000E+00
  1.20000000E+00  1.20000000E+00  1.50000000E+00  1.20000000E+00  1.20000000E+00
  1.50000000E+00  1.20000000E+00  1.20000000E+00  1.50000000E+00  1.20000000E+00
  1.20000000E+00  1.50000000E+00  1.20000000E+00  1.20000000E+00  1.50000000E+00
  1.20000000E+00  1.20000000E+00  1.50000000E+00  1.20000000E+00  1.20000000E+00
  1.50000000E+00  1.20000000E+00  1.20000000E+00  1.50000000E+00  1.20000000E+00
  1.20000000E+00  1.50000000E+00  1.20000000E+00  1.20000000E+00  1.50000000E+00
  1.20000000E+00  1.20000000E+00  1.50000000E+00  1.20000000E+00  1.20000000E+00
  1.50000000E+00  1.20000000E+00  1.20000000E+00  1.50000000E+00  1.20000000E+00
  1.20000000E+00  1.50000000E+00  1.20000000E+00  1.20000000E+00  1.50000000E+00
  1.20000000E+00  1.20000000E+00  1.50000000E+00  1.20000000E+00  1.20000000E+00
  1.50000000E+00  1.20000000E+00  1.20000000E+00  1.50000000E+00  1.20000000E+00
  1.20000000E+00  1.50000000E+00  1.20000000E+00  1.20000000E+00  1.50000000E+00
  1.20000000E+00  1.20000000E+00  1.50000000E+00  1.20000000E+00  1.20000000E+00
  1.50000000E+00  1.20000000E+00  1.20000000E+00  1.50000000E+00  1.20000000E+00
  1.20000000E+00  1.50000000E+00  1.20000000E+00  1.20000000E+00  1.50000000E+00
  1.20000000E+00  1.20000000E+00  1.50000000E+00  1.20000000E+00  1.20000000E+00
  1.50000000E+00  1.20000000E+00  1.20000000E+00  1.50000000E+00  1.20000000E+00
  1.20000000E+00  1.50000000E+00  1.20000000E+00  1.20000000E+00  1.50000000E+00
  1.20000000E+00  1.20000000E+00  1.50000000E+00  1.20000000E+00  1.20000000E+00
  1.50000000E+00  1.20000000E+00  1.20000000E+00  1.50000000E+00  1.20000000E+00
  1.20000000E+00  1.50000000E+00  1.20000000E+00  1.20000000E+00  1.50000000E+00
  1.20000000E+00  1.20000000E+00  1.50000000E+00  1.20000000E+00  1.20000000E+00
  1.50000000E+00  1.20000000E+00  1.20000000E+00  1.50000000E+00  1.20000000E+00
  1.20000000E+00  1.50000000E+00  1.20000000E+00  1.20000000E+00  1.50000000E+00
  1.20000000E+00  1.20000000E+00  1.50000000E+00  1.20000000E+00  1.20000000E+00
  1.50000000E+00  1.20000000E+00  1.20000000E+00  1.50000000E+00  1.20000000E+00
  1.20000000E+00  1.50000000E+00  1.20000000E+00  1.20000000E+00  1.50000000E+00
  1.20000000E+00  1.20000000E+00  1.50000000E+00  1.20000000E+00  1.20000000E+00
  1.50000000E+00  1.20000000E+00  1.20000000E+00  1.50000000E+00  1.20000000E+00
  1.20000000E+00  1.50000000E+00  1.20000000E+00  1.20000000E+00  1.50000000E+00
  1.20000000E+00  1.20000000E+00  1.50000000E+00  1.20000000E+00  1.20000000E+00
  1.50000000E+00  1.20000000E+00  1.20000000E+00  1.50000000E+00  1.20000000E+00
  1.20000000E+00  1.50000000E+00  1.20000000E+00  1.20000000E+00  1.50000000E+00
  1.20000000E+00  1.20000000E+00  1.50000000E+00  1.20000000E+00  1.20000000E+00
  1.50000000E+00  1.20000000E+00  1.20000000E+00  1.50000000E+00  1.20000000E+00
  1.20000000E+00  1.50000000E+00  1.20000000E+00  1.20000000E+00  1.50000000E+00
  1.20000000E+00  1.20000000E+00  1.50000000E+00  1.20000000E+00  1.20000000E+00
  1.50000000E+00  1.20000000E+00  1.20000000E+00  1.50000000E+00  1.20000000E+00
  1.20000000E+00  1.50000000E+00  1.20000000E+00  1.20000000E+00  1.50000000E+00
  1.20000000E+00  1.20000000E+00  1.50000000E+00  1.20000000E+00  1.20000000E+00
  1.50000000E+00  1.20000000E+00  1.20000000E+00  1.50000000E+00  1.20000000E+00
  1.20000000E+00  1.50000000E+00  1.20000000E+00  1.20000000E+00  1.50000000E+00
  1.20000000E+00  1.20000000E+00  1.50000000E+00  1.20000000E+00  1.20000000E+00
  1.50000000E+00  1.20000000E+00  1.20000000E+00  1.50000000E+00  1.20000000E+00
  1.20000000E+00  1.50000000E+00  1.20000000E+00  1.20000000E+00  1.50000000E+00
  1.20000000E+00  1.20000000E+00  1.50000000E+00  1.20000000E+00  1.20000000E+00
  1.50000000E+00  1.20000000E+00  1.20000000E+00  1.50000000E+00  1.20000000E+00
  1.20000000E+00  1.50000000E+00  1.20000000E+00  1.20000000E+00  1.50000000E+00
  1.20000000E+00  1.20000000E+00  1.50000000E+00  1.20000000E+00  1.20000000E+00
  1.50000000E+00  1.20000000E+00  1.20000000E+00  1.50000000E+00  1.20000000E+00
  1.20000000E+00  1.50000000E+00  1.20000000E+00  1.20000000E+00  1.50000000E+00
  1.20000000E+00  1.20000000E+00  1.50000000E+00  1.20000000E+00  1.20000000E+00
  1.50000000E+00  1.20000000E+00  1.20000000E+00  1.50000000E+00  1.20000000E+00
  1.20000000E+00  1.50000000E+00  1.20000000E+00  1.20000000E+00  1.50000000E+00
  1.20000000E+00  1.20000000E+00  1.50000000E+00  1.20000000E+00  1.20000000E+00
  1.50000000E+00  1.20000000E+00  1.20000000E+00  1.50000000E+00  1.20000000E+00
  1.20000000E+00  1.50000000E+00  1.20000000E+00  1.20000000E+00  1.50000000E+00
  1.20000000E+00  1.20000000E+00  1.50000000E+00  1.20000000E+00  1.20000000E+00
  1.50000000E+00  1.20000000E+00  1.20000000E+00  1.50000000E+00  1.20000000E+00
  1.20000000E+00  1.50000000E+00  1.20000000E+00  1.20000000E+00  1.50000000E+00
  1.20000000E+00  1.20000000E+00  1.50000000E+00  1.20000000E+00  1.20000000E+00
  1.50000000E+00  1.20000000E+00  1.20000000E+00  1.50000000E+00  1.20000000E+00
  1.20000000E+00  1.50000000E+00  1.20000000E+00  1.20000000E+00  1.50000000E+00
  1.20000000E+00  1.20000000E+00  1.50000000E+00  1.20000000E+00  1.20000000E+00
  1.50000000E+00  1.20000000E+00  1.20000000E+00  1.50000000E+00  1.20000000E+00
  1.20000000E+00  1.50000000E+00  1.20000000E+00  1.20000000E+00  1.50000000E+00
  1.20000000E+00  1.20000000E+00  1.50000000E+00  1.20000000E+00  1.20000000E+00
  1.50000000E+00  1.20000000E+00  1.20000000E+00  1.50000000E+00  1.20000000E+00
  1.20000000E+00  1.50000000E+00  1.20000000E+00  1.20000000E+00  1.50000000E+00
  1.20000000E+00  1.20000000E+00  1.50000000E+00  1.20000000E+00  1.20000000E+00
  1.50000000E+00  1.20000000E+00  1.20000000E+00  1.50000000E+00  1.20000000E+00
  1.20000000E+00  1.50000000E+00  1.20000000E+00  1.20000000E+00  1.50000000E+00
  1.20000000E+00  1.20000000E+00  1.50000000E+00  1.20000000E+00  1.20000000E+00
  1.50000000E+00  1.20000000E+00  1.20000000E+00  1.50000000E+00  1.20000000E+00
  1.20000000E+00  1.50000000E+00  1.20000000E+00  1.20000000E+00  1.50000000E+00
  1.20000000E+00  1.20000000E+00  1.50000000E+00  1.20000000E+00  1.20000000E+00
  1.50000000E+00  1.20000000E+00  1.20000000E+00  1.50000000E+00  1.20000000E+00
  1.20000000E+00  1.50000000E+00  1.20000000E+00  1.20000000E+00  1.50000000E+00
  1.20000000E+00  1.20000000E+00  1.50000000E+00  1.20000000E+00  1.20000000E+00
  1.50000000E+00  1.20000000E+00  1.20000000E+00  1.50000000E+00  1.20000000E+00
  1.20000000E+00  1.50000000E+00  1.20000000E+00  1.20000000E+00  1.50000000E+00
  1.20000000E+00  1.20000000E+00  1.50000000E+00  1.20000000E+00  1.20000000E+00
  1.50000000E+00  1.20000000E+00  1.20000000E+00  1.50000000E+00  1.20000000E+00
  1.20000000E+00  1.50000000E+00  1.20000000E+00  1.20000000E+00  1.50000000E+00
  1.20000000E+00  1.20000000E+00  1.50000000E+00  1.20000000E+00  1.20000000E+00
  1.50000000E+00  1.20000000E+00  1.20000000E+00  1.50000000E+00  1.20000000E+00
  1.20000000E+00  1.50000000E+00  1.20000000E+00  1.20000000E+00  1.50000000E+00
  1.20000000E+00  1.20000000E+00  1.50000000E+00  1.20000000E+00  1.20000000E+00
  1.50000000E+00  1.20000000E+00  1.20000000E+00  1.50000000E+00  1.20000000E+00
  1.20000000E+00  1.50000000E+00  1.20000000E+00  1.20000000E+00  1.50000000E+00
  1.20000000E+00  1.20000000E+00  1.50000000E+00  1.20000000E+00  1.20000000E+00
  1.50000000E+00  1.20000000E+00  1.20000000E+00  1.50000000E+00  1.20000000E+00
  1.20000000E+00  1.50000000E+00  1.20000000E+00  1.20000000E+00  1.50000000E+00
  1.20000000E+00  1.20000000E+00  1.50000000E+00  1.20000000E+00  1.20000000E+00
  1.50000000E+00  1.20000000E+00  1.20000000E+00  1.50000000E+00  1.20000000E+00
  1.20000000E+00  1.50000000E+00  1.20000000E+00  1.20000000E+00  1.50000000E+00
  1.20000000E+00  1.20000000E+00  1.50000000E+00  1.20000000E+00  1.20000000E+00
  1.50000000E+00  1.20000000E+00  1.20000000E+00  1.50000000E+00  1.20000000E+00
  1.20000000E+00  1.50000000E+00  1.20000000E+00  1.20000000E+00  1.50000000E+00
  1.20000000E+00  1.20000000E+00  1.50000000E+00  1.20000000E+00  1.20000000E+00
  1.50000000E+00  1.20000000E+00  1.20000000E+00  1.50000000E+00  1.20000000E+00
  1.20000000E+00  1.50000000E+00  1.20000000E+00  1.20000000E+00  1.50000000E+00
  1.20000000E+00  1.20000000E+00  1.50000000E+00  1.20000000E+00  1.20000000E+00
  1.50000000E+00  1.20000000E+00  1.20000000E+00  1.50000000E+00  1.20000000E+00
  1.20000000E+00  1.50000000E+00  1.20000000E+00  1.20000000E+00  1.50000000E+00
  1.20000000E+00  1.20000000E+00  1.50000000E+00  1.20000000E+00  1.20000000E+00
  1.50000000E+00  1.20000000E+00  1.20000000E+00  1.50000000E+00  1.20000000E+00
  1.20000000E+00  1.50000000E+00  1.20000000E+00  1.20000000E+00  1.50000000E+00
  1.20000000E+00  1.20000000E+00  1.50000000E+00  1.20000000E+00  1.20000000E+00
  1.50000000E+00  1.20000000E+00  1.20000000E+00  1.50000000E+00  1.20000000E+00
  1.20000000E+00  1.50000000E+00  1.20000000E+00  1.20000000E+00  1.50000000E+00
  1.20000000E+00  1.20000000E+00  1.50000000E+00  1.20000000E+00  1.20000000E+00
  1.50000000E+00  1.20000000E+00  1.20000000E+00  1.50000000E+00  1.20000000E+00
  1.20000000E+00  1.50000000E+00  1.20000000E+00  1.20000000E+00  1.50000000E+00
  1.20000000E+00  1.20000000E+00  1.50000000E+00  1.20000000E+00  1.20000000E+00
  1.50000000E+00  1.20000000E+00  1.20000000E+00  1.50000000E+00  1.20000000E+00
  1.20000000E+00  1.50000000E+00  1.20000000E+00  1.20000000E+00  1.50000000E+00
  1.20000000E+00  1.20000000E+00  1.50000000E+00  1.20000000E+00  1.20000000E+00
  1.50000000E+00  1.20000000E+00  1.20000000E+00  1.50000000E+00  1.20000000E+00
  1.20000000E+00  1.50000000E+00  1.20000000E+00  1.20000000E+00  1.50000000E+00
  1.20000000E+00  1.20000000E+00  1.50000000E+00  1.20000000E+00  1.20000000E+00
  1.50000000E+00  1.20000000E+00  1.20000000E+00  1.50000000E+00  1.20000000E+00
  1.20000000E+00  1.50000000E+00  1.20000000E+00  1.20000000E+00  1.50000000E+00
  1.20000000E+00  1.20000000E+00  1.50000000E+00  1.20000000E+00  1.20000000E+00
  1.50000000E+00  1.20000000E+00  1.20000000E+00  1.50000000E+00  1.20000000E+00
  1.20000000E+00  1.50000000E+00  1.20000000E+00  1.20000000E+00  1.50000000E+00
  1.20000000E+00  1.20000000E+00  1.50000000E+00  1.20000000E+00  1.20000000E+00
  1.50000000E+00  1.20000000E+00  1.20000000E+00  1.50000000E+00  1.20000000E+00
  1.20000000E+00  1.50000000E+00  1.20000000E+00  1.20000000E+00  1.50000000E+00
  1.20000000E+00  1.20000000E+00  1.50000000E+00  1.20000000E+00  1.20000000E+00
  1.50000000E+00  1.20000000E+00  1.20000000E+00  1.50000000E+00  1.20000000E+00
  1.20000000E+00  1.50000000E+00  1.20000000E+00  1.20000000E+00  1.50000000E+00
  1.20000000E+00  1.20000000E+00  1.50000000E+00  1.20000000E+00  1.20000000E+00
  1.50000000E+00  1.20000000E+00  1.20000000E+00  1.50000000E+00  1.20000000E+00
  1.20000000E+00  1.50000000E+00  1.20000000E+00  1.20000000E+00  1.50000000E+00
  1.20000000E+00  1.20000000E+00  1.50000000E+00  1.20000000E+00  1.20000000E+00
  1.50000000E+00  1.20000000E+00  1.20000000E+00  1.50000000E+00  1.20000000E+00
  1.20000000E+00  1.50000000E+00  1.20000000E+00  1.20000000E+00  1.50000000E+00
  1.20000000E+00  1.20000000E+00  1.50000000E+00  1.20000000E+00  1.20000000E+00
  1.50000000E+00  1.20000000E+00  1.20000000E+00  1.50000000E+00  1.20000000E+00
  1.20000000E+00  1.50000000E+00  1.20000000E+00  1.20000000E+00  1.50000000E+00
  1.20000000E+00  1.20000000E+00  1.50000000E+00  1.20000000E+00  1.20000000E+00
  1.50000000E+00  1.20000000E+00  1.20000000E+00  1.50000000E+00  1.20000000E+00
  1.20000000E+00  1.50000000E+00  1.20000000E+00  1.20000000E+00  1.50000000E+00
  1.20000000E+00  1.20000000E+00  1.50000000E+00  1.20000000E+00  1.20000000E+00
  1.50000000E+00  1.20000000E+00  1.20000000E+00  1.50000000E+00  1.20000000E+00
  1.20000000E+00  1.50000000E+00  1.20000000E+00  1.20000000E+00  1.50000000E+00
  1.20000000E+00  1.20000000E+00  1.50000000E+00  1.20000000E+00  1.20000000E+00
  1.50000000E+00  1.20000000E+00  1.20000000E+00  1.50000000E+00  1.20000000E+00
  1.20000000E+00  1.50000000E+00  1.20000000E+00  1.20000000E+00  1.50000000E+00
  1.20000000E+00  1.20000000E+00  1.50000000E+00  1.20000000E+00  1.20000000E+00
  1.50000000E+00  1.20000000E+00  1.20000000E+00  1.50000000E+00  1.20000000E+00
  1.20000000E+00  1.50000000E+00  1.20000000E+00  1.20000000E+00  1.50000000E+00
  1.20000000E+00  1.20000000E+00  1.50000000E+00  1.20000000E+00  1.20000000E+00
  1.50000000E+00  1.20000000E+00  1.20000000E+00  1.50000000E+00  1.20000000E+00
  1.20000000E+00  1.50000000E+00  1.20000000E+00  1.20000000E+00  1.50000000E+00
  1.20000000E+00  1.20000000E+00  1.50000000E+00  1.20000000E+00  1.20000000E+00
  1.50000000E+00  1.20000000E+00  1.20000000E+00  1.50000000E+00  1.20000000E+00
  1.20000000E+00  1.50000000E+00  1.20000000E+00  1.20000000E+00  1.50000000E+00
  1.20000000E+00  1.20000000E+00  1.50000000E+00  1.20000000E+00  1.20000000E+00
  1.50000000E+00  1.20000000E+00  1.20000000E+00  1.50000000E+00  1.20000000E+00
  1.20000000E+00  1.50000000E+00  1.20000000E+00  1.20000000E+00  1.50000000E+00
  1.20000000E+00  1.20000000E+00  1.50000000E+00  1.20000000E+00  1.20000000E+00
  1.50000000E+00  1.20000000E+00  1.20000000E+00  1.50000000E+00  1.20000000E+00
  1.20000000E+00  1.50000000E+00  1.20000000E+00  1.20000000E+00  1.50000000E+00
  1.20000000E+00  1.20000000E+00  1.50000000E+00  1.20000000E+00  1.20000000E+00
  1.50000000E+00  1.20000000E+00  1.20000000E+00  1.50000000E+00  1.20000000E+00
  1.20000000E+00  1.50000000E+00  1.20000000E+00  1.20000000E+00  1.50000000E+00
  1.20000000E+00  1.20000000E+00  1.50000000E+00  1.20000000E+00  1.20000000E+00
  1.50000000E+00  1.20000000E+00  1.20000000E+00  1.50000000E+00  1.20000000E+00
  1.20000000E+00  1.50000000E+00  1.20000000E+00  1.20000000E+00  1.50000000E+00
  1.20000000E+00  1.20000000E+00  1.50000000E+00  1.20000000E+00  1.20000000E+00
  1.50000000E+00  1.20000000E+00  1.20000000E+00  1.50000000E+00  1.20000000E+00
  1.20000000E+00  1.50000000E+00  1.20000000E+00  1.20000000E+00  1.50000000E+00
  1.20000000E+00  1.20000000E+00  1.50000000E+00  1.20000000E+00  1.20000000E+00
  1.50000000E+00  1.20000000E+00  1.20000000E+00  1.50000000E+00  1.20000000E+00
  1.20000000E+00  1.50000000E+00  1.20000000E+00  1.20000000E+00  1.50000000E+00
  1.20000000E+00  1.20000000E+00  1.50000000E+00  1.20000000E+00  1.20000000E+00
  1.50000000E+00  1.20000000E+00  1.20000000E+00  1.50000000E+00  1.20000000E+00
  1.20000000E+00  1.50000000E+00  1.20000000E+00  1.20000000E+00  1.50000000E+00
  1.20000000E+00  1.20000000E+00  1.50000000E+00  1.20000000E+00  1.20000000E+00
  1.50000000E+00  1.20000000E+00  1.20000000E+00  1.50000000E+00  1.20000000E+00
  1.20000000E+00  1.50000000E+00  1.20000000E+00  1.20000000E+00  1.50000000E+00
  1.20000000E+00  1.20000000E+00  1.50000000E+00  1.20000000E+00  1.20000000E+00
  1.50000000E+00  1.20000000E+00  1.20000000E+00  1.50000000E+00  1.20000000E+00
  1.20000000E+00  1.50000000E+00  1.20000000E+00  1.20000000E+00  1.50000000E+00
  1.20000000E+00  1.20000000E+00  1.50000000E+00  1.20000000E+00  1.20000000E+00
  1.50000000E+00  1.20000000E+00  1.20000000E+00  1.50000000E+00  1.20000000E+00
  1.20000000E+00  1.50000000E+00  1.20000000E+00  1.20000000E+00  1.50000000E+00
  1.20000000E+00  1.20000000E+00  1.50000000E+00  1.20000000E+00  1.20000000E+00
  1.50000000E+00  1.20000000E+00  1.20000000E+00  1.50000000E+00  1.20000000E+00
  1.20000000E+00  1.50000000E+00  1.20000000E+00  1.20000000E+00  1.50000000E+00
  1.20000000E+00  1.20000000E+00  1.50000000E+00  1.20000000E+00  1.20000000E+00
  1.50000000E+00  1.20000000E+00  1.20000000E+00  1.50000000E+00  1.20000000E+00
  1.20000000E+00  1.50000000E+00  1.20000000E+00  1.20000000E+00  1.50000000E+00
  1.20000000E+00  1.20000000E+00  1.50000000E+00  1.20000000E+00  1.20000000E+00
  1.50000000E+00  1.20000000E+00  1.20000000E+00  1.50000000E+00  1.20000000E+00
  1.20000000E+00  1.50000000E+00  1.20000000E+00  1.20000000E+00  1.50000000E+00
  1.20000000E+00  1.20000000E+00  1.50000000E+00  1.20000000E+00  1.20000000E+00
  1.50000000E+00  1.20000000E+00  1.20000000E+00  1.50000000E+00  1.20000000E+00
  1.20000000E+00  1.50000000E+00  1.20000000E+00  1.20000000E+00  1.50000000E+00
  1.20000000E+00  1.20000000E+00  1.50000000E+00  1.20000000E+00  1.20000000E+00
  1.50000000E+00  1.20000000E+00  1.20000000E+00  1.50000000E+00  1.20000000E+00
  1.20000000E+00  1.50000000E+00  1.20000000E+00  1.20000000E+00  1.50000000E+00
  1.20000000E+00  1.20000000E+00  1.50000000E+00  1.20000000E+00  1.20000000E+00
  1.50000000E+00  1.20000000E+00  1.20000000E+00  1.50000000E+00  1.20000000E+00
  1.20000000E+00  1.50000000E+00  1.20000000E+00  1.20000000E+00  1.50000000E+00
  1.20000000E+00  1.20000000E+00  1.50000000E+00  1.20000000E+00  1.20000000E+00
  1.50000000E+00  1.20000000E+00  1.20000000E+00  1.50000000E+00  1.20000000E+00
  1.20000000E+00  1.50000000E+00  1.20000000E+00  1.20000000E+00  1.50000000E+00
  1.20000000E+00  1.20000000E+00  1.50000000E+00  1.20000000E+00  1.20000000E+00
  1.50000000E+00  1.20000000E+00  1.20000000E+00  1.50000000E+00  1.20000000E+00
  1.20000000E+00  1.50000000E+00  1.20000000E+00  1.20000000E+00  1.50000000E+00
  1.20000000E+00  1.20000000E+00  1.50000000E+00  1.20000000E+00  1.20000000E+00
  1.50000000E+00  1.20000000E+00  1.20000000E+00  1.50000000E+00  1.20000000E+00
  1.20000000E+00  1.50000000E+00  1.20000000E+00  1.20000000E+00  1.50000000E+00
  1.20000000E+00  1.20000000E+00  1.50000000E+00  1.20000000E+00  1.20000000E+00
  1.50000000E+00  1.20000000E+00  1.20000000E+00  1.50000000E+00  1.20000000E+00
  1.20000000E+00  1.50000000E+00  1.20000000E+00  1.20000000E+00  1.50000000E+00
  1.20000000E+00  1.20000000E+00  1.50000000E+00  1.20000000E+00  1.20000000E+00
  1.50000000E+00  1.20000000E+00  1.20000000E+00  1.50000000E+00  1.20000000E+00
  1.20000000E+00  1.50000000E+00  1.20000000E+00  1.20000000E+00  1.50000000E+00
  1.20000000E+00  1.20000000E+00  1.50000000E+00  1.20000000E+00  1.20000000E+00
  1.50000000E+00  1.20000000E+00  1.20000000E+00  1.50000000E+00  1.20000000E+00
  1.20000000E+00  1.50000000E+00  1.20000000E+00  1.20000000E+00  1.50000000E+00
  1.20000000E+00  1.20000000E+00  1.50000000E+00  1.20000000E+00  1.20000000E+00
  1.50000000E+00  1.20000000E+00  1.20000000E+00  1.50000000E+00  1.20000000E+00
  1.20000000E+00  1.50000000E+00  1.20000000E+00  1.20000000E+00  1.50000000E+00
  1.20000000E+00  1.20000000E+00  1.50000000E+00  1.20000000E+00  1.20000000E+00
  1.50000000E+00  1.20000000E+00  1.20000000E+00  1.50000000E+00  1.20000000E+00
  1.20000000E+00  1.50000000E+00  1.20000000E+00  1.20000000E+00  1.50000000E+00
  1.20000000E+00  1.20000000E+00  1.50000000E+00  1.20000000E+00  1.20000000E+00
  1.50000000E+00  1.20000000E+00  1.20000000E+00  1.50000000E+00  1.20000000E+00
  1.20000000E+00  1.50000000E+00  1.20000000E+00  1.20000000E+00  1.50000000E+00
  1.20000000E+00  1.20000000E+00  1.50000000E+00  1.20000000E+00  1.20000000E+00
  1.50000000E+00  1.20000000E+00  1.20000000E+00  1.50000000E+00  1.20000000E+00
  1.20000000E+00  1.50000000E+00  1.20000000E+00  1.20000000E+00  1.50000000E+00
  1.20000000E+00  1.20000000E+00  1.50000000E+00  1.20000000E+00  1.20000000E+00
  1.50000000E+00  1.20000000E+00  1.20000000E+00  1.50000000E+00  1.20000000E+00
  1.20000000E+00  1.50000000E+00  1.20000000E+00  1.20000000E+00  1.50000000E+00
  1.20000000E+00  1.20000000E+00  1.50000000E+00  1.20000000E+00  1.20000000E+00
  1.50000000E+00  1.20000000E+00  1.20000000E+00  1.50000000E+00  1.20000000E+00
  1.20000000E+00  1.50000000E+00  1.20000000E+00  1.20000000E+00  1.50000000E+00
  1.20000000E+00  1.20000000E+00  1.50000000E+00  1.20000000E+00  1.20000000E+00
  1.50000000E+00  1.20000000E+00  1.20000000E+00  1.50000000E+00  1.20000000E+00
  1.20000000E+00  1.50000000E+00  1.20000000E+00  1.20000000E+00  1.50000000E+00
  1.20000000E+00  1.20000000E+00  1.50000000E+00  1.20000000E+00  1.20000000E+00
  1.50000000E+00  1.20000000E+00  1.20000000E+00  1.50000000E+00  1.20000000E+00
  1.20000000E+00  1.50000000E+00  1.20000000E+00  1.20000000E+00  1.50000000E+00
  1.20000000E+00  1.20000000E+00  1.50000000E+00  1.20000000E+00  1.20000000E+00
  1.50000000E+00  1.20000000E+00  1.20000000E+00  1.50000000E+00  1.20000000E+00
  1.20000000E+00  1.50000000E+00  1.20000000E+00  1.20000000E+00  1.50000000E+00
  1.20000000E+00  1.20000000E+00  1.50000000E+00  1.20000000E+00  1.20000000E+00
  1.50000000E+00  1.20000000E+00  1.20000000E+00  1.50000000E+00  1.20000000E+00
  1.20000000E+00  1.50000000E+00  1.20000000E+00  1.20000000E+00  1.50000000E+00
  1.20000000E+00  1.20000000E+00  1.50000000E+00  1.20000000E+00  1.20000000E+00
  1.50000000E+00  1.20000000E+00  1.20000000E+00  1.50000000E+00  1.20000000E+00
  1.20000000E+00  1.50000000E+00  1.20000000E+00  1.20000000E+00  1.50000000E+00
  1.20000000E+00  1.20000000E+00  1.50000000E+00  1.20000000E+00  1.20000000E+00
  1.50000000E+00  1.20000000E+00  1.20000000E+00  1.50000000E+00  1.20000000E+00
  1.20000000E+00  1.50000000E+00  1.20000000E+00  1.20000000E+00  1.50000000E+00
  1.20000000E+00  1.20000000E+00  1.50000000E+00  1.20000000E+00  1.20000000E+00
  1.50000000E+00  1.20000000E+00  1.20000000E+00  1.50000000E+00  1.20000000E+00
  1.20000000E+00  1.50000000E+00  1.20000000E+00  1.20000000E+00  1.50000000E+00
  1.20000000E+00  1.20000000E+00  1.50000000E+00  1.20000000E+00  1.20000000E+00
  1.50000000E+00  1.20000000E+00  1.20000000E+00  1.50000000E+00  1.20000000E+00
  1.20000000E+00  1.50000000E+00  1.20000000E+00  1.20000000E+00  1.50000000E+00
  1.20000000E+00  1.20000000E+00  1.50000000E+00  1.20000000E+00  1.20000000E+00
  1.50000000E+00  1.20000000E+00  1.20000000E+00  1.50000000E+00  1.20000000E+00
  1.20000000E+00  1.50000000E+00  1.20000000E+00  1.20000000E+00  1.50000000E+00
  1.20000000E+00  1.20000000E+00  1.50000000E+00  1.20000000E+00  1.20000000E+00
  1.50000000E+00  1.20000000E+00  1.20000000E+00  1.50000000E+00  1.20000000E+00
  1.20000000E+00  1.50000000E+00  1.20000000E+00  1.20000000E+00  1.50000000E+00
  1.20000000E+00  1.20000000E+00  1.50000000E+00  1.20000000E+00  1.20000000E+00
  1.50000000E+00  1.20000000E+00  1.20000000E+00  1.50000000E+00  1.20000000E+00
  1.20000000E+00  1.50000000E+00  1.20000000E+00  1.20000000E+00  1.50000000E+00
  1.20000000E+00  1.20000000E+00  1.50000000E+00  1.20000000E+00  1.20000000E+00
  1.50000000E+00  1.20000000E+00  1.20000000E+00  1.50000000E+00  1.20000000E+00
  1.20000000E+00  1.50000000E+00  1.20000000E+00  1.20000000E+00  1.50000000E+00
  1.20000000E+00  1.20000000E+00  1.50000000E+00  1.20000000E+00  1.20000000E+00
  1.50000000E+00  1.20000000E+00  1.20000000E+00  1.50000000E+00  1.20000000E+00
  1.20000000E+00  1.50000000E+00  1.20000000E+00  1.20000000E+00  1.50000000E+00
  1.20000000E+00  1.20000000E+00  1.50000000E+00  1.20000000E+00  1.20000000E+00
  1.50000000E+00  1.20000000E+00  1.20000000E+00  1.50000000E+00  1.20000000E+00
  1.20000000E+00  1.50000000E+00  1.20000000E+00  1.20000000E+00  1.50000000E+00
  1.20000000E+00  1.20000000E+00  1.50000000E+00  1.20000000E+00  1.20000000E+00
  1.50000000E+00  1.20000000E+00  1.20000000E+00  1.50000000E+00  1.20000000E+00
  1.20000000E+00  1.50000000E+00  1.20000000E+00  1.20000000E+00  1.50000000E+00
  1.20000000E+00  1.20000000E+00  1.50000000E+00  1.20000000E+00  1.20000000E+00
  1.50000000E+00  1.20000000E+00  1.20000000E+00  1.50000000E+00  1.20000000E+00
  1.20000000E+00  1.50000000E+00  1.20000000E+00  1.20000000E+00  1.50000000E+00
  1.20000000E+00  1.20000000E+00  1.50000000E+00  1.20000000E+00  1.20000000E+00
  1.50000000E+00  1.20000000E+00  1.20000000E+00  1.50000000E+00  1.20000000E+00
  1.20000000E+00  1.50000000E+00  1.20000000E+00  1.20000000E+00  1.50000000E+00
  1.20000000E+00  1.20000000E+00  1.50000000E+00  1.20000000E+00  1.20000000E+00
  1.50000000E+00  1.20000000E+00  1.20000000E+00  1.50000000E+00  1.20000000E+00
  1.20000000E+00  1.50000000E+00  1.20000000E+00  1.20000000E+00  1.50000000E+00
  1.20000000E+00  1.20000000E+00  1.50000000E+00  1.20000000E+00  1.20000000E+00
  1.50000000E+00  1.20000000E+00  1.20000000E+00  1.50000000E+00  1.20000000E+00
  1.20000000E+00  1.50000000E+00  1.20000000E+00  1.20000000E+00  1.50000000E+00
  1.20000000E+00  1.20000000E+00  1.50000000E+00  1.20000000E+00  1.20000000E+00
  1.50000000E+00  1.20000000E+00  1.20000000E+00  1.50000000E+00  1.20000000E+00
  1.20000000E+00  1.50000000E+00  1.20000000E+00  1.20000000E+00  1.50000000E+00
  1.20000000E+00  1.20000000E+00  1.50000000E+00  1.20000000E+00  1.20000000E+00
  1.50000000E+00  1.20000000E+00  1.20000000E+00  1.50000000E+00  1.20000000E+00
  1.20000000E+00  1.50000000E+00  1.20000000E+00  1.20000000E+00  1.50000000E+00
  1.20000000E+00  1.20000000E+00  1.50000000E+00  1.20000000E+00  1.20000000E+00
  1.50000000E+00  1.20000000E+00  1.20000000E+00  1.50000000E+00  1.20000000E+00
  1.20000000E+00  1.50000000E+00  1.20000000E+00  1.20000000E+00  1.50000000E+00
  1.20000000E+00  1.20000000E+00  1.50000000E+00  1.20000000E+00  1.20000000E+00
  1.50000000E+00  1.20000000E+00  1.20000000E+00  1.50000000E+00  1.20000000E+00
  1.20000000E+00  1.50000000E+00  1.20000000E+00  1.20000000E+00  1.50000000E+00
  1.20000000E+00  1.20000000E+00  1.50000000E+00  1.20000000E+00  1.20000000E+00
  1.50000000E+00  1.20000000E+00  1.20000000E+00  1.50000000E+00  1.20000000E+00
  1.20000000E+00  1.50000000E+00  1.20000000E+00  1.20000000E+00  1.50000000E+00
  1.20000000E+00  1.20000000E+00  1.50000000E+00  1.20000000E+00  1.20000000E+00
  1.50000000E+00  1.20000000E+00  1.20000000E+00  1.50000000E+00  1.20000000E+00
  1.20000000E+00  1.50000000E+00  1.20000000E+00  1.20000000E+00  1.50000000E+00
  1.20000000E+00  1.20000000E+00  1.50000000E+00  1.20000000E+00  1.20000000E+00
  1.50000000E+00  1.20000000E+00  1.20000000E+00  1.50000000E+00  1.20000000E+00
  1.20000000E+00  1.50000000E+00  1.20000000E+00  1.20000000E+00  1.50000000E+00
  1.20000000E+00  1.20000000E+00  1.50000000E+00  1.20000000E+00  1.20000000E+00
  1.50000000E+00  1.20000000E+00  1.20000000E+00  1.50000000E+00  1.20000000E+00
  1.20000000E+00  1.50000000E+00  1.20000000E+00  1.20000000E+00  1.50000000E+00
  1.20000000E+00  1.20000000E+00  1.50000000E+00  1.20000000E+00  1.20000000E+00
  1.50000000E+00  1.20000000E+00  1.20000000E+00  1.50000000E+00  1.20000000E+00
  1.20000000E+00  1.50000000E+00  1.20000000E+00  1.20000000E+00  1.50000000E+00
  1.20000000E+00  1.20000000E+00  1.50000000E+00  1.20000000E+00  1.20000000E+00
  1.50000000E+00  1.20000000E+00  1.20000000E+00  1.50000000E+00  1.20000000E+00
  1.20000000E+00  1.50000000E+00  1.20000000E+00  1.20000000E+00  1.50000000E+00
  1.20000000E+00  1.20000000E+00  1.50000000E+00  1.20000000E+00  1.20000000E+00
  1.50000000E+00  1.20000000E+00  1.20000000E+00  1.50000000E+00  1.20000000E+00
  1.20000000E+00  1.50000000E+00  1.20000000E+00  1.20000000E+00  1.50000000E+00
  1.20000000E+00  1.20000000E+00  1.50000000E+00  1.20000000E+00  1.20000000E+00
  1.50000000E+00  1.20000000E+00  1.20000000E+00  1.50000000E+00  1.20000000E+00
  1.20000000E+00  1.50000000E+00  1.20000000E+00  1.20000000E+00  1.50000000E+00
  1.20000000E+00  1.20000000E+00  1.50000000E+00  1.20000000E+00  1.20000000E+00
  1.50000000E+00  1.20000000E+00  1.20000000E+00  1.50000000E+00  1.20000000E+00
  1.20000000E+00  1.50000000E+00  1.20000000E+00  1.20000000E+00  1.50000000E+00
  1.20000000E+00  1.20000000E+00  1.50000000E+00  1.20000000E+00  1.20000000E+00
  1.50000000E+00  1.20000000E+00  1.20000000E+00  1.50000000E+00  1.20000000E+00
  1.20000000E+00  1.50000000E+00  1.20000000E+00  1.20000000E+00  1.50000000E+00
  1.20000000E+00  1.20000000E+00  1.50000000E+00  1.20000000E+00  1.20000000E+00
  1.50000000E+00  1.20000000E+00  1.20000000E+00  1.50000000E+00  1.20000000E+00
  1.20000000E+00  1.50000000E+00  1.20000000E+00  1.20000000E+00  1.50000000E+00
  1.20000000E+00  1.20000000E+00  1.50000000E+00  1.20000000E+00  1.20000000E+00
  1.50000000E+00  1.20000000E+00  1.20000000E+00  1.50000000E+00  1.20000000E+00
  1.20000000E+00  1.50000000E+00  1.20000000E+00  1.20000000E+00  1.50000000E+00
  1.20000000E+00  1.20000000E+00  1.50000000E+00  1.20000000E+00  1.20000000E+00
  1.50000000E+00  1.20000000E+00  1.20000000E+00  1.50000000E+00  1.20000000E+00
  1.20000000E+00  1.50000000E+00  1.20000000E+00  1.20000000E+00  1.50000000E+00
  1.20000000E+00  1.20000000E+00  1.50000000E+00  1.20000000E+00  1.20000000E+00
  1.50000000E+00  1.20000000E+00  1.20000000E+00  1.50000000E+00  1.20000000E+00
  1.20000000E+00  1.50000000E+00  1.20000000E+00  1.20000000E+00  1.50000000E+00
  1.20000000E+00  1.20000000E+00  1.50000000E+00  1.20000000E+00  1.20000000E+00
  1.50000000E+00  1.20000000E+00  1.20000000E+00  1.50000000E+00  1.20000000E+00
  1.20000000E+00  1.50000000E+00  1.20000000E+00  1.20000000E+00  1.50000000E+00
  1.20000000E+00  1.20000000E+00  1.50000000E+00  1.20000000E+00  1.20000000E+00
  1.50000000E+00  1.20000000E+00  1.20000000E+00  1.50000000E+00  1.20000000E+00
  1.20000000E+00  1.50000000E+00  1.20000000E+00  1.20000000E+00  1.50000000E+00
  1.20000000E+00  1.20000000E+00  1.50000000E+00  1.20000000E+00  1.20000000E+00
  1.50000000E+00  1.20000000E+00  1.20000000E+00  1.50000000E+00  1.20000000E+00
  1.20000000E+00  1.50000000E+00  1.20000000E+00  1.20000000E+00  1.50000000E+00
  1.20000000E+00  1.20000000E+00  1.50000000E+00  1.20000000E+00  1.20000000E+00
  1.50000000E+00  1.20000000E+00  1.20000000E+00  1.50000000E+00  1.20000000E+00
  1.20000000E+00  1.50000000E+00  1.20000000E+00  1.20000000E+00  1.50000000E+00
  1.20000000E+00  1.20000000E+00  1.50000000E+00  1.20000000E+00  1.20000000E+00
  1.50000000E+00  1.20000000E+00  1.20000000E+00  1.50000000E+00  1.20000000E+00
  1.20000000E+00  1.50000000E+00  1.20000000E+00  1.20000000E+00  1.50000000E+00
  1.20000000E+00  1.20000000E+00  1.50000000E+00  1.20000000E+00  1.20000000E+00
  1.50000000E+00  1.20000000E+00  1.20000000E+00  1.50000000E+00  1.20000000E+00
  1.20000000E+00  1.50000000E+00  1.20000000E+00  1.20000000E+00  1.50000000E+00
  1.20000000E+00  1.20000000E+00  1.50000000E+00  1.20000000E+00  1.20000000E+00
  1.50000000E+00  1.20000000E+00  1.20000000E+00  1.50000000E+00  1.20000000E+00
  1.20000000E+00  1.50000000E+00  1.20000000E+00  1.20000000E+00  1.50000000E+00
  1.20000000E+00  1.20000000E+00  1.50000000E+00  1.20000000E+00  1.20000000E+00
  1.50000000E+00  1.20000000E+00  1.20000000E+00  1.50000000E+00  1.20000000E+00
  1.20000000E+00  1.50000000E+00  1.20000000E+00  1.20000000E+00  1.50000000E+00
  1.20000000E+00  1.20000000E+00  1.50000000E+00  1.20000000E+00  1.20000000E+00
  1.50000000E+00  1.20000000E+00  1.20000000E+00  1.50000000E+00  1.20000000E+00
  1.20000000E+00  1.50000000E+00  1.20000000E+00  1.20000000E+00  1.50000000E+00
  1.20000000E+00  1.20000000E+00  1.50000000E+00  1.20000000E+00  1.20000000E+00
  1.50000000E+00  1.20000000E+00  1.20000000E+00  1.50000000E+00  1.20000000E+00
  1.20000000E+00  1.50000000E+00  1.20000000E+00  1.20000000E+00  1.50000000E+00
  1.20000000E+00  1.20000000E+00  1.50000000E+00  1.20000000E+00  1.20000000E+00
  1.50000000E+00  1.20000000E+00  1.20000000E+00  1.50000000E+00  1.20000000E+00
  1.20000000E+00  1.50000000E+00  1.20000000E+00  1.20000000E+00  1.50000000E+00
  1.20000000E+00  1.20000000E+00  1.50000000E+00  1.20000000E+00  1.20000000E+00
  1.50000000E+00  1.20000000E+00  1.20000000E+00  1.50000000E+00  1.20000000E+00
  1.20000000E+00  1.50000000E+00  1.20000000E+00  1.20000000E+00  1.50000000E+00
  1.20000000E+00  1.20000000E+00  1.50000000E+00  1.20000000E+00  1.20000000E+00
  1.50000000E+00  1.20000000E+00  1.20000000E+00  1.50000000E+00  1.20000000E+00
  1.20000000E+00  1.50000000E+00  1.20000000E+00  1.20000000E+00  1.50000000E+00
  1.20000000E+00  1.20000000E+00  1.50000000E+00  1.20000000E+00  1.20000000E+00
  1.50000000E+00  1.20000000E+00  1.20000000E+00  1.50000000E+00  1.20000000E+00
  1.20000000E+00  1.50000000E+00  1.20000000E+00  1.20000000E+00  1.50000000E+00
  1.20000000E+00  1.20000000E+00  1.50000000E+00  1.20000000E+00  1.20000000E+00
  1.50000000E+00  1.20000000E+00  1.20000000E+00  1.50000000E+00  1.20000000E+00
  1.20000000E+00  1.50000000E+00  1.20000000E+00  1.20000000E+00  1.50000000E+00
  1.20000000E+00  1.20000000E+00  1.50000000E+00  1.20000000E+00  1.20000000E+00
  1.50000000E+00  1.20000000E+00  1.20000000E+00  1.50000000E+00  1.20000000E+00
  1.20000000E+00  1.50000000E+00  1.20000000E+00  1.20000000E+00  1.50000000E+00
  1.20000000E+00  1.20000000E+00  1.50000000E+00  1.20000000E+00  1.20000000E+00
  1.50000000E+00  1.20000000E+00  1.20000000E+00  1.50000000E+00  1.20000000E+00
  1.20000000E+00  1.50000000E+00  1.20000000E+00  1.20000000E+00  1.50000000E+00
  1.20000000E+00  1.20000000E+00  1.50000000E+00  1.20000000E+00  1.20000000E+00
  1.50000000E+00  1.20000000E+00  1.20000000E+00  1.50000000E+00  1.20000000E+00
  1.20000000E+00  1.50000000E+00  1.20000000E+00  1.20000000E+00  1.50000000E+00
  1.20000000E+00  1.20000000E+00  1.50000000E+00  1.20000000E+00  1.20000000E+00
  1.50000000E+00  1.20000000E+00  1.20000000E+00  1.50000000E+00  1.20000000E+00
  1.20000000E+00  1.50000000E+00  1.20000000E+00  1.20000000E+00  1.50000000E+00
  1.20000000E+00  1.20000000E+00  1.50000000E+00  1.20000000E+00  1.20000000E+00
  1.50000000E+00  1.20000000E+00  1.20000000E+00  1.50000000E+00  1.20000000E+00
  1.20000000E+00  1.50000000E+00  1.20000000E+00  1.20000000E+00  1.50000000E+00
  1.20000000E+00  1.20000000E+00  1.50000000E+00  1.20000000E+00  1.20000000E+00
  1.50000000E+00  1.20000000E+00  1.20000000E+00  1.50000000E+00  1.20000000E+00
  1.20000000E+00  1.50000000E+00  1.20000000E+00  1.20000000E+00  1.50000000E+00
  1.20000000E+00  1.20000000E+00  1.50000000E+00  1.20000000E+00  1.20000000E+00
  1.50000000E+00  1.20000000E+00  1.20000000E+00  1.50000000E+00  1.20000000E+00
  1.20000000E+00  1.50000000E+00  1.20000000E+00  1.20000000E+00  1.50000000E+00
  1.20000000E+00  1.20000000E+00  1.50000000E+00  1.20000000E+00  1.20000000E+00
  1.50000000E+00  1.20000000E+00  1.20000000E+00  1.50000000E+00  1.20000000E+00
  1.20000000E+00  1.50000000E+00  1.20000000E+00  1.20000000E+00  1.50000000E+00
  1.20000000E+00  1.20000000E+00  1.50000000E+00  1.20000000E+00  1.20000000E+00
  1.50000000E+00  1.20000000E+00  1.20000000E+00  1.50000000E+00  1.20000000E+00
  1.20000000E+00  1.50000000E+00  1.20000000E+00  1.20000000E+00  1.50000000E+00
  1.20000000E+00  1.20000000E+00  1.50000000E+00  1.20000000E+00  1.20000000E+00
  1.50000000E+00  1.20000000E+00  1.20000000E+00  1.50000000E+00  1.20000000E+00
  1.20000000E+00  1.50000000E+00  1.20000000E+00  1.20000000E+00  1.50000000E+00
  1.20000000E+00  1.20000000E+00  1.50000000E+00  1.20000000E+00  1.20000000E+00
  1.50000000E+00  1.20000000E+00  1.20000000E+00  1.50000000E+00  1.20000000E+00
  1.20000000E+00  1.50000000E+00  1.20000000E+00  1.20000000E+00  1.50000000E+00
  1.20000000E+00  1.20000000E+00  1.50000000E+00  1.20000000E+00  1.20000000E+00
  1.50000000E+00  1.20000000E+00  1.20000000E+00  1.50000000E+00  1.20000000E+00
  1.20000000E+00  1.50000000E+00  1.20000000E+00  1.20000000E+00  1.50000000E+00
  1.20000000E+00  1.20000000E+00  1.50000000E+00  1.20000000E+00  1.20000000E+00
  1.50000000E+00  1.20000000E+00  1.20000000E+00  1.50000000E+00  1.20000000E+00
  1.20000000E+00  1.50000000E+00  1.20000000E+00  1.20000000E+00  1.50000000E+00
  1.20000000E+00  1.20000000E+00  1.50000000E+00  1.20000000E+00  1.20000000E+00
  1.50000000E+00  1.20000000E+00  1.20000000E+00  1.50000000E+00  1.20000000E+00
  1.20000000E+00  1.50000000E+00  1.20000000E+00  1.20000000E+00  1.50000000E+00
  1.20000000E+00  1.20000000E+00  1.50000000E+00  1.20000000E+00  1.20000000E+00
  1.50000000E+00  1.20000000E+00  1.20000000E+00  1.50000000E+00  1.20000000E+00
  1.20000000E+00  1.50000000E+00  1.20000000E+00  1.20000000E+00  1.50000000E+00
  1.20000000E+00  1.20000000E+00  1.50000000E+00  1.20000000E+00  1.20000000E+00
  1.50000000E+00  1.20000000E+00  1.20000000E+00  1.50000000E+00  1.20000000E+00
  1.20000000E+00  1.50000000E+00  1.20000000E+00  1.20000000E+00  1.50000000E+00
  1.20000000E+00  1.20000000E+00  1.50000000E+00  1.20000000E+00  1.20000000E+00
  1.50000000E+00  1.20000000E+00  1.20000000E+00  1.50000000E+00  1.20000000E+00
  1.20000000E+00  1.50000000E+00  1.20000000E+00  1.20000000E+00  1.50000000E+00
  1.20000000E+00  1.20000000E+00  1.50000000E+00  1.20000000E+00  1.20000000E+00
  1.50000000E+00  1.20000000E+00  1.20000000E+00  1.50000000E+00  1.20000000E+00
  1.20000000E+00  1.50000000E+00  1.20000000E+00  1.20000000E+00  1.50000000E+00
  1.20000000E+00  1.20000000E+00  1.50000000E+00  1.20000000E+00  1.20000000E+00
  1.50000000E+00  1.20000000E+00  1.20000000E+00  1.50000000E+00  1.20000000E+00
  1.20000000E+00  1.50000000E+00  1.20000000E+00  1.20000000E+00  1.50000000E+00
  1.20000000E+00  1.20000000E+00  1.50000000E+00  1.20000000E+00  1.20000000E+00
  1.50000000E+00  1.20000000E+00  1.20000000E+00  1.50000000E+00  1.20000000E+00
  1.20000000E+00  1.50000000E+00  1.20000000E+00  1.20000000E+00  1.50000000E+00
  1.20000000E+00  1.20000000E+00  1.50000000E+00  1.20000000E+00  1.20000000E+00
  1.50000000E+00  1.20000000E+00  1.20000000E+00  1.50000000E+00  1.20000000E+00
  1.20000000E+00  1.50000000E+00  1.20000000E+00  1.20000000E+00  1.50000000E+00
  1.20000000E+00  1.20000000E+00  1.50000000E+00  1.20000000E+00  1.20000000E+00
  1.50000000E+00  1.20000000E+00  1.20000000E+00  1.50000000E+00  1.20000000E+00
  1.20000000E+00  1.50000000E+00  1.20000000E+00  1.20000000E+00  1.50000000E+00
  1.20000000E+00  1.20000000E+00  1.50000000E+00  1.20000000E+00  1.20000000E+00
  1.50000000E+00  1.20000000E+00  1.20000000E+00  1.50000000E+00  1.20000000E+00
  1.20000000E+00  1.50000000E+00  1.20000000E+00  1.20000000E+00  1.50000000E+00
  1.20000000E+00  1.20000000E+00  1.50000000E+00  1.20000000E+00  1.20000000E+00
  1.50000000E+00  1.20000000E+00  1.20000000E+00  1.50000000E+00  1.20000000E+00
  1.20000000E+00  1.50000000E+00  1.20000000E+00  1.20000000E+00  1.50000000E+00
  1.20000000E+00  1.20000000E+00  1.50000000E+00  1.20000000E+00  1.20000000E+00
  1.50000000E+00  1.20000000E+00  1.20000000E+00  1.50000000E+00  1.20000000E+00
  1.20000000E+00  1.50000000E+00  1.20000000E+00  1.20000000E+00  1.50000000E+00
  1.20000000E+00  1.20000000E+00  1.50000000E+00  1.20000000E+00  1.20000000E+00
  1.50000000E+00  1.20000000E+00  1.20000000E+00  1.50000000E+00  1.20000000E+00
  1.20000000E+00  1.50000000E+00  1.20000000E+00  1.20000000E+00  1.50000000E+00
  1.20000000E+00  1.20000000E+00  1.50000000E+00  1.20000000E+00  1.20000000E+00
  1.50000000E+00  1.20000000E+00  1.20000000E+00  1.50000000E+00  1.20000000E+00
  1.20000000E+00  1.50000000E+00  1.20000000E+00  1.20000000E+00  1.50000000E+00
  1.20000000E+00  1.20000000E+00  1.50000000E+00  1.20000000E+00  1.20000000E+00
  1.50000000E+00  1.20000000E+00  1.20000000E+00  1.50000000E+00  1.20000000E+00
  1.20000000E+00  1.50000000E+00  1.20000000E+00  1.20000000E+00  1.50000000E+00
  1.20000000E+00  1.20000000E+00  1.50000000E+00  1.20000000E+00  1.20000000E+00
  1.50000000E+00  1.20000000E+00  1.20000000E+00  1.50000000E+00  1.20000000E+00
  1.20000000E+00  1.50000000E+00  1.20000000E+00  1.20000000E+00  1.50000000E+00
  1.20000000E+00  1.20000000E+00  1.50000000E+00  1.20000000E+00  1.20000000E+00
  1.50000000E+00  1.20000000E+00  1.20000000E+00  1.50000000E+00  1.20000000E+00
  1.20000000E+00  1.50000000E+00  1.20000000E+00  1.20000000E+00  1.50000000E+00
  1.20000000E+00  1.20000000E+00  1.50000000E+00  1.20000000E+00  1.20000000E+00
  1.50000000E+00  1.20000000E+00  1.20000000E+00  1.50000000E+00  1.20000000E+00
  1.20000000E+00  1.50000000E+00  1.20000000E+00  1.20000000E+00  1.50000000E+00
  1.20000000E+00  1.20000000E+00  1.50000000E+00  1.20000000E+00  1.20000000E+00
  1.50000000E+00  1.20000000E+00  1.20000000E+00  1.50000000E+00  1.20000000E+00
  1.20000000E+00  1.50000000E+00  1.20000000E+00  1.20000000E+00  1.50000000E+00
  1.20000000E+00  1.20000000E+00  1.50000000E+00  1.20000000E+00  1.20000000E+00
  1.50000000E+00  1.20000000E+00  1.20000000E+00  1.50000000E+00  1.20000000E+00
  1.20000000E+00  1.50000000E+00  1.20000000E+00  1.20000000E+00  1.50000000E+00
  1.20000000E+00  1.20000000E+00  1.50000000E+00  1.20000000E+00  1.20000000E+00
  1.50000000E+00  1.20000000E+00  1.20000000E+00  1.50000000E+00  1.20000000E+00
  1.20000000E+00  1.50000000E+00  1.20000000E+00  1.20000000E+00  1.50000000E+00
  1.20000000E+00  1.20000000E+00  1.50000000E+00  1.20000000E+00  1.20000000E+00
  1.50000000E+00  1.20000000E+00  1.20000000E+00  1.50000000E+00  1.20000000E+00
  1.20000000E+00  1.50000000E+00  1.20000000E+00  1.20000000E+00  1.50000000E+00
  1.20000000E+00  1.20000000E+00  1.50000000E+00  1.20000000E+00  1.20000000E+00
  1.50000000E+00  1.20000000E+00  1.20000000E+00  1.50000000E+00  1.20000000E+00
  1.20000000E+00  1.50000000E+00  1.20000000E+00  1.20000000E+00  1.50000000E+00
  1.20000000E+00  1.20000000E+00  1.50000000E+00  1.20000000E+00  1.20000000E+00
  1.50000000E+00  1.20000000E+00  1.20000000E+00  1.50000000E+00  1.20000000E+00
  1.20000000E+00  1.50000000E+00  1.20000000E+00  1.20000000E+00  1.50000000E+00
  1.20000000E+00  1.20000000E+00  1.50000000E+00  1.20000000E+00  1.20000000E+00
  1.50000000E+00  1.20000000E+00  1.20000000E+00  1.50000000E+00  1.20000000E+00
  1.20000000E+00  1.50000000E+00  1.20000000E+00  1.20000000E+00  1.50000000E+00
  1.20000000E+00  1.20000000E+00  1.50000000E+00  1.20000000E+00  1.20000000E+00
  1.50000000E+00  1.20000000E+00  1.20000000E+00  1.50000000E+00  1.20000000E+00
  1.20000000E+00  1.50000000E+00  1.20000000E+00  1.20000000E+00  1.50000000E+00
  1.20000000E+00  1.20000000E+00  1.50000000E+00  1.20000000E+00  1.20000000E+00
  1.50000000E+00  1.20000000E+00  1.20000000E+00  1.50000000E+00  1.20000000E+00
  1.20000000E+00  1.50000000E+00  1.20000000E+00  1.20000000E+00  1.50000000E+00
  1.20000000E+00  1.20000000E+00  1.50000000E+00  1.20000000E+00  1.20000000E+00
  1.50000000E+00  1.20000000E+00  1.20000000E+00  1.50000000E+00  1.20000000E+00
  1.20000000E+00  1.50000000E+00  1.20000000E+00  1.20000000E+00  1.50000000E+00
  1.20000000E+00  1.20000000E+00  1.50000000E+00  1.20000000E+00  1.20000000E+00
  1.50000000E+00  1.20000000E+00  1.20000000E+00  1.50000000E+00  1.20000000E+00
  1.20000000E+00  1.50000000E+00  1.20000000E+00  1.20000000E+00  1.50000000E+00
  1.20000000E+00  1.20000000E+00  1.50000000E+00  1.20000000E+00  1.20000000E+00
  1.50000000E+00  1.20000000E+00  1.20000000E+00  1.50000000E+00  1.20000000E+00
  1.20000000E+00  1.50000000E+00  1.20000000E+00  1.20000000E+00  1.50000000E+00
  1.20000000E+00  1.20000000E+00  1.50000000E+00  1.20000000E+00  1.20000000E+00
  1.50000000E+00  1.20000000E+00  1.20000000E+00  1.50000000E+00  1.20000000E+00
  1.20000000E+00  1.50000000E+00  1.20000000E+00  1.20000000E+00  1.50000000E+00
  1.20000000E+00  1.20000000E+00  1.50000000E+00  1.20000000E+00  1.20000000E+00
  1.50000000E+00  1.20000000E+00  1.20000000E+00  1.50000000E+00  1.20000000E+00
  1.20000000E+00  1.50000000E+00  1.20000000E+00  1.20000000E+00  1.50000000E+00
  1.20000000E+00  1.20000000E+00  1.50000000E+00  1.20000000E+00  1.20000000E+00
  1.50000000E+00  1.20000000E+00  1.20000000E+00  1.50000000E+00  1.20000000E+00
  1.20000000E+00  1.50000000E+00  1.20000000E+00  1.20000000E+00  1.50000000E+00
  1.20000000E+00  1.20000000E+00  1.50000000E+00  1.20000000E+00  1.20000000E+00
  1.50000000E+00  1.20000000E+00  1.20000000E+00  1.50000000E+00  1.20000000E+00
  1.20000000E+00  1.50000000E+00  1.20000000E+00  1.20000000E+00  1.50000000E+00
  1.20000000E+00  1.20000000E+00  1.50000000E+00  1.20000000E+00  1.20000000E+00
  1.50000000E+00  1.20000000E+00  1.20000000E+00  1.50000000E+00  1.20000000E+00
  1.20000000E+00  1.50000000E+00  1.20000000E+00  1.20000000E+00  1.50000000E+00
  1.20000000E+00  1.20000000E+00  1.50000000E+00  1.20000000E+00  1.20000000E+00
  1.50000000E+00  1.20000000E+00  1.20000000E+00  1.50000000E+00  1.20000000E+00
  1.20000000E+00  1.50000000E+00  1.20000000E+00  1.20000000E+00  1.50000000E+00
  1.20000000E+00  1.20000000E+00  1.50000000E+00  1.20000000E+00  1.20000000E+00
  1.50000000E+00  1.20000000E+00  1.20000000E+00  1.50000000E+00  1.20000000E+00
  1.20000000E+00  1.50000000E+00  1.20000000E+00  1.20000000E+00  1.50000000E+00
  1.20000000E+00  1.20000000E+00  1.50000000E+00  1.20000000E+00  1.20000000E+00
  1.50000000E+00  1.20000000E+00  1.20000000E+00  1.50000000E+00  1.20000000E+00
  1.20000000E+00  1.50000000E+00  1.20000000E+00  1.20000000E+00  1.50000000E+00
  1.20000000E+00  1.20000000E+00  1.50000000E+00  1.20000000E+00  1.20000000E+00
  1.50000000E+00  1.20000000E+00  1.20000000E+00  1.50000000E+00  1.20000000E+00
  1.20000000E+00  1.50000000E+00  1.20000000E+00  1.20000000E+00  1.50000000E+00
  1.20000000E+00  1.20000000E+00  1.50000000E+00  1.20000000E+00  1.20000000E+00
  1.50000000E+00  1.20000000E+00  1.20000000E+00  1.50000000E+00  1.20000000E+00
  1.20000000E+00  1.50000000E+00  1.20000000E+00  1.20000000E+00  1.50000000E+00
  1.20000000E+00  1.20000000E+00  1.50000000E+00  1.20000000E+00  1.20000000E+00
  1.50000000E+00  1.20000000E+00  1.20000000E+00  1.50000000E+00  1.20000000E+00
  1.20000000E+00  1.50000000E+00  1.20000000E+00  1.20000000E+00  1.50000000E+00
  1.20000000E+00  1.20000000E+00  1.50000000E+00  1.20000000E+00  1.20000000E+00
  1.50000000E+00  1.20000000E+00  1.20000000E+00  1.50000000E+00  1.20000000E+00
  1.20000000E+00  1.50000000E+00  1.20000000E+00  1.20000000E+00  1.50000000E+00
  1.20000000E+00  1.20000000E+00  1.50000000E+00  1.20000000E+00  1.20000000E+00
  1.50000000E+00  1.20000000E+00  1.20000000E+00  1.50000000E+00  1.20000000E+00
  1.20000000E+00  1.50000000E+00  1.20000000E+00  1.20000000E+00  1.50000000E+00
  1.20000000E+00  1.20000000E+00  1.50000000E+00  1.20000000E+00  1.20000000E+00
  1.50000000E+00  1.20000000E+00  1.20000000E+00  1.50000000E+00  1.20000000E+00
  1.20000000E+00  1.50000000E+00  1.20000000E+00  1.20000000E+00  1.50000000E+00
  1.20000000E+00  1.20000000E+00  1.50000000E+00  1.20000000E+00  1.20000000E+00
  1.50000000E+00  1.20000000E+00  1.20000000E+00  1.50000000E+00  1.20000000E+00
  1.20000000E+00  1.50000000E+00  1.20000000E+00  1.20000000E+00  1.50000000E+00
  1.20000000E+00  1.20000000E+00  1.50000000E+00  1.20000000E+00  1.20000000E+00
  1.50000000E+00  1.20000000E+00  1.20000000E+00  1.50000000E+00  1.20000000E+00
  1.20000000E+00  1.50000000E+00  1.20000000E+00  1.20000000E+00  1.50000000E+00
  1.20000000E+00  1.20000000E+00  1.50000000E+00  1.20000000E+00  1.20000000E+00
  1.50000000E+00  1.20000000E+00  1.20000000E+00  1.50000000E+00  1.20000000E+00
  1.20000000E+00  1.50000000E+00  1.20000000E+00  1.20000000E+00  1.50000000E+00
  1.20000000E+00  1.20000000E+00  1.50000000E+00  1.20000000E+00  1.20000000E+00
  1.50000000E+00  1.20000000E+00  1.20000000E+00  1.50000000E+00  1.20000000E+00
  1.20000000E+00  1.50000000E+00  1.20000000E+00  1.20000000E+00  1.50000000E+00
  1.20000000E+00  1.20000000E+00  1.50000000E+00  1.20000000E+00  1.20000000E+00
  1.50000000E+00  1.20000000E+00  1.20000000E+00  1.50000000E+00  1.20000000E+00
  1.20000000E+00  1.50000000E+00  1.20000000E+00  1.20000000E+00  1.50000000E+00
  1.20000000E+00  1.20000000E+00  1.50000000E+00  1.20000000E+00  1.20000000E+00
  1.50000000E+00  1.20000000E+00  1.20000000E+00  1.50000000E+00  1.20000000E+00
  1.20000000E+00  1.50000000E+00  1.20000000E+00  1.20000000E+00  1.50000000E+00
  1.20000000E+00  1.20000000E+00  1.50000000E+00  1.20000000E+00  1.20000000E+00
  1.50000000E+00  1.20000000E+00  1.20000000E+00  1.50000000E+00  1.20000000E+00
  1.20000000E+00  1.50000000E+00  1.20000000E+00  1.20000000E+00  1.50000000E+00
  1.20000000E+00  1.20000000E+00  1.50000000E+00  1.20000000E+00  1.20000000E+00
  1.50000000E+00  1.20000000E+00  1.20000000E+00  1.50000000E+00  1.20000000E+00
  1.20000000E+00  1.50000000E+00  1.20000000E+00  1.20000000E+00  1.50000000E+00
  1.20000000E+00  1.20000000E+00  1.50000000E+00  1.20000000E+00  1.20000000E+00
  1.50000000E+00  1.20000000E+00  1.20000000E+00  1.50000000E+00  1.20000000E+00
  1.20000000E+00  1.50000000E+00  1.20000000E+00  1.20000000E+00  1.50000000E+00
  1.20000000E+00  1.20000000E+00  1.50000000E+00  1.20000000E+00  1.20000000E+00
  1.50000000E+00  1.20000000E+00  1.20000000E+00  1.50000000E+00  1.20000000E+00
  1.20000000E+00  1.50000000E+00  1.20000000E+00  1.20000000E+00  1.50000000E+00
  1.20000000E+00  1.20000000E+00  1.50000000E+00  1.20000000E+00  1.20000000E+00
  1.50000000E+00  1.20000000E+00  1.20000000E+00  1.50000000E+00  1.20000000E+00
  1.20000000E+00  1.50000000E+00  1.20000000E+00  1.20000000E+00  1.50000000E+00
  1.20000000E+00  1.20000000E+00  1.50000000E+00  1.20000000E+00  1.20000000E+00
  1.50000000E+00  1.20000000E+00  1.20000000E+00  1.50000000E+00  1.20000000E+00
  1.20000000E+00  1.50000000E+00  1.20000000E+00  1.20000000E+00  1.50000000E+00
  1.20000000E+00  1.20000000E+00  1.50000000E+00  1.20000000E+00  1.20000000E+00
  1.50000000E+00  1.20000000E+00  1.20000000E+00  1.50000000E+00  1.20000000E+00
  1.20000000E+00  1.50000000E+00  1.20000000E+00  1.20000000E+00  1.50000000E+00
  1.20000000E+00  1.20000000E+00  1.50000000E+00  1.20000000E+00  1.20000000E+00
  1.50000000E+00  1.20000000E+00  1.20000000E+00  1.50000000E+00  1.20000000E+00
  1.20000000E+00  1.50000000E+00  1.20000000E+00  1.20000000E+00  1.50000000E+00
  1.20000000E+00  1.20000000E+00  1.50000000E+00  1.20000000E+00  1.20000000E+00
  1.50000000E+00  1.20000000E+00  1.20000000E+00  1.50000000E+00  1.20000000E+00
  1.20000000E+00  1.50000000E+00  1.20000000E+00  1.20000000E+00  1.50000000E+00
  1.20000000E+00  1.20000000E+00  1.50000000E+00  1.20000000E+00  1.20000000E+00
  1.50000000E+00  1.20000000E+00  1.20000000E+00  1.50000000E+00  1.20000000E+00
  1.20000000E+00  1.50000000E+00  1.20000000E+00  1.20000000E+00  1.50000000E+00
  1.20000000E+00  1.20000000E+00  1.50000000E+00  1.20000000E+00  1.20000000E+00
  1.50000000E+00  1.20000000E+00  1.20000000E+00  1.50000000E+00  1.20000000E+00
  1.20000000E+00  1.50000000E+00  1.20000000E+00  1.20000000E+00  1.50000000E+00
  1.20000000E+00  1.20000000E+00  1.50000000E+00  1.20000000E+00  1.20000000E+00
  1.50000000E+00  1.20000000E+00  1.20000000E+00  1.50000000E+00  1.20000000E+00
  1.20000000E+00  1.50000000E+00  1.20000000E+00  1.20000000E+00  1.50000000E+00
  1.20000000E+00  1.20000000E+00  1.50000000E+00  1.20000000E+00  1.20000000E+00
  1.50000000E+00  1.20000000E+00  1.20000000E+00  1.50000000E+00  1.20000000E+00
  1.20000000E+00  1.50000000E+00  1.20000000E+00  1.20000000E+00  1.50000000E+00
  1.20000000E+00  1.20000000E+00  1.50000000E+00  1.20000000E+00  1.20000000E+00
  1.50000000E+00  1.20000000E+00  1.20000000E+00  1.50000000E+00  1.20000000E+00
  1.20000000E+00  1.50000000E+00  1.20000000E+00  1.20000000E+00  1.50000000E+00
  1.20000000E+00  1.20000000E+00  1.50000000E+00  1.20000000E+00  1.20000000E+00
  1.50000000E+00  1.20000000E+00  1.20000000E+00  1.50000000E+00  1.20000000E+00
  1.20000000E+00  1.50000000E+00  1.20000000E+00  1.20000000E+00  1.50000000E+00
  1.20000000E+00  1.20000000E+00  1.50000000E+00  1.20000000E+00  1.20000000E+00
  1.50000000E+00  1.20000000E+00  1.20000000E+00  1.50000000E+00  1.20000000E+00
  1.20000000E+00  1.50000000E+00  1.20000000E+00  1.20000000E+00  1.50000000E+00
  1.20000000E+00  1.20000000E+00  1.50000000E+00  1.20000000E+00  1.20000000E+00
  1.50000000E+00  1.20000000E+00  1.20000000E+00  1.50000000E+00  1.20000000E+00
  1.20000000E+00  1.50000000E+00  1.20000000E+00  1.20000000E+00  1.50000000E+00
  1.20000000E+00  1.20000000E+00  1.50000000E+00  1.20000000E+00  1.20000000E+00
  1.50000000E+00  1.20000000E+00  1.20000000E+00  1.50000000E+00  1.20000000E+00
  1.20000000E+00  1.50000000E+00  1.20000000E+00  1.20000000E+00  1.50000000E+00
  1.20000000E+00  1.20000000E+00  1.50000000E+00  1.20000000E+00  1.20000000E+00
  1.50000000E+00  1.20000000E+00  1.20000000E+00  1.50000000E+00  1.20000000E+00
  1.20000000E+00  1.50000000E+00  1.20000000E+00  1.20000000E+00  1.50000000E+00
  1.20000000E+00  1.20000000E+00  1.50000000E+00  1.20000000E+00  1.20000000E+00
  1.50000000E+00  1.20000000E+00  1.20000000E+00  1.50000000E+00  1.20000000E+00
  1.20000000E+00  1.50000000E+00  1.20000000E+00  1.20000000E+00  1.50000000E+00
  1.20000000E+00  1.20000000E+00  1.50000000E+00  1.20000000E+00  1.20000000E+00
  1.50000000E+00  1.20000000E+00  1.20000000E+00  1.50000000E+00  1.20000000E+00
  1.20000000E+00  1.50000000E+00  1.20000000E+00  1.20000000E+00  1.50000000E+00
  1.20000000E+00  1.20000000E+00  1.50000000E+00  1.20000000E+00  1.20000000E+00
  1.50000000E+00  1.20000000E+00  1.20000000E+00  1.50000000E+00  1.20000000E+00
  1.20000000E+00  1.50000000E+00  1.20000000E+00  1.20000000E+00  1.50000000E+00
  1.20000000E+00  1.20000000E+00  1.50000000E+00  1.20000000E+00  1.20000000E+00
  1.50000000E+00  1.20000000E+00  1.20000000E+00  1.50000000E+00  1.20000000E+00
  1.20000000E+00  1.50000000E+00  1.20000000E+00  1.20000000E+00  1.50000000E+00
  1.20000000E+00  1.20000000E+00  1.50000000E+00  1.20000000E+00  1.20000000E+00
  1.50000000E+00  1.20000000E+00  1.20000000E+00  1.50000000E+00  1.20000000E+00
  1.20000000E+00  1.50000000E+00  1.20000000E+00  1.20000000E+00  1.50000000E+00
  1.20000000E+00  1.20000000E+00  1.50000000E+00  1.20000000E+00  1.20000000E+00
  1.50000000E+00  1.20000000E+00  1.20000000E+00  1.50000000E+00  1.20000000E+00
  1.20000000E+00  1.50000000E+00  1.20000000E+00  1.20000000E+00  1.50000000E+00
  1.20000000E+00  1.20000000E+00  1.50000000E+00  1.20000000E+00  1.20000000E+00
  1.50000000E+00  1.20000000E+00  1.20000000E+00  1.50000000E+00  1.20000000E+00
  1.20000000E+00  1.50000000E+00  1.20000000E+00  1.20000000E+00  1.50000000E+00
  1.20000000E+00  1.20000000E+00  1.50000000E+00  1.20000000E+00  1.20000000E+00
  1.50000000E+00  1.20000000E+00  1.20000000E+00  1.50000000E+00  1.20000000E+00
  1.20000000E+00  1.50000000E+00  1.20000000E+00  1.20000000E+00  1.50000000E+00
  1.20000000E+00  1.20000000E+00  1.50000000E+00  1.20000000E+00  1.20000000E+00
  1.50000000E+00  1.20000000E+00  1.20000000E+00  1.50000000E+00  1.20000000E+00
  1.20000000E+00  1.50000000E+00  1.20000000E+00  1.20000000E+00  1.50000000E+00
  1.20000000E+00  1.20000000E+00  1.50000000E+00  1.20000000E+00  1.20000000E+00
  1.50000000E+00  1.20000000E+00  1.20000000E+00  1.50000000E+00  1.20000000E+00
  1.20000000E+00  1.50000000E+00  1.20000000E+00  1.20000000E+00  1.50000000E+00
  1.20000000E+00  1.20000000E+00  1.50000000E+00  1.20000000E+00  1.20000000E+00
  1.50000000E+00  1.20000000E+00  1.20000000E+00  1.50000000E+00  1.20000000E+00
  1.20000000E+00  1.50000000E+00  1.20000000E+00  1.20000000E+00  1.50000000E+00
  1.20000000E+00  1.20000000E+00  1.50000000E+00  1.20000000E+00  1.20000000E+00
  1.50000000E+00  1.20000000E+00  1.20000000E+00  1.50000000E+00  1.20000000E+00
  1.20000000E+00  1.50000000E+00  1.20000000E+00  1.20000000E+00  1.50000000E+00
  1.20000000E+00  1.20000000E+00  1.50000000E+00  1.20000000E+00  1.20000000E+00
  1.50000000E+00  1.20000000E+00  1.20000000E+00  1.50000000E+00  1.20000000E+00
  1.20000000E+00  1.50000000E+00  1.20000000E+00  1.20000000E+00  1.50000000E+00
  1.20000000E+00  1.20000000E+00  1.50000000E+00  1.20000000E+00  1.20000000E+00
  1.50000000E+00  1.20000000E+00  1.20000000E+00  1.50000000E+00  1.20000000E+00
  1.20000000E+00  1.50000000E+00  1.20000000E+00  1.20000000E+00  1.50000000E+00
  1.20000000E+00  1.20000000E+00  1.50000000E+00  1.20000000E+00  1.20000000E+00
  1.50000000E+00  1.20000000E+00  1.20000000E+00  1.50000000E+00  1.20000000E+00
  1.20000000E+00  1.50000000E+00  1.20000000E+00  1.20000000E+00  1.50000000E+00
  1.20000000E+00  1.20000000E+00  1.50000000E+00  1.20000000E+00  1.20000000E+00
  1.50000000E+00  1.20000000E+00  1.20000000E+00  1.50000000E+00  1.20000000E+00
  1.20000000E+00  1.50000000E+00  1.20000000E+00  1.20000000E+00  1.50000000E+00
  1.20000000E+00  1.20000000E+00  1.50000000E+00  1.20000000E+00  1.20000000E+00
  1.50000000E+00  1.20000000E+00  1.20000000E+00  1.50000000E+00  1.20000000E+00
  1.20000000E+00  1.50000000E+00  1.20000000E+00  1.20000000E+00  1.50000000E+00
  1.20000000E+00  1.20000000E+00  1.50000000E+00  1.20000000E+00  1.20000000E+00
  1.50000000E+00  1.20000000E+00  1.20000000E+00  1.50000000E+00  1.20000000E+00
  1.20000000E+00  1.50000000E+00  1.20000000E+00  1.20000000E+00  1.50000000E+00
  1.20000000E+00  1.20000000E+00  1.50000000E+00  1.20000000E+00  1.20000000E+00
  1.50000000E+00  1.20000000E+00  1.20000000E+00  1.50000000E+00  1.20000000E+00
  1.20000000E+00  1.50000000E+00  1.20000000E+00  1.20000000E+00  1.50000000E+00
  1.20000000E+00  1.20000000E+00  1.50000000E+00  1.20000000E+00  1.20000000E+00
  1.50000000E+00  1.20000000E+00  1.20000000E+00  1.50000000E+00  1.20000000E+00
  1.20000000E+00  1.50000000E+00  1.20000000E+00  1.20000000E+00  1.50000000E+00
  1.20000000E+00  1.20000000E+00  1.50000000E+00  1.20000000E+00  1.20000000E+00
  1.50000000E+00  1.20000000E+00  1.20000000E+00  1.50000000E+00  1.20000000E+00
  1.20000000E+00  1.50000000E+00  1.20000000E+00  1.20000000E+00  1.50000000E+00
  1.20000000E+00  1.20000000E+00  1.50000000E+00  1.20000000E+00  1.20000000E+00
  1.50000000E+00  1.20000000E+00  1.20000000E+00  1.50000000E+00  1.20000000E+00
  1.20000000E+00  1.50000000E+00  1.20000000E+00  1.20000000E+00  1.50000000E+00
  1.20000000E+00  1.20000000E+00  1.50000000E+00  1.20000000E+00  1.20000000E+00
  1.50000000E+00  1.20000000E+00  1.20000000E+00  1.50000000E+00  1.20000000E+00
  1.20000000E+00  1.50000000E+00  1.20000000E+00  1.20000000E+00  1.50000000E+00
  1.20000000E+00  1.20000000E+00  1.50000000E+00  1.20000000E+00  1.20000000E+00
  1.50000000E+00  1.20000000E+00  1.20000000E+00  1.50000000E+00  1.20000000E+00
  1.20000000E+00  1.50000000E+00  1.20000000E+00  1.20000000E+00  1.50000000E+00
  1.20000000E+00  1.20000000E+00  1.50000000E+00  1.20000000E+00  1.20000000E+00
  1.50000000E+00  1.20000000E+00  1.20000000E+00  1.50000000E+00  1.20000000E+00
  1.20000000E+00  1.50000000E+00  1.20000000E+00  1.20000000E+00  1.50000000E+00
  1.20000000E+00  1.20000000E+00  1.50000000E+00  1.20000000E+00  1.20000000E+00
  1.50000000E+00  1.20000000E+00  1.20000000E+00  1.50000000E+00  1.20000000E+00
  1.20000000E+00  1.50000000E+00  1.20000000E+00  1.20000000E+00  1.50000000E+00
  1.20000000E+00  1.20000000E+00  1.50000000E+00  1.20000000E+00  1.20000000E+00
  1.50000000E+00  1.20000000E+00  1.20000000E+00  1.50000000E+00  1.20000000E+00
  1.20000000E+00  1.50000000E+00  1.20000000E+00  1.20000000E+00  1.50000000E+00
  1.20000000E+00  1.20000000E+00  1.50000000E+00  1.20000000E+00  1.20000000E+00
  1.50000000E+00  1.20000000E+00  1.20000000E+00  1.50000000E+00  1.20000000E+00
  1.20000000E+00  1.50000000E+00  1.20000000E+00  1.20000000E+00  1.50000000E+00
  1.20000000E+00  1.20000000E+00  1.50000000E+00  1.20000000E+00  1.20000000E+00
  1.50000000E+00  1.20000000E+00  1.20000000E+00  1.50000000E+00  1.20000000E+00
  1.20000000E+00  1.50000000E+00  1.20000000E+00  1.20000000E+00  1.50000000E+00
  1.20000000E+00  1.20000000E+00  1.50000000E+00  1.20000000E+00  1.20000000E+00
  1.50000000E+00  1.20000000E+00  1.20000000E+00  1.50000000E+00  1.20000000E+00
  1.20000000E+00  1.50000000E+00  1.20000000E+00  1.20000000E+00  1.50000000E+00
  1.20000000E+00  1.20000000E+00  1.50000000E+00  1.20000000E+00  1.20000000E+00
  1.50000000E+00  1.20000000E+00  1.20000000E+00  1.50000000E+00  1.20000000E+00
  1.20000000E+00  1.50000000E+00  1.20000000E+00  1.20000000E+00  1.50000000E+00
  1.20000000E+00  1.20000000E+00  1.50000000E+00  1.20000000E+00  1.20000000E+00
  1.50000000E+00  1.20000000E+00  1.20000000E+00  1.50000000E+00  1.20000000E+00
  1.20000000E+00  1.50000000E+00  1.20000000E+00  1.20000000E+00  1.50000000E+00
  1.20000000E+00  1.20000000E+00  1.50000000E+00  1.20000000E+00  1.20000000E+00
  1.50000000E+00  1.20000000E+00  1.20000000E+00  1.50000000E+00  1.20000000E+00
  1.20000000E+00  1.50000000E+00  1.20000000E+00  1.20000000E+00  1.50000000E+00
  1.20000000E+00  1.20000000E+00  1.50000000E+00  1.20000000E+00  1.20000000E+00
  1.50000000E+00  1.20000000E+00  1.20000000E+00  1.50000000E+00  1.20000000E+00
  1.20000000E+00  1.50000000E+00  1.20000000E+00  1.20000000E+00  1.50000000E+00
  1.20000000E+00  1.20000000E+00  1.50000000E+00  1.20000000E+00  1.20000000E+00
  1.50000000E+00  1.20000000E+00  1.20000000E+00  1.50000000E+00  1.20000000E+00
  1.20000000E+00  1.50000000E+00  1.20000000E+00  1.20000000E+00  1.50000000E+00
  1.20000000E+00  1.20000000E+00  1.50000000E+00  1.20000000E+00  1.20000000E+00
  1.50000000E+00  1.20000000E+00  1.20000000E+00  1.50000000E+00  1.20000000E+00
  1.20000000E+00  1.50000000E+00  1.20000000E+00  1.20000000E+00  1.50000000E+00
  1.20000000E+00  1.20000000E+00  1.50000000E+00  1.20000000E+00  1.20000000E+00
  1.50000000E+00  1.20000000E+00  1.20000000E+00  1.50000000E+00  1.20000000E+00
  1.20000000E+00  1.50000000E+00  1.20000000E+00  1.20000000E+00  1.50000000E+00
  1.20000000E+00  1.20000000E+00  1.50000000E+00  1.20000000E+00  1.20000000E+00
  1.50000000E+00  1.20000000E+00  1.20000000E+00  1.50000000E+00  1.20000000E+00
  1.20000000E+00  1.50000000E+00  1.20000000E+00  1.20000000E+00  1.50000000E+00
  1.20000000E+00  1.20000000E+00  1.50000000E+00  1.20000000E+00  1.20000000E+00
  1.50000000E+00  1.20000000E+00  1.20000000E+00  1.50000000E+00  1.20000000E+00
  1.20000000E+00  1.50000000E+00  1.20000000E+00  1.20000000E+00  1.50000000E+00
  1.20000000E+00  1.20000000E+00  1.50000000E+00  1.20000000E+00  1.20000000E+00
  1.50000000E+00  1.20000000E+00  1.20000000E+00  1.50000000E+00  1.20000000E+00
  1.20000000E+00  1.50000000E+00  1.20000000E+00  1.20000000E+00  1.50000000E+00
  1.20000000E+00  1.20000000E+00  1.50000000E+00  1.20000000E+00  1.20000000E+00
  1.50000000E+00  1.20000000E+00  1.20000000E+00  1.50000000E+00  1.20000000E+00
  1.20000000E+00  1.50000000E+00  1.20000000E+00  1.20000000E+00  1.50000000E+00
  1.20000000E+00  1.20000000E+00  1.50000000E+00  1.20000000E+00  1.20000000E+00
  1.50000000E+00  1.20000000E+00  1.20000000E+00  1.50000000E+00  1.20000000E+00
  1.20000000E+00  1.50000000E+00  1.20000000E+00  1.20000000E+00  1.50000000E+00
  1.20000000E+00  1.20000000E+00  1.50000000E+00  1.20000000E+00  1.20000000E+00
  1.50000000E+00  1.20000000E+00  1.20000000E+00  1.50000000E+00  1.20000000E+00
  1.20000000E+00  1.50000000E+00  1.20000000E+00  1.20000000E+00  1.50000000E+00
  1.20000000E+00  1.20000000E+00  1.50000000E+00  1.20000000E+00  1.20000000E+00
  1.50000000E+00  1.20000000E+00  1.20000000E+00  1.50000000E+00  1.20000000E+00
  1.20000000E+00  1.50000000E+00  1.20000000E+00  1.20000000E+00  1.50000000E+00
  1.20000000E+00  1.20000000E+00  1.50000000E+00  1.20000000E+00  1.20000000E+00
  1.50000000E+00  1.20000000E+00  1.20000000E+00  1.50000000E+00  1.20000000E+00
  1.20000000E+00  1.50000000E+00  1.20000000E+00  1.20000000E+00  1.50000000E+00
  1.20000000E+00  1.20000000E+00  1.50000000E+00  1.20000000E+00  1.20000000E+00
  1.50000000E+00  1.20000000E+00  1.20000000E+00  1.50000000E+00  1.20000000E+00
  1.20000000E+00  1.50000000E+00  1.20000000E+00  1.20000000E+00  1.50000000E+00
  1.20000000E+00  1.20000000E+00  1.50000000E+00  1.20000000E+00  1.20000000E+00
  1.50000000E+00  1.20000000E+00  1.20000000E+00  1.50000000E+00  1.20000000E+00
  1.20000000E+00  1.50000000E+00  1.20000000E+00  1.20000000E+00  1.50000000E+00
  1.20000000E+00  1.20000000E+00  1.50000000E+00  1.20000000E+00  1.20000000E+00
  1.50000000E+00  1.20000000E+00  1.20000000E+00  1.50000000E+00  1.20000000E+00
  1.20000000E+00  1.50000000E+00  1.20000000E+00  1.20000000E+00  1.50000000E+00
  1.20000000E+00  1.20000000E+00  1.50000000E+00  1.20000000E+00  1.20000000E+00
  1.50000000E+00  1.20000000E+00  1.20000000E+00  1.50000000E+00  1.20000000E+00
  1.20000000E+00  1.50000000E+00  1.20000000E+00  1.20000000E+00  1.50000000E+00
  1.20000000E+00  1.20000000E+00  1.50000000E+00  1.20000000E+00  1.20000000E+00
  1.50000000E+00  1.20000000E+00  1.20000000E+00  1.50000000E+00  1.20000000E+00
  1.20000000E+00  1.50000000E+00  1.20000000E+00  1.20000000E+00  1.50000000E+00
  1.20000000E+00  1.20000000E+00  1.50000000E+00  1.20000000E+00  1.20000000E+00
  1.50000000E+00  1.20000000E+00  1.20000000E+00  1.50000000E+00  1.20000000E+00
  1.20000000E+00  1.50000000E+00  1.20000000E+00  1.20000000E+00  1.50000000E+00
  1.20000000E+00  1.20000000E+00  1.50000000E+00  1.20000000E+00  1.20000000E+00
  1.50000000E+00  1.20000000E+00  1.20000000E+00  1.50000000E+00  1.20000000E+00
  1.20000000E+00  1.50000000E+00  1.20000000E+00  1.20000000E+00  1.50000000E+00
  1.20000000E+00  1.20000000E+00  1.50000000E+00  1.20000000E+00  1.20000000E+00
  1.50000000E+00  1.20000000E+00  1.20000000E+00  1.50000000E+00  1.20000000E+00
  1.20000000E+00  1.50000000E+00  1.20000000E+00  1.20000000E+00  1.50000000E+00
  1.20000000E+00  1.20000000E+00  1.50000000E+00  1.20000000E+00  1.20000000E+00
  1.50000000E+00  1.20000000E+00  1.20000000E+00  1.50000000E+00  1.20000000E+00
  1.20000000E+00  1.50000000E+00  1.20000000E+00  1.20000000E+00  1.50000000E+00
  1.20000000E+00  1.20000000E+00  1.50000000E+00  1.20000000E+00  1.20000000E+00
  1.50000000E+00  1.20000000E+00  1.20000000E+00  1.50000000E+00  1.20000000E+00
  1.20000000E+00  1.50000000E+00  1.20000000E+00  1.20000000E+00  1.50000000E+00
  1.20000000E+00  1.20000000E+00  1.50000000E+00  1.20000000E+00  1.20000000E+00
  1.50000000E+00  1.20000000E+00  1.20000000E+00  1.50000000E+00  1.20000000E+00
  1.20000000E+00  1.50000000E+00  1.20000000E+00  1.20000000E+00  1.50000000E+00
  1.20000000E+00  1.20000000E+00  1.50000000E+00  1.20000000E+00  1.20000000E+00
  1.50000000E+00  1.20000000E+00  1.20000000E+00  1.50000000E+00  1.20000000E+00
  1.20000000E+00  1.50000000E+00  1.20000000E+00  1.20000000E+00  1.50000000E+00
  1.20000000E+00  1.20000000E+00  1.50000000E+00  1.20000000E+00  1.20000000E+00
  1.50000000E+00  1.20000000E+00  1.20000000E+00  1.50000000E+00  1.20000000E+00
  1.20000000E+00  1.50000000E+00  1.20000000E+00  1.20000000E+00  1.50000000E+00
  1.20000000E+00  1.20000000E+00  1.50000000E+00  1.20000000E+00  1.20000000E+00
  1.50000000E+00  1.20000000E+00  1.20000000E+00  1.50000000E+00  1.20000000E+00
  1.20000000E+00  1.50000000E+00  1.20000000E+00  1.20000000E+00  1.50000000E+00
  1.20000000E+00  1.20000000E+00  1.50000000E+00  1.20000000E+00  1.20000000E+00
  1.50000000E+00  1.20000000E+00  1.20000000E+00  1.50000000E+00  1.20000000E+00
  1.20000000E+00  1.50000000E+00  1.20000000E+00  1.20000000E+00  1.50000000E+00
  1.20000000E+00  1.20000000E+00  1.50000000E+00  1.20000000E+00  1.20000000E+00
  1.50000000E+00  1.20000000E+00  1.20000000E+00  1.50000000E+00  1.20000000E+00
  1.20000000E+00  1.50000000E+00  1.20000000E+00  1.20000000E+00  1.50000000E+00
  1.20000000E+00  1.20000000E+00  1.50000000E+00  1.20000000E+00  1.20000000E+00
  1.50000000E+00  1.20000000E+00  1.20000000E+00  1.50000000E+00  1.20000000E+00
  1.20000000E+00  1.50000000E+00  1.20000000E+00  1.20000000E+00  1.50000000E+00
  1.20000000E+00  1.20000000E+00  1.50000000E+00  1.20000000E+00  1.20000000E+00
  1.50000000E+00  1.20000000E+00  1.20000000E+00  1.50000000E+00  1.20000000E+00
  1.20000000E+00  1.50000000E+00  1.20000000E+00  1.20000000E+00  1.50000000E+00
  1.20000000E+00  1.20000000E+00  1.50000000E+00  1.20000000E+00  1.20000000E+00
  1.50000000E+00  1.20000000E+00  1.20000000E+00  1.50000000E+00  1.20000000E+00
  1.20000000E+00  1.50000000E+00  1.20000000E+00  1.20000000E+00  1.50000000E+00
  1.20000000E+00  1.20000000E+00  1.50000000E+00  1.20000000E+00  1.20000000E+00
  1.50000000E+00  1.20000000E+00  1.20000000E+00  1.50000000E+00  1.20000000E+00
  1.20000000E+00  1.50000000E+00  1.20000000E+00  1.20000000E+00  1.50000000E+00
  1.20000000E+00  1.20000000E+00  1.50000000E+00  1.20000000E+00  1.20000000E+00
  1.50000000E+00  1.20000000E+00  1.20000000E+00  1.50000000E+00  1.20000000E+00
  1.20000000E+00  1.50000000E+00  1.20000000E+00  1.20000000E+00  1.50000000E+00
  1.20000000E+00  1.20000000E+00  1.50000000E+00  1.20000000E+00  1.20000000E+00
  1.50000000E+00  1.20000000E+00  1.20000000E+00  1.50000000E+00  1.20000000E+00
  1.20000000E+00  1.50000000E+00  1.20000000E+00  1.20000000E+00  1.50000000E+00
  1.20000000E+00  1.20000000E+00  1.50000000E+00  1.20000000E+00  1.20000000E+00
  1.50000000E+00  1.20000000E+00  1.20000000E+00  1.50000000E+00  1.20000000E+00
  1.20000000E+00  1.50000000E+00  1.20000000E+00  1.20000000E+00  1.50000000E+00
  1.20000000E+00  1.20000000E+00  1.50000000E+00  1.20000000E+00  1.20000000E+00
  1.50000000E+00  1.20000000E+00  1.20000000E+00  1.50000000E+00  1.20000000E+00
  1.20000000E+00  1.50000000E+00  1.20000000E+00  1.20000000E+00  1.50000000E+00
  1.20000000E+00  1.20000000E+00  1.50000000E+00  1.20000000E+00  1.20000000E+00
  1.50000000E+00  1.20000000E+00  1.20000000E+00  1.50000000E+00  1.20000000E+00
  1.20000000E+00  1.50000000E+00  1.20000000E+00  1.20000000E+00  1.50000000E+00
  1.20000000E+00  1.20000000E+00  1.50000000E+00  1.20000000E+00  1.20000000E+00
  1.50000000E+00  1.20000000E+00  1.20000000E+00  1.50000000E+00  1.20000000E+00
  1.20000000E+00  1.50000000E+00  1.20000000E+00  1.20000000E+00  1.50000000E+00
  1.20000000E+00  1.20000000E+00  1.50000000E+00  1.20000000E+00  1.20000000E+00
  1.50000000E+00  1.20000000E+00  1.20000000E+00  1.50000000E+00  1.20000000E+00
  1.20000000E+00  1.50000000E+00  1.20000000E+00  1.20000000E+00  1.50000000E+00
  1.20000000E+00  1.20000000E+00  1.50000000E+00  1.20000000E+00  1.20000000E+00
  1.50000000E+00  1.20000000E+00  1.20000000E+00  1.50000000E+00  1.20000000E+00
  1.20000000E+00  1.50000000E+00  1.20000000E+00  1.20000000E+00  1.50000000E+00
  1.20000000E+00  1.20000000E+00  1.50000000E+00  1.20000000E+00  1.20000000E+00
  1.50000000E+00  1.20000000E+00  1.20000000E+00  1.50000000E+00  1.20000000E+00
  1.20000000E+00  1.50000000E+00  1.20000000E+00  1.20000000E+00  1.50000000E+00
  1.20000000E+00  1.20000000E+00  1.50000000E+00  1.20000000E+00  1.20000000E+00
  1.50000000E+00  1.20000000E+00  1.20000000E+00  1.50000000E+00  1.20000000E+00
  1.20000000E+00  1.50000000E+00  1.20000000E+00  1.20000000E+00  1.50000000E+00
  1.20000000E+00  1.20000000E+00  1.50000000E+00  1.20000000E+00  1.20000000E+00
  1.50000000E+00  1.20000000E+00  1.20000000E+00  1.50000000E+00  1.20000000E+00
  1.20000000E+00  1.50000000E+00  1.20000000E+00  1.20000000E+00  1.50000000E+00
  1.20000000E+00  1.20000000E+00  1.50000000E+00  1.20000000E+00  1.20000000E+00
  1.50000000E+00  1.20000000E+00  1.20000000E+00  1.50000000E+00  1.20000000E+00
  1.20000000E+00  1.50000000E+00  1.20000000E+00  1.20000000E+00  1.50000000E+00
  1.20000000E+00  1.20000000E+00  1.50000000E+00  1.20000000E+00  1.20000000E+00
  1.50000000E+00  1.20000000E+00  1.20000000E+00  1.50000000E+00  1.20000000E+00
  1.20000000E+00  1.50000000E+00  1.20000000E+00  1.20000000E+00  1.50000000E+00
  1.20000000E+00  1.20000000E+00  1.50000000E+00  1.20000000E+00  1.20000000E+00
  1.50000000E+00  1.20000000E+00  1.20000000E+00  1.50000000E+00  1.20000000E+00
  1.20000000E+00  1.50000000E+00  1.20000000E+00  1.20000000E+00  1.50000000E+00
  1.20000000E+00  1.20000000E+00  1.50000000E+00  1.20000000E+00  1.20000000E+00
  1.50000000E+00  1.20000000E+00  1.20000000E+00  1.50000000E+00  1.20000000E+00
  1.20000000E+00  1.50000000E+00  1.20000000E+00  1.20000000E+00  1.50000000E+00
  1.20000000E+00  1.20000000E+00  1.50000000E+00  1.20000000E+00  1.20000000E+00
  1.50000000E+00  1.20000000E+00  1.20000000E+00  1.50000000E+00  1.20000000E+00
  1.20000000E+00  1.50000000E+00  1.20000000E+00  1.20000000E+00  1.50000000E+00
  1.20000000E+00  1.20000000E+00  1.50000000E+00  1.20000000E+00  1.20000000E+00
  1.50000000E+00  1.20000000E+00  1.20000000E+00  1.50000000E+00  1.20000000E+00
  1.20000000E+00  1.50000000E+00  1.20000000E+00  1.20000000E+00  1.50000000E+00
  1.20000000E+00  1.20000000E+00  1.50000000E+00  1.20000000E+00  1.20000000E+00
  1.50000000E+00  1.20000000E+00  1.20000000E+00  1.50000000E+00  1.20000000E+00
  1.20000000E+00  1.50000000E+00  1.20000000E+00  1.20000000E+00  1.50000000E+00
  1.20000000E+00  1.20000000E+00  1.50000000E+00  1.20000000E+00  1.20000000E+00
  1.50000000E+00  1.20000000E+00  1.20000000E+00  1.50000000E+00  1.20000000E+00
  1.20000000E+00  1.50000000E+00  1.20000000E+00  1.20000000E+00  1.50000000E+00
  1.20000000E+00  1.20000000E+00  1.50000000E+00  1.20000000E+00  1.20000000E+00
  1.50000000E+00  1.20000000E+00  1.20000000E+00  1.50000000E+00  1.20000000E+00
  1.20000000E+00  1.50000000E+00  1.20000000E+00  1.20000000E+00  1.50000000E+00
  1.20000000E+00  1.20000000E+00  1.50000000E+00  1.20000000E+00  1.20000000E+00
  1.50000000E+00  1.20000000E+00  1.20000000E+00  1.50000000E+00  1.20000000E+00
  1.20000000E+00  1.50000000E+00  1.20000000E+00  1.20000000E+00  1.50000000E+00
  1.20000000E+00  1.20000000E+00  1.50000000E+00  1.20000000E+00  1.20000000E+00
  1.50000000E+00  1.20000000E+00  1.20000000E+00  1.50000000E+00  1.20000000E+00
  1.20000000E+00  1.50000000E+00  1.20000000E+00  1.20000000E+00  1.50000000E+00
  1.20000000E+00  1.20000000E+00  1.50000000E+00  1.20000000E+00  1.20000000E+00
  1.50000000E+00  1.20000000E+00  1.20000000E+00  1.50000000E+00  1.20000000E+00
  1.20000000E+00  1.50000000E+00  1.20000000E+00  1.20000000E+00  1.50000000E+00
  1.20000000E+00  1.20000000E+00  1.50000000E+00  1.20000000E+00  1.20000000E+00
  1.50000000E+00  1.20000000E+00  1.20000000E+00  1.50000000E+00  1.20000000E+00
  1.20000000E+00  1.50000000E+00  1.20000000E+00  1.20000000E+00  1.50000000E+00
  1.20000000E+00  1.20000000E+00  1.50000000E+00  1.20000000E+00  1.20000000E+00
  1.50000000E+00  1.20000000E+00  1.20000000E+00  1.50000000E+00  1.20000000E+00
  1.20000000E+00  1.50000000E+00  1.20000000E+00  1.20000000E+00  1.50000000E+00
  1.20000000E+00  1.20000000E+00  1.50000000E+00  1.20000000E+00  1.20000000E+00
  1.50000000E+00  1.20000000E+00  1.20000000E+00  1.50000000E+00  1.20000000E+00
  1.20000000E+00  1.50000000E+00  1.20000000E+00  1.20000000E+00  1.50000000E+00
  1.20000000E+00  1.20000000E+00  1.50000000E+00  1.20000000E+00  1.20000000E+00
  1.50000000E+00  1.20000000E+00  1.20000000E+00  1.50000000E+00  1.20000000E+00
  1.20000000E+00  1.50000000E+00  1.20000000E+00  1.20000000E+00  1.50000000E+00
  1.20000000E+00  1.20000000E+00  1.50000000E+00  1.20000000E+00  1.20000000E+00
  1.50000000E+00  1.20000000E+00  1.20000000E+00  1.50000000E+00  1.20000000E+00
  1.20000000E+00  1.50000000E+00  1.20000000E+00  1.20000000E+00  1.50000000E+00
  1.20000000E+00  1.20000000E+00  1.50000000E+00  1.20000000E+00  1.20000000E+00
  1.50000000E+00  1.20000000E+00  1.20000000E+00  1.50000000E+00  1.20000000E+00
  1.20000000E+00  1.50000000E+00  1.20000000E+00  1.20000000E+00  1.50000000E+00
  1.20000000E+00  1.20000000E+00  1.50000000E+00  1.20000000E+00  1.20000000E+00
  1.50000000E+00  1.20000000E+00  1.20000000E+00  1.50000000E+00  1.20000000E+00
  1.20000000E+00  1.50000000E+00  1.20000000E+00  1.20000000E+00  1.50000000E+00
  1.20000000E+00  1.20000000E+00  1.50000000E+00  1.20000000E+00  1.20000000E+00
  1.50000000E+00  1.20000000E+00  1.20000000E+00  1.50000000E+00  1.20000000E+00
  1.20000000E+00  1.50000000E+00  1.20000000E+00  1.20000000E+00  1.50000000E+00
  1.20000000E+00  1.20000000E+00  1.50000000E+00  1.20000000E+00  1.20000000E+00
  1.50000000E+00  1.20000000E+00  1.20000000E+00  1.50000000E+00  1.20000000E+00
  1.20000000E+00  1.50000000E+00  1.20000000E+00  1.20000000E+00  1.50000000E+00
  1.20000000E+00  1.20000000E+00  1.50000000E+00  1.20000000E+00  1.20000000E+00
  1.50000000E+00  1.20000000E+00  1.20000000E+00  1.50000000E+00  1.20000000E+00
  1.20000000E+00  1.50000000E+00  1.20000000E+00  1.20000000E+00  1.50000000E+00
  1.20000000E+00  1.20000000E+00  1.50000000E+00  1.20000000E+00  1.20000000E+00
  1.50000000E+00  1.20000000E+00  1.20000000E+00  1.50000000E+00  1.20000000E+00
  1.20000000E+00  1.50000000E+00  1.20000000E+00  1.20000000E+00  1.50000000E+00
  1.20000000E+00  1.20000000E+00  1.50000000E+00  1.20000000E+00  1.20000000E+00
  1.50000000E+00  1.20000000E+00  1.20000000E+00  1.50000000E+00  1.20000000E+00
  1.20000000E+00  1.50000000E+00  1.20000000E+00  1.20000000E+00  1.50000000E+00
  1.20000000E+00  1.20000000E+00  1.50000000E+00  1.20000000E+00  1.20000000E+00
  1.50000000E+00  1.20000000E+00  1.20000000E+00  1.50000000E+00  1.20000000E+00
  1.20000000E+00  1.50000000E+00  1.20000000E+00  1.20000000E+00  1.50000000E+00
  1.20000000E+00  1.20000000E+00  1.50000000E+00  1.20000000E+00  1.20000000E+00
  1.50000000E+00  1.20000000E+00  1.20000000E+00  1.50000000E+00  1.20000000E+00
  1.20000000E+00  1.50000000E+00  1.20000000E+00  1.20000000E+00  1.50000000E+00
  1.20000000E+00  1.20000000E+00  1.50000000E+00  1.20000000E+00  1.20000000E+00
  1.50000000E+00  1.20000000E+00  1.20000000E+00  1.50000000E+00  1.20000000E+00
  1.20000000E+00  1.50000000E+00  1.20000000E+00  1.20000000E+00  1.50000000E+00
  1.20000000E+00  1.20000000E+00  1.50000000E+00  1.20000000E+00  1.20000000E+00
  1.50000000E+00  1.20000000E+00  1.20000000E+00  1.50000000E+00  1.20000000E+00
  1.20000000E+00  1.50000000E+00  1.20000000E+00  1.20000000E+00  1.50000000E+00
  1.20000000E+00  1.20000000E+00  1.50000000E+00  1.20000000E+00  1.20000000E+00
  1.50000000E+00  1.20000000E+00  1.20000000E+00  1.50000000E+00  1.20000000E+00
  1.20000000E+00  1.50000000E+00  1.20000000E+00  1.20000000E+00  1.50000000E+00
  1.20000000E+00  1.20000000E+00  1.50000000E+00  1.20000000E+00  1.20000000E+00
  1.50000000E+00  1.20000000E+00  1.20000000E+00  1.50000000E+00  1.20000000E+00
  1.20000000E+00  1.50000000E+00  1.20000000E+00  1.20000000E+00  1.50000000E+00
  1.20000000E+00  1.20000000E+00  1.50000000E+00  1.20000000E+00  1.20000000E+00
  1.50000000E+00  1.20000000E+00  1.20000000E+00  1.50000000E+00  1.20000000E+00
  1.20000000E+00  1.50000000E+00  1.20000000E+00  1.20000000E+00  1.50000000E+00
  1.20000000E+00  1.20000000E+00  1.50000000E+00  1.20000000E+00  1.20000000E+00
  1.50000000E+00  1.20000000E+00  1.20000000E+00  1.50000000E+00  1.20000000E+00
  1.20000000E+00  1.50000000E+00  1.20000000E+00  1.20000000E+00  1.50000000E+00
  1.20000000E+00  1.20000000E+00  1.50000000E+00  1.20000000E+00  1.20000000E+00
  1.50000000E+00  1.20000000E+00  1.20000000E+00  1.50000000E+00  1.20000000E+00
  1.20000000E+00  1.50000000E+00  1.20000000E+00  1.20000000E+00  1.50000000E+00
  1.20000000E+00  1.20000000E+00  1.50000000E+00  1.20000000E+00  1.20000000E+00
  1.50000000E+00  1.20000000E+00  1.20000000E+00  1.50000000E+00  1.20000000E+00
  1.20000000E+00  1.50000000E+00  1.20000000E+00  1.20000000E+00  1.50000000E+00
  1.20000000E+00  1.20000000E+00  1.50000000E+00  1.20000000E+00  1.20000000E+00
  1.50000000E+00  1.20000000E+00  1.20000000E+00  1.50000000E+00  1.20000000E+00
  1.20000000E+00  1.50000000E+00  1.20000000E+00  1.20000000E+00  1.50000000E+00
  1.20000000E+00  1.20000000E+00  1.50000000E+00  1.20000000E+00  1.20000000E+00
  1.50000000E+00  1.20000000E+00  1.20000000E+00  1.50000000E+00  1.20000000E+00
  1.20000000E+00  1.50000000E+00  1.20000000E+00  1.20000000E+00  1.50000000E+00
  1.20000000E+00  1.20000000E+00  1.50000000E+00  1.20000000E+00  1.20000000E+00
  1.50000000E+00  1.20000000E+00  1.20000000E+00  1.50000000E+00  1.20000000E+00
  1.20000000E+00  1.50000000E+00  1.20000000E+00  1.20000000E+00  1.50000000E+00
  1.20000000E+00  1.20000000E+00  1.50000000E+00  1.20000000E+00  1.20000000E+00
  1.50000000E+00  1.20000000E+00  1.20000000E+00  1.50000000E+00  1.20000000E+00
  1.20000000E+00  1.50000000E+00  1.20000000E+00  1.20000000E+00  1.50000000E+00
  1.20000000E+00  1.20000000E+00  1.50000000E+00  1.20000000E+00  1.20000000E+00
  1.50000000E+00  1.20000000E+00  1.20000000E+00  1.50000000E+00  1.20000000E+00
  1.20000000E+00  1.50000000E+00  1.20000000E+00  1.20000000E+00  1.50000000E+00
  1.20000000E+00  1.20000000E+00  1.50000000E+00  1.20000000E+00  1.20000000E+00
  1.50000000E+00  1.20000000E+00  1.20000000E+00  1.50000000E+00  1.20000000E+00
  1.20000000E+00  1.50000000E+00  1.20000000E+00  1.20000000E+00  1.50000000E+00
  1.20000000E+00  1.20000000E+00  1.50000000E+00  1.20000000E+00  1.20000000E+00
  1.50000000E+00  1.20000000E+00  1.20000000E+00  1.50000000E+00  1.20000000E+00
  1.20000000E+00  1.50000000E+00  1.20000000E+00  1.20000000E+00  1.50000000E+00
  1.20000000E+00  1.20000000E+00  1.50000000E+00  1.20000000E+00  1.20000000E+00
  1.50000000E+00  1.20000000E+00  1.20000000E+00  1.50000000E+00  1.20000000E+00
  1.20000000E+00  1.50000000E+00  1.20000000E+00  1.20000000E+00  1.50000000E+00
  1.20000000E+00  1.20000000E+00  1.50000000E+00  1.20000000E+00  1.20000000E+00
  1.50000000E+00  1.20000000E+00  1.20000000E+00  1.50000000E+00  1.20000000E+00
  1.20000000E+00  1.50000000E+00  1.20000000E+00  1.20000000E+00  1.50000000E+00
  1.20000000E+00  1.20000000E+00  1.50000000E+00  1.20000000E+00  1.20000000E+00
  1.50000000E+00  1.20000000E+00  1.20000000E+00  1.50000000E+00  1.20000000E+00
  1.20000000E+00  1.50000000E+00  1.20000000E+00  1.20000000E+00  1.50000000E+00
  1.20000000E+00  1.20000000E+00  1.50000000E+00  1.20000000E+00  1.20000000E+00
  1.50000000E+00  1.20000000E+00  1.20000000E+00  1.50000000E+00  1.20000000E+00
  1.20000000E+00  1.50000000E+00  1.20000000E+00  1.20000000E+00  1.50000000E+00
  1.20000000E+00  1.20000000E+00  1.50000000E+00  1.20000000E+00  1.20000000E+00
  1.50000000E+00  1.20000000E+00  1.20000000E+00  1.50000000E+00  1.20000000E+00
  1.20000000E+00  1.50000000E+00  1.20000000E+00  1.20000000E+00  1.50000000E+00
  1.20000000E+00  1.20000000E+00  1.50000000E+00  1.20000000E+00  1.20000000E+00
  1.50000000E+00  1.20000000E+00  1.20000000E+00  1.50000000E+00  1.20000000E+00
  1.20000000E+00  1.50000000E+00  1.20000000E+00  1.20000000E+00  1.50000000E+00
  1.20000000E+00  1.20000000E+00  1.50000000E+00  1.20000000E+00  1.20000000E+00
  1.50000000E+00  1.20000000E+00  1.20000000E+00  1.50000000E+00  1.20000000E+00
  1.20000000E+00  1.50000000E+00  1.20000000E+00  1.20000000E+00  1.50000000E+00
  1.20000000E+00  1.20000000E+00  1.50000000E+00  1.20000000E+00  1.20000000E+00
  1.50000000E+00  1.20000000E+00  1.20000000E+00  1.50000000E+00  1.20000000E+00
  1.20000000E+00  1.50000000E+00  1.20000000E+00  1.20000000E+00  1.50000000E+00
  1.20000000E+00  1.20000000E+00  1.50000000E+00  1.20000000E+00  1.20000000E+00
  1.50000000E+00  1.20000000E+00  1.20000000E+00  1.50000000E+00  1.20000000E+00
  1.20000000E+00  1.50000000E+00  1.20000000E+00  1.20000000E+00  1.50000000E+00
  1.20000000E+00  1.20000000E+00  1.50000000E+00  1.20000000E+00  1.20000000E+00
  1.50000000E+00  1.20000000E+00  1.20000000E+00  1.50000000E+00  1.20000000E+00
  1.20000000E+00  1.50000000E+00  1.20000000E+00  1.20000000E+00  1.50000000E+00
  1.20000000E+00  1.20000000E+00  1.50000000E+00  1.20000000E+00  1.20000000E+00
  1.50000000E+00  1.20000000E+00  1.20000000E+00  1.50000000E+00  1.20000000E+00
  1.20000000E+00  1.50000000E+00  1.20000000E+00  1.20000000E+00  1.50000000E+00
  1.20000000E+00  1.20000000E+00  1.50000000E+00  1.20000000E+00  1.20000000E+00
  1.50000000E+00  1.20000000E+00  1.20000000E+00  1.50000000E+00  1.20000000E+00
  1.20000000E+00  1.50000000E+00  1.20000000E+00  1.20000000E+00  1.50000000E+00
  1.20000000E+00  1.20000000E+00  1.50000000E+00  1.20000000E+00  1.20000000E+00
  1.50000000E+00  1.20000000E+00  1.20000000E+00  1.50000000E+00  1.20000000E+00
  1.20000000E+00  1.50000000E+00  1.20000000E+00  1.20000000E+00  1.50000000E+00
  1.20000000E+00  1.20000000E+00  1.50000000E+00  1.20000000E+00  1.20000000E+00
  1.50000000E+00  1.20000000E+00  1.20000000E+00  1.50000000E+00  1.20000000E+00
  1.20000000E+00  1.50000000E+00  1.20000000E+00  1.20000000E+00  1.50000000E+00
  1.20000000E+00  1.20000000E+00  1.50000000E+00  1.20000000E+00  1.20000000E+00
  1.50000000E+00  1.20000000E+00  1.20000000E+00  1.50000000E+00  1.20000000E+00
  1.20000000E+00  1.50000000E+00  1.20000000E+00  1.20000000E+00  1.50000000E+00
  1.20000000E+00  1.20000000E+00  1.50000000E+00  1.20000000E+00  1.20000000E+00
  1.50000000E+00  1.20000000E+00  1.20000000E+00  1.50000000E+00  1.20000000E+00
  1.20000000E+00  1.50000000E+00  1.20000000E+00  1.20000000E+00  1.50000000E+00
  1.20000000E+00  1.20000000E+00  1.50000000E+00  1.20000000E+00  1.20000000E+00
  1.50000000E+00  1.20000000E+00  1.20000000E+00  1.50000000E+00  1.20000000E+00
  1.20000000E+00  1.50000000E+00  1.20000000E+00  1.20000000E+00  1.50000000E+00
  1.20000000E+00  1.20000000E+00  1.50000000E+00  1.20000000E+00  1.20000000E+00
  1.50000000E+00  1.20000000E+00  1.20000000E+00  1.50000000E+00  1.20000000E+00
  1.20000000E+00  1.50000000E+00  1.20000000E+00  1.20000000E+00  1.50000000E+00
  1.20000000E+00  1.20000000E+00  1.50000000E+00  1.20000000E+00  1.20000000E+00
  1.50000000E+00  1.20000000E+00  1.20000000E+00  1.50000000E+00  1.20000000E+00
  1.20000000E+00  1.50000000E+00  1.20000000E+00  1.20000000E+00  1.50000000E+00
  1.20000000E+00  1.20000000E+00  1.50000000E+00  1.20000000E+00  1.20000000E+00
  1.50000000E+00  1.20000000E+00  1.20000000E+00  1.50000000E+00  1.20000000E+00
  1.20000000E+00  1.50000000E+00  1.20000000E+00  1.20000000E+00  1.50000000E+00
  1.20000000E+00  1.20000000E+00  1.50000000E+00  1.20000000E+00  1.20000000E+00
  1.50000000E+00  1.20000000E+00  1.20000000E+00  1.50000000E+00  1.20000000E+00
  1.20000000E+00  1.50000000E+00  1.20000000E+00  1.20000000E+00  1.50000000E+00
  1.20000000E+00  1.20000000E+00  1.50000000E+00  1.20000000E+00  1.20000000E+00
  1.50000000E+00  1.20000000E+00  1.20000000E+00  1.50000000E+00  1.20000000E+00
  1.20000000E+00  1.50000000E+00  1.20000000E+00  1.20000000E+00  1.50000000E+00
  1.20000000E+00  1.20000000E+00  1.50000000E+00  1.20000000E+00  1.20000000E+00
  1.50000000E+00  1.20000000E+00  1.20000000E+00  1.50000000E+00  1.20000000E+00
  1.20000000E+00  1.50000000E+00  1.20000000E+00  1.20000000E+00  1.50000000E+00
  1.20000000E+00  1.20000000E+00  1.50000000E+00  1.20000000E+00  1.20000000E+00
  1.50000000E+00  1.20000000E+00  1.20000000E+00  1.50000000E+00  1.20000000E+00
  1.20000000E+00  1.50000000E+00  1.20000000E+00  1.20000000E+00  1.50000000E+00
  1.20000000E+00  1.20000000E+00  1.50000000E+00  1.20000000E+00  1.20000000E+00
  1.50000000E+00  1.20000000E+00  1.20000000E+00  1.50000000E+00  1.20000000E+00
  1.20000000E+00  1.50000000E+00  1.20000000E+00  1.20000000E+00  1.50000000E+00
  1.20000000E+00  1.20000000E+00  1.50000000E+00  1.20000000E+00  1.20000000E+00
  1.50000000E+00  1.20000000E+00  1.20000000E+00  1.50000000E+00  1.20000000E+00
  1.20000000E+00  1.50000000E+00  1.20000000E+00  1.20000000E+00  1.50000000E+00
  1.20000000E+00  1.20000000E+00  1.50000000E+00  1.20000000E+00  1.20000000E+00
  1.50000000E+00  1.20000000E+00  1.20000000E+00  1.50000000E+00  1.20000000E+00
  1.20000000E+00  1.50000000E+00  1.20000000E+00  1.20000000E+00  1.50000000E+00
  1.20000000E+00  1.20000000E+00  1.50000000E+00  1.20000000E+00  1.20000000E+00
  1.50000000E+00  1.20000000E+00  1.20000000E+00  1.50000000E+00  1.20000000E+00
  1.20000000E+00  1.50000000E+00  1.20000000E+00  1.20000000E+00  1.50000000E+00
  1.20000000E+00  1.20000000E+00  1.50000000E+00  1.20000000E+00  1.20000000E+00
  1.50000000E+00  1.20000000E+00  1.20000000E+00  1.50000000E+00  1.20000000E+00
  1.20000000E+00  1.50000000E+00  1.20000000E+00  1.20000000E+00  1.50000000E+00
  1.20000000E+00  1.20000000E+00  1.50000000E+00  1.20000000E+00  1.20000000E+00
  1.50000000E+00  1.20000000E+00  1.20000000E+00  1.50000000E+00  1.20000000E+00
  1.20000000E+00  1.50000000E+00  1.20000000E+00  1.20000000E+00  1.50000000E+00
  1.20000000E+00  1.20000000E+00  1.50000000E+00  1.20000000E+00  1.20000000E+00
  1.50000000E+00  1.20000000E+00  1.20000000E+00  1.50000000E+00  1.20000000E+00
  1.20000000E+00  1.50000000E+00  1.20000000E+00  1.20000000E+00  1.50000000E+00
  1.20000000E+00  1.20000000E+00  1.50000000E+00  1.20000000E+00  1.20000000E+00
  1.50000000E+00  1.20000000E+00  1.20000000E+00  1.50000000E+00  1.20000000E+00
  1.20000000E+00  1.50000000E+00  1.20000000E+00  1.20000000E+00  1.50000000E+00
  1.20000000E+00  1.20000000E+00  1.50000000E+00  1.20000000E+00  1.20000000E+00
  1.50000000E+00  1.20000000E+00  1.20000000E+00  1.50000000E+00  1.20000000E+00
  1.20000000E+00  1.50000000E+00  1.20000000E+00  1.20000000E+00  1.50000000E+00
  1.20000000E+00  1.20000000E+00  1.50000000E+00  1.20000000E+00  1.20000000E+00
  1.50000000E+00  1.20000000E+00  1.20000000E+00  1.50000000E+00  1.20000000E+00
  1.20000000E+00  1.50000000E+00  1.20000000E+00  1.20000000E+00  1.50000000E+00
  1.20000000E+00  1.20000000E+00  1.50000000E+00  1.20000000E+00  1.20000000E+00
  1.50000000E+00  1.20000000E+00  1.20000000E+00  1.50000000E+00  1.20000000E+00
  1.20000000E+00  1.50000000E+00  1.20000000E+00  1.20000000E+00  1.50000000E+00
  1.20000000E+00  1.20000000E+00  1.50000000E+00  1.20000000E+00  1.20000000E+00
  1.50000000E+00  1.20000000E+00  1.20000000E+00  1.50000000E+00  1.20000000E+00
  1.20000000E+00  1.50000000E+00  1.20000000E+00  1.20000000E+00  1.50000000E+00
  1.20000000E+00  1.20000000E+00  1.50000000E+00  1.20000000E+00  1.20000000E+00
  1.50000000E+00  1.20000000E+00  1.20000000E+00  1.50000000E+00  1.20000000E+00
  1.20000000E+00  1.50000000E+00  1.20000000E+00  1.20000000E+00  1.50000000E+00
  1.20000000E+00  1.20000000E+00  1.50000000E+00  1.20000000E+00  1.20000000E+00
  1.50000000E+00  1.20000000E+00  1.20000000E+00  1.50000000E+00  1.20000000E+00
  1.20000000E+00  1.50000000E+00  1.20000000E+00  1.20000000E+00  1.50000000E+00
  1.20000000E+00  1.20000000E+00  1.50000000E+00  1.20000000E+00  1.20000000E+00
  1.50000000E+00  1.20000000E+00  1.20000000E+00  1.50000000E+00  1.20000000E+00
  1.20000000E+00  1.50000000E+00  1.20000000E+00  1.20000000E+00  1.50000000E+00
  1.20000000E+00  1.20000000E+00  1.50000000E+00  1.20000000E+00  1.20000000E+00
  1.50000000E+00  1.20000000E+00  1.20000000E+00  1.50000000E+00  1.20000000E+00
  1.20000000E+00  1.50000000E+00  1.20000000E+00  1.20000000E+00  1.50000000E+00
  1.20000000E+00  1.20000000E+00  1.50000000E+00  1.20000000E+00  1.20000000E+00
  1.50000000E+00  1.20000000E+00  1.20000000E+00  1.50000000E+00  1.20000000E+00
  1.20000000E+00  1.50000000E+00  1.20000000E+00  1.20000000E+00  1.50000000E+00
  1.20000000E+00  1.20000000E+00  1.50000000E+00  1.20000000E+00  1.20000000E+00
  1.50000000E+00  1.20000000E+00  1.20000000E+00  1.50000000E+00  1.20000000E+00
  1.20000000E+00  1.50000000E+00  1.20000000E+00  1.20000000E+00  1.50000000E+00
  1.20000000E+00  1.20000000E+00  1.50000000E+00  1.20000000E+00  1.20000000E+00
  1.50000000E+00  1.20000000E+00  1.20000000E+00  1.50000000E+00  1.20000000E+00
  1.20000000E+00  1.50000000E+00  1.20000000E+00  1.20000000E+00  1.50000000E+00
  1.20000000E+00  1.20000000E+00  1.50000000E+00  1.20000000E+00  1.20000000E+00
  1.50000000E+00  1.20000000E+00  1.20000000E+00  1.50000000E+00  1.20000000E+00
  1.20000000E+00  1.50000000E+00  1.20000000E+00  1.20000000E+00  1.50000000E+00
  1.20000000E+00  1.20000000E+00  1.50000000E+00  1.20000000E+00  1.20000000E+00
  1.50000000E+00  1.20000000E+00  1.20000000E+00  1.50000000E+00  1.20000000E+00
  1.20000000E+00  1.50000000E+00  1.20000000E+00  1.20000000E+00  1.50000000E+00
  1.20000000E+00  1.20000000E+00  1.50000000E+00  1.20000000E+00  1.20000000E+00
  1.50000000E+00  1.20000000E+00  1.20000000E+00  1.50000000E+00  1.20000000E+00
  1.20000000E+00  1.50000000E+00  1.20000000E+00  1.20000000E+00  1.50000000E+00
  1.20000000E+00  1.20000000E+00  1.50000000E+00  1.20000000E+00  1.20000000E+00
  1.50000000E+00  1.20000000E+00  1.20000000E+00  1.50000000E+00  1.20000000E+00
  1.20000000E+00  1.50000000E+00  1.20000000E+00  1.20000000E+00  1.50000000E+00
  1.20000000E+00  1.20000000E+00  1.50000000E+00  1.20000000E+00  1.20000000E+00
  1.50000000E+00  1.20000000E+00  1.20000000E+00  1.50000000E+00  1.20000000E+00
  1.20000000E+00  1.50000000E+00  1.20000000E+00  1.20000000E+00  1.50000000E+00
  1.20000000E+00  1.20000000E+00  1.50000000E+00  1.20000000E+00  1.20000000E+00
  1.50000000E+00  1.20000000E+00  1.20000000E+00  1.50000000E+00  1.20000000E+00
  1.20000000E+00  1.50000000E+00  1.20000000E+00  1.20000000E+00  1.50000000E+00
  1.20000000E+00  1.20000000E+00  1.50000000E+00  1.20000000E+00  1.20000000E+00
  1.50000000E+00  1.20000000E+00  1.20000000E+00  1.50000000E+00  1.20000000E+00
  1.20000000E+00  1.50000000E+00  1.20000000E+00  1.20000000E+00  1.50000000E+00
  1.20000000E+00  1.20000000E+00  1.50000000E+00  1.20000000E+00  1.20000000E+00
  1.50000000E+00  1.20000000E+00  1.20000000E+00  1.50000000E+00  1.20000000E+00
  1.20000000E+00  1.50000000E+00  1.20000000E+00  1.20000000E+00  1.50000000E+00
  1.20000000E+00  1.20000000E+00  1.50000000E+00  1.20000000E+00  1.20000000E+00
  1.50000000E+00  1.20000000E+00  1.20000000E+00  1.50000000E+00  1.20000000E+00
  1.20000000E+00  1.50000000E+00  1.20000000E+00  1.20000000E+00  1.50000000E+00
  1.20000000E+00  1.20000000E+00  1.50000000E+00  1.20000000E+00  1.20000000E+00
  1.50000000E+00  1.20000000E+00  1.20000000E+00  1.50000000E+00  1.20000000E+00
  1.20000000E+00  1.50000000E+00  1.20000000E+00  1.20000000E+00  1.50000000E+00
  1.20000000E+00  1.20000000E+00  1.50000000E+00  1.20000000E+00  1.20000000E+00
  1.50000000E+00  1.20000000E+00  1.20000000E+00  1.50000000E+00  1.20000000E+00
  1.20000000E+00  1.50000000E+00  1.20000000E+00  1.20000000E+00  1.50000000E+00
  1.20000000E+00  1.20000000E+00  1.50000000E+00  1.20000000E+00  1.20000000E+00
  1.50000000E+00  1.20000000E+00  1.20000000E+00  1.50000000E+00  1.20000000E+00
  1.20000000E+00  1.50000000E+00  1.20000000E+00  1.20000000E+00  1.50000000E+00
  1.20000000E+00  1.20000000E+00  1.50000000E+00  1.20000000E+00  1.20000000E+00
  1.50000000E+00  1.20000000E+00  1.20000000E+00  1.50000000E+00  1.20000000E+00
  1.20000000E+00  1.50000000E+00  1.20000000E+00  1.20000000E+00  1.50000000E+00
  1.20000000E+00  1.20000000E+00  1.50000000E+00  1.20000000E+00  1.20000000E+00
  1.50000000E+00  1.20000000E+00  1.20000000E+00  1.50000000E+00  1.20000000E+00
  1.20000000E+00  1.50000000E+00  1.20000000E+00  1.20000000E+00  1.50000000E+00
  1.20000000E+00  1.20000000E+00  1.50000000E+00  1.20000000E+00  1.20000000E+00
  1.50000000E+00  1.20000000E+00  1.20000000E+00  1.50000000E+00  1.20000000E+00
  1.20000000E+00  1.50000000E+00  1.20000000E+00  1.20000000E+00  1.50000000E+00
  1.20000000E+00  1.20000000E+00  1.50000000E+00  1.20000000E+00  1.20000000E+00
  1.50000000E+00  1.20000000E+00  1.20000000E+00  1.50000000E+00  1.20000000E+00
  1.20000000E+00  1.50000000E+00  1.20000000E+00  1.20000000E+00  1.50000000E+00
  1.20000000E+00  1.20000000E+00  1.50000000E+00  1.20000000E+00  1.20000000E+00
  1.50000000E+00  1.20000000E+00  1.20000000E+00  1.50000000E+00  1.20000000E+00
  1.20000000E+00  1.50000000E+00  1.20000000E+00  1.20000000E+00  1.50000000E+00
  1.20000000E+00  1.20000000E+00  1.50000000E+00  1.20000000E+00  1.20000000E+00
  1.50000000E+00  1.20000000E+00  1.20000000E+00  1.50000000E+00  1.20000000E+00
  1.20000000E+00  1.50000000E+00  1.20000000E+00  1.20000000E+00  1.50000000E+00
  1.20000000E+00  1.20000000E+00  1.50000000E+00  1.20000000E+00  1.20000000E+00
  1.50000000E+00  1.20000000E+00  1.20000000E+00  1.50000000E+00  1.20000000E+00
  1.20000000E+00  1.50000000E+00  1.20000000E+00  1.20000000E+00  1.50000000E+00
  1.20000000E+00  1.20000000E+00  1.50000000E+00  1.20000000E+00  1.20000000E+00
  1.50000000E+00  1.20000000E+00  1.20000000E+00  1.50000000E+00  1.20000000E+00
  1.20000000E+00  1.50000000E+00  1.20000000E+00  1.20000000E+00  1.50000000E+00
  1.20000000E+00  1.20000000E+00  1.50000000E+00  1.20000000E+00  1.20000000E+00
  1.50000000E+00  1.20000000E+00  1.20000000E+00  1.50000000E+00  1.20000000E+00
  1.20000000E+00  1.50000000E+00  1.20000000E+00  1.20000000E+00  1.50000000E+00
  1.20000000E+00  1.20000000E+00  1.50000000E+00  1.20000000E+00  1.20000000E+00
  1.50000000E+00  1.20000000E+00  1.20000000E+00  1.50000000E+00  1.20000000E+00
  1.20000000E+00  1.50000000E+00  1.20000000E+00  1.20000000E+00  1.50000000E+00
  1.20000000E+00  1.20000000E+00  1.50000000E+00  1.20000000E+00  1.20000000E+00
  1.50000000E+00  1.20000000E+00  1.20000000E+00  1.50000000E+00  1.20000000E+00
  1.20000000E+00  1.50000000E+00  1.20000000E+00  1.20000000E+00  1.50000000E+00
  1.20000000E+00  1.20000000E+00  1.50000000E+00  1.20000000E+00  1.20000000E+00
  1.50000000E+00  1.20000000E+00  1.20000000E+00  1.50000000E+00  1.20000000E+00
  1.20000000E+00  1.50000000E+00  1.20000000E+00  1.20000000E+00  1.50000000E+00
  1.20000000E+00  1.20000000E+00  1.50000000E+00  1.20000000E+00  1.20000000E+00
  1.50000000E+00  1.20000000E+00  1.20000000E+00  1.50000000E+00  1.20000000E+00
  1.20000000E+00  1.50000000E+00  1.20000000E+00  1.20000000E+00  1.50000000E+00
  1.20000000E+00  1.20000000E+00  1.50000000E+00  1.20000000E+00  1.20000000E+00
  1.50000000E+00  1.20000000E+00  1.20000000E+00  1.50000000E+00  1.20000000E+00
  1.20000000E+00  1.50000000E+00  1.20000000E+00  1.20000000E+00  1.50000000E+00
  1.20000000E+00  1.20000000E+00  1.50000000E+00  1.20000000E+00  1.20000000E+00
  1.50000000E+00  1.20000000E+00  1.20000000E+00  1.50000000E+00  1.20000000E+00
  1.20000000E+00  1.50000000E+00  1.20000000E+00  1.20000000E+00  1.50000000E+00
  1.20000000E+00  1.20000000E+00  1.50000000E+00  1.20000000E+00  1.20000000E+00
  1.50000000E+00  1.20000000E+00  1.20000000E+00  1.50000000E+00  1.20000000E+00
  1.20000000E+00  1.50000000E+00  1.20000000E+00  1.20000000E+00  1.50000000E+00
  1.20000000E+00  1.20000000E+00  1.50000000E+00  1.20000000E+00  1.20000000E+00
  1.50000000E+00  1.20000000E+00  1.20000000E+00  1.50000000E+00  1.20000000E+00
  1.20000000E+00  1.50000000E+00  1.20000000E+00  1.20000000E+00  1.50000000E+00
  1.20000000E+00  1.20000000E+00  1.50000000E+00  1.20000000E+00  1.20000000E+00
  1.50000000E+00  1.20000000E+00  1.20000000E+00  1.50000000E+00  1.20000000E+00
  1.20000000E+00  1.50000000E+00  1.20000000E+00  1.20000000E+00  1.50000000E+00
  1.20000000E+00  1.20000000E+00  1.50000000E+00  1.20000000E+00  1.20000000E+00
  1.50000000E+00  1.20000000E+00  1.20000000E+00  1.50000000E+00  1.20000000E+00
  1.20000000E+00  1.50000000E+00  1.20000000E+00  1.20000000E+00  1.50000000E+00
  1.20000000E+00  1.20000000E+00  1.50000000E+00  1.20000000E+00  1.20000000E+00
  1.50000000E+00  1.20000000E+00  1.20000000E+00  1.50000000E+00  1.20000000E+00
  1.20000000E+00  1.50000000E+00  1.20000000E+00  1.20000000E+00  1.50000000E+00
  1.20000000E+00  1.20000000E+00  1.50000000E+00  1.20000000E+00  1.20000000E+00
  1.50000000E+00  1.20000000E+00  1.20000000E+00  1.50000000E+00  1.20000000E+00
  1.20000000E+00  1.50000000E+00  1.20000000E+00  1.20000000E+00  1.50000000E+00
  1.20000000E+00  1.20000000E+00  1.50000000E+00  1.20000000E+00  1.20000000E+00
  1.50000000E+00  1.20000000E+00  1.20000000E+00  1.50000000E+00  1.20000000E+00
  1.20000000E+00  1.50000000E+00  1.20000000E+00  1.20000000E+00  1.50000000E+00
  1.20000000E+00  1.20000000E+00  1.50000000E+00  1.20000000E+00  1.20000000E+00
  1.50000000E+00  1.20000000E+00  1.20000000E+00  1.50000000E+00  1.20000000E+00
  1.20000000E+00  1.50000000E+00  1.20000000E+00  1.20000000E+00  1.50000000E+00
  1.20000000E+00  1.20000000E+00  1.50000000E+00  1.20000000E+00  1.20000000E+00
  1.50000000E+00  1.20000000E+00  1.20000000E+00  1.50000000E+00  1.20000000E+00
  1.20000000E+00  1.50000000E+00  1.20000000E+00  1.20000000E+00  1.50000000E+00
  1.20000000E+00  1.20000000E+00  1.50000000E+00  1.20000000E+00  1.20000000E+00
  1.50000000E+00  1.20000000E+00  1.20000000E+00  1.50000000E+00  1.20000000E+00
  1.20000000E+00  1.50000000E+00  1.20000000E+00  1.20000000E+00  1.50000000E+00
  1.20000000E+00  1.20000000E+00  1.50000000E+00  1.20000000E+00  1.20000000E+00
  1.50000000E+00  1.20000000E+00  1.20000000E+00  1.50000000E+00  1.20000000E+00
  1.20000000E+00  1.50000000E+00  1.20000000E+00  1.20000000E+00  1.50000000E+00
  1.20000000E+00  1.20000000E+00  1.50000000E+00  1.20000000E+00  1.20000000E+00
  1.50000000E+00  1.20000000E+00  1.20000000E+00  1.50000000E+00  1.20000000E+00
  1.20000000E+00  1.50000000E+00  1.20000000E+00  1.20000000E+00  1.50000000E+00
  1.20000000E+00  1.20000000E+00  1.50000000E+00  1.20000000E+00  1.20000000E+00
  1.50000000E+00  1.20000000E+00  1.20000000E+00  1.50000000E+00  1.20000000E+00
  1.20000000E+00  1.50000000E+00  1.20000000E+00  1.20000000E+00  1.50000000E+00
  1.20000000E+00  1.20000000E+00  1.50000000E+00  1.20000000E+00  1.20000000E+00
  1.50000000E+00  1.20000000E+00  1.20000000E+00  1.50000000E+00  1.20000000E+00
  1.20000000E+00  1.50000000E+00  1.20000000E+00  1.20000000E+00  1.50000000E+00
  1.20000000E+00  1.20000000E+00  1.50000000E+00  1.20000000E+00  1.20000000E+00
  1.50000000E+00  1.20000000E+00  1.20000000E+00  1.50000000E+00  1.20000000E+00
  1.20000000E+00  1.50000000E+00  1.20000000E+00  1.20000000E+00  1.50000000E+00
  1.20000000E+00  1.20000000E+00  1.50000000E+00  1.20000000E+00  1.20000000E+00
  1.50000000E+00  1.20000000E+00  1.20000000E+00  1.50000000E+00  1.20000000E+00
  1.20000000E+00  1.50000000E+00  1.20000000E+00  1.20000000E+00  1.50000000E+00
  1.20000000E+00  1.20000000E+00  1.50000000E+00  1.20000000E+00  1.20000000E+00
  1.50000000E+00  1.20000000E+00  1.20000000E+00  1.50000000E+00  1.20000000E+00
  1.20000000E+00  1.50000000E+00  1.20000000E+00  1.20000000E+00  1.50000000E+00
  1.20000000E+00  1.20000000E+00  1.50000000E+00  1.20000000E+00  1.20000000E+00
  1.50000000E+00  1.20000000E+00  1.20000000E+00  1.50000000E+00  1.20000000E+00
  1.20000000E+00  1.50000000E+00  1.20000000E+00  1.20000000E+00  1.50000000E+00
  1.20000000E+00  1.20000000E+00  1.50000000E+00  1.20000000E+00  1.20000000E+00
  1.50000000E+00  1.20000000E+00  1.20000000E+00  1.50000000E+00  1.20000000E+00
  1.20000000E+00  1.50000000E+00  1.20000000E+00  1.20000000E+00  1.50000000E+00
  1.20000000E+00  1.20000000E+00  1.50000000E+00  1.20000000E+00  1.20000000E+00
  1.50000000E+00  1.20000000E+00  1.20000000E+00  1.50000000E+00  1.20000000E+00
  1.20000000E+00  1.50000000E+00  1.20000000E+00  1.20000000E+00  1.50000000E+00
  1.20000000E+00  1.20000000E+00  1.50000000E+00  1.20000000E+00  1.20000000E+00
  1.50000000E+00  1.20000000E+00  1.20000000E+00  1.50000000E+00  1.20000000E+00
  1.20000000E+00  1.50000000E+00  1.20000000E+00  1.20000000E+00  1.50000000E+00
  1.20000000E+00  1.20000000E+00  1.50000000E+00  1.20000000E+00  1.20000000E+00
  1.50000000E+00  1.20000000E+00  1.20000000E+00  1.50000000E+00  1.20000000E+00
  1.20000000E+00  1.50000000E+00  1.20000000E+00  1.20000000E+00  1.50000000E+00
  1.20000000E+00  1.20000000E+00  1.50000000E+00  1.20000000E+00  1.20000000E+00
  1.50000000E+00  1.20000000E+00  1.20000000E+00  1.50000000E+00  1.20000000E+00
  1.20000000E+00  1.50000000E+00  1.20000000E+00  1.20000000E+00  1.50000000E+00
  1.20000000E+00  1.20000000E+00  1.50000000E+00  1.20000000E+00  1.20000000E+00
  1.50000000E+00  1.20000000E+00  1.20000000E+00  1.50000000E+00  1.20000000E+00
  1.20000000E+00  1.50000000E+00  1.20000000E+00  1.20000000E+00  1.50000000E+00
  1.20000000E+00  1.20000000E+00  1.50000000E+00  1.20000000E+00  1.20000000E+00
  1.50000000E+00  1.20000000E+00  1.20000000E+00  1.50000000E+00  1.20000000E+00
  1.20000000E+00  1.50000000E+00  1.20000000E+00  1.20000000E+00  1.50000000E+00
  1.20000000E+00  1.20000000E+00  1.50000000E+00  1.20000000E+00  1.20000000E+00
  1.50000000E+00  1.20000000E+00  1.20000000E+00  1.50000000E+00  1.20000000E+00
  1.20000000E+00  1.50000000E+00  1.20000000E+00  1.20000000E+00  1.50000000E+00
  1.20000000E+00  1.20000000E+00  1.50000000E+00  1.20000000E+00  1.20000000E+00
  1.50000000E+00  1.20000000E+00  1.20000000E+00  1.50000000E+00  1.20000000E+00
  1.20000000E+00  1.50000000E+00  1.20000000E+00  1.20000000E+00  1.50000000E+00
  1.20000000E+00  1.20000000E+00  1.50000000E+00  1.20000000E+00  1.20000000E+00
  1.50000000E+00  1.20000000E+00  1.20000000E+00  1.50000000E+00  1.20000000E+00
  1.20000000E+00  1.50000000E+00  1.20000000E+00  1.20000000E+00  1.50000000E+00
  1.20000000E+00  1.20000000E+00  1.50000000E+00  1.20000000E+00  1.20000000E+00
  1.50000000E+00  1.20000000E+00  1.20000000E+00  1.50000000E+00  1.20000000E+00
  1.20000000E+00  1.50000000E+00  1.20000000E+00  1.20000000E+00  1.50000000E+00
  1.20000000E+00  1.20000000E+00  1.50000000E+00  1.20000000E+00  1.20000000E+00
  1.50000000E+00  1.20000000E+00  1.20000000E+00  1.50000000E+00  1.20000000E+00
  1.20000000E+00  1.50000000E+00  1.20000000E+00  1.20000000E+00  1.50000000E+00
  1.20000000E+00  1.20000000E+00  1.50000000E+00  1.20000000E+00  1.20000000E+00
  1.50000000E+00  1.20000000E+00  1.20000000E+00  1.50000000E+00  1.20000000E+00
  1.20000000E+00  1.50000000E+00  1.20000000E+00  1.20000000E+00  1.50000000E+00
  1.20000000E+00  1.20000000E+00  1.50000000E+00  1.20000000E+00  1.20000000E+00
  1.50000000E+00  1.20000000E+00  1.20000000E+00  1.50000000E+00  1.20000000E+00
  1.20000000E+00  1.50000000E+00  1.20000000E+00  1.20000000E+00  1.50000000E+00
  1.20000000E+00  1.20000000E+00  1.50000000E+00  1.20000000E+00  1.20000000E+00
  1.50000000E+00  1.20000000E+00  1.20000000E+00  1.50000000E+00  1.20000000E+00
  1.20000000E+00  1.50000000E+00  1.20000000E+00  1.20000000E+00  1.50000000E+00
  1.20000000E+00  1.20000000E+00  1.50000000E+00  1.20000000E+00  1.20000000E+00
  1.50000000E+00  1.20000000E+00  1.20000000E+00  1.50000000E+00  1.20000000E+00
  1.20000000E+00  1.50000000E+00  1.20000000E+00  1.20000000E+00  1.50000000E+00
  1.20000000E+00  1.20000000E+00  1.50000000E+00  1.20000000E+00  1.20000000E+00
  1.50000000E+00  1.20000000E+00  1.20000000E+00  1.50000000E+00  1.20000000E+00
  1.20000000E+00  1.50000000E+00  1.20000000E+00  1.20000000E+00  1.50000000E+00
  1.20000000E+00  1.20000000E+00  1.50000000E+00  1.20000000E+00  1.20000000E+00
  1.50000000E+00  1.20000000E+00  1.20000000E+00  1.50000000E+00  1.20000000E+00
  1.20000000E+00  1.50000000E+00  1.20000000E+00  1.20000000E+00  1.50000000E+00
  1.20000000E+00  1.20000000E+00  1.50000000E+00  1.20000000E+00  1.20000000E+00
  1.50000000E+00  1.20000000E+00  1.20000000E+00  1.50000000E+00  1.20000000E+00
  1.20000000E+00  1.50000000E+00  1.20000000E+00  1.20000000E+00  1.50000000E+00
  1.20000000E+00  1.20000000E+00  1.50000000E+00  1.20000000E+00  1.20000000E+00
  1.50000000E+00  1.20000000E+00  1.20000000E+00  1.50000000E+00  1.20000000E+00
  1.20000000E+00  1.50000000E+00  1.20000000E+00  1.20000000E+00  1.50000000E+00
  1.20000000E+00  1.20000000E+00  1.50000000E+00  1.20000000E+00  1.20000000E+00
  1.50000000E+00  1.20000000E+00  1.20000000E+00  1.50000000E+00  1.20000000E+00
  1.20000000E+00  1.50000000E+00  1.20000000E+00  1.20000000E+00  1.50000000E+00
  1.20000000E+00  1.20000000E+00  1.50000000E+00  1.20000000E+00  1.20000000E+00
  1.50000000E+00  1.20000000E+00  1.20000000E+00  1.50000000E+00  1.20000000E+00
  1.20000000E+00  1.50000000E+00  1.20000000E+00  1.20000000E+00  1.50000000E+00
  1.20000000E+00  1.20000000E+00  1.50000000E+00  1.20000000E+00  1.20000000E+00
  1.50000000E+00  1.20000000E+00  1.20000000E+00  1.50000000E+00  1.20000000E+00
  1.20000000E+00  1.50000000E+00  1.20000000E+00  1.20000000E+00  1.50000000E+00
  1.20000000E+00  1.20000000E+00  1.50000000E+00  1.20000000E+00  1.20000000E+00
  1.50000000E+00  1.20000000E+00  1.20000000E+00  1.50000000E+00  1.20000000E+00
  1.20000000E+00  1.50000000E+00  1.20000000E+00  1.20000000E+00  1.50000000E+00
  1.20000000E+00  1.20000000E+00  1.50000000E+00  1.20000000E+00  1.20000000E+00
  1.50000000E+00  1.20000000E+00  1.20000000E+00  1.50000000E+00  1.20000000E+00
  1.20000000E+00  1.50000000E+00  1.20000000E+00  1.20000000E+00  1.50000000E+00
  1.20000000E+00  1.20000000E+00  1.50000000E+00  1.20000000E+00  1.20000000E+00
  1.50000000E+00  1.20000000E+00  1.20000000E+00  1.50000000E+00  1.20000000E+00
  1.20000000E+00  1.50000000E+00  1.20000000E+00  1.20000000E+00  1.50000000E+00
  1.20000000E+00  1.20000000E+00  1.50000000E+00  1.20000000E+00  1.20000000E+00
  1.50000000E+00  1.20000000E+00  1.20000000E+00  1.50000000E+00  1.20000000E+00
  1.20000000E+00  1.50000000E+00  1.20000000E+00  1.20000000E+00  1.50000000E+00
  1.20000000E+00  1.20000000E+00  1.50000000E+00  1.20000000E+00  1.20000000E+00
  1.50000000E+00  1.20000000E+00  1.20000000E+00  1.50000000E+00  1.20000000E+00
  1.20000000E+00  1.50000000E+00  1.20000000E+00  1.20000000E+00  1.50000000E+00
  1.20000000E+00  1.20000000E+00  1.50000000E+00  1.20000000E+00  1.20000000E+00
  1.50000000E+00  1.20000000E+00  1.20000000E+00  1.50000000E+00  1.20000000E+00
  1.20000000E+00  1.50000000E+00  1.20000000E+00  1.20000000E+00  1.50000000E+00
  1.20000000E+00  1.20000000E+00  1.50000000E+00  1.20000000E+00  1.20000000E+00
  1.50000000E+00  1.20000000E+00  1.20000000E+00  1.50000000E+00  1.20000000E+00
  1.20000000E+00  1.50000000E+00  1.20000000E+00  1.20000000E+00  1.50000000E+00
  1.20000000E+00  1.20000000E+00  1.50000000E+00  1.20000000E+00  1.20000000E+00
  1.50000000E+00  1.20000000E+00  1.20000000E+00  1.50000000E+00  1.20000000E+00
  1.20000000E+00  1.50000000E+00  1.20000000E+00  1.20000000E+00  1.50000000E+00
  1.20000000E+00  1.20000000E+00  1.50000000E+00  1.20000000E+00  1.20000000E+00
  1.50000000E+00  1.20000000E+00  1.20000000E+00  1.50000000E+00  1.20000000E+00
  1.20000000E+00  1.50000000E+00  1.20000000E+00  1.20000000E+00  1.50000000E+00
  1.20000000E+00  1.20000000E+00  1.50000000E+00  1.20000000E+00  1.20000000E+00
  1.50000000E+00  1.20000000E+00  1.20000000E+00  1.50000000E+00  1.20000000E+00
  1.20000000E+00  1.50000000E+00  1.20000000E+00  1.20000000E+00  1.50000000E+00
  1.20000000E+00  1.20000000E+00  1.50000000E+00  1.20000000E+00  1.20000000E+00
  1.50000000E+00  1.20000000E+00  1.20000000E+00  1.50000000E+00  1.20000000E+00
  1.20000000E+00  1.50000000E+00  1.20000000E+00  1.20000000E+00  1.50000000E+00
  1.20000000E+00  1.20000000E+00  1.50000000E+00  1.20000000E+00  1.20000000E+00
  1.50000000E+00  1.20000000E+00  1.20000000E+00  1.50000000E+00  1.20000000E+00
  1.20000000E+00  1.50000000E+00  1.20000000E+00  1.20000000E+00  1.50000000E+00
  1.20000000E+00  1.20000000E+00  1.50000000E+00  1.20000000E+00  1.20000000E+00
  1.50000000E+00  1.20000000E+00  1.20000000E+00  1.50000000E+00  1.20000000E+00
  1.20000000E+00  1.50000000E+00  1.20000000E+00  1.20000000E+00  1.50000000E+00
  1.20000000E+00  1.20000000E+00  1.50000000E+00  1.20000000E+00  1.20000000E+00
  1.50000000E+00  1.20000000E+00  1.20000000E+00  1.50000000E+00  1.20000000E+00
  1.20000000E+00  1.50000000E+00  1.20000000E+00  1.20000000E+00  1.50000000E+00
  1.20000000E+00  1.20000000E+00  1.50000000E+00  1.20000000E+00  1.20000000E+00
  1.50000000E+00  1.20000000E+00  1.20000000E+00  1.50000000E+00  1.20000000E+00
  1.20000000E+00  1.50000000E+00  1.20000000E+00  1.20000000E+00  1.50000000E+00
  1.20000000E+00  1.20000000E+00  1.50000000E+00  1.20000000E+00  1.20000000E+00
  1.50000000E+00  1.20000000E+00  1.20000000E+00  1.50000000E+00  1.20000000E+00
  1.20000000E+00  1.50000000E+00  1.20000000E+00  1.20000000E+00  1.50000000E+00
  1.20000000E+00  1.20000000E+00  1.50000000E+00  1.20000000E+00  1.20000000E+00
  1.50000000E+00  1.20000000E+00  1.20000000E+00  1.50000000E+00  1.20000000E+00
  1.20000000E+00  1.50000000E+00  1.20000000E+00  1.20000000E+00  1.50000000E+00
  1.20000000E+00  1.20000000E+00  1.50000000E+00  1.20000000E+00  1.20000000E+00
  1.50000000E+00  1.20000000E+00  1.20000000E+00  1.50000000E+00  1.20000000E+00
  1.20000000E+00  1.50000000E+00  1.20000000E+00  1.20000000E+00  1.50000000E+00
  1.20000000E+00  1.20000000E+00  1.50000000E+00  1.20000000E+00  1.20000000E+00
  1.50000000E+00  1.20000000E+00  1.20000000E+00  1.50000000E+00  1.20000000E+00
  1.20000000E+00  1.50000000E+00  1.20000000E+00  1.20000000E+00  1.50000000E+00
  1.20000000E+00  1.20000000E+00  1.50000000E+00  1.20000000E+00  1.20000000E+00
  1.50000000E+00  1.20000000E+00  1.20000000E+00  1.50000000E+00  1.20000000E+00
  1.20000000E+00  1.50000000E+00  1.20000000E+00  1.20000000E+00  1.50000000E+00
  1.20000000E+00  1.20000000E+00  1.50000000E+00  1.20000000E+00  1.20000000E+00
  1.50000000E+00  1.20000000E+00  1.20000000E+00  1.50000000E+00  1.20000000E+00
  1.20000000E+00  1.50000000E+00  1.20000000E+00  1.20000000E+00  1.50000000E+00
  1.20000000E+00  1.20000000E+00  1.50000000E+00  1.20000000E+00  1.20000000E+00
  1.50000000E+00  1.20000000E+00  1.20000000E+00  1.50000000E+00  1.20000000E+00
  1.20000000E+00  1.50000000E+00  1.20000000E+00  1.20000000E+00  1.50000000E+00
  1.20000000E+00  1.20000000E+00  1.50000000E+00  1.20000000E+00  1.20000000E+00
  1.50000000E+00  1.20000000E+00  1.20000000E+00  1.50000000E+00  1.20000000E+00
  1.20000000E+00  1.50000000E+00  1.20000000E+00  1.20000000E+00  1.50000000E+00
  1.20000000E+00  1.20000000E+00  1.50000000E+00  1.20000000E+00  1.20000000E+00
  1.50000000E+00  1.20000000E+00  1.20000000E+00  1.50000000E+00  1.20000000E+00
  1.20000000E+00  1.50000000E+00  1.20000000E+00  1.20000000E+00  1.50000000E+00
  1.20000000E+00  1.20000000E+00  1.50000000E+00  1.20000000E+00  1.20000000E+00
  1.50000000E+00  1.20000000E+00  1.20000000E+00  1.50000000E+00  1.20000000E+00
  1.20000000E+00  1.50000000E+00  1.20000000E+00  1.20000000E+00  1.50000000E+00
  1.20000000E+00  1.20000000E+00  1.50000000E+00  1.20000000E+00  1.20000000E+00
  1.50000000E+00  1.20000000E+00  1.20000000E+00  1.50000000E+00  1.20000000E+00
  1.20000000E+00  1.50000000E+00  1.20000000E+00  1.20000000E+00  1.50000000E+00
  1.20000000E+00  1.20000000E+00  1.50000000E+00  1.20000000E+00  1.20000000E+00
  1.50000000E+00  1.20000000E+00  1.20000000E+00  1.50000000E+00  1.20000000E+00
  1.20000000E+00  1.50000000E+00  1.20000000E+00  1.20000000E+00  1.50000000E+00
  1.20000000E+00  1.20000000E+00  1.50000000E+00  1.20000000E+00  1.20000000E+00
  1.50000000E+00  1.20000000E+00  1.20000000E+00  1.50000000E+00  1.20000000E+00
  1.20000000E+00  1.50000000E+00  1.20000000E+00  1.20000000E+00  1.50000000E+00
  1.20000000E+00  1.20000000E+00  1.50000000E+00  1.20000000E+00  1.20000000E+00
  1.50000000E+00  1.20000000E+00  1.20000000E+00  1.50000000E+00  1.20000000E+00
  1.20000000E+00  1.50000000E+00  1.20000000E+00  1.20000000E+00  1.50000000E+00
  1.20000000E+00  1.20000000E+00  1.50000000E+00  1.20000000E+00  1.20000000E+00
  1.50000000E+00  1.20000000E+00  1.20000000E+00  1.50000000E+00  1.20000000E+00
  1.20000000E+00  1.50000000E+00  1.20000000E+00  1.20000000E+00  1.50000000E+00
  1.20000000E+00  1.20000000E+00  1.50000000E+00  1.20000000E+00  1.20000000E+00
  1.50000000E+00  1.20000000E+00  1.20000000E+00  1.50000000E+00  1.20000000E+00
  1.20000000E+00  1.50000000E+00  1.20000000E+00  1.20000000E+00  1.50000000E+00
  1.20000000E+00  1.20000000E+00  1.50000000E+00  1.20000000E+00  1.20000000E+00
  1.50000000E+00  1.20000000E+00  1.20000000E+00  1.50000000E+00  1.20000000E+00
  1.20000000E+00  1.50000000E+00  1.20000000E+00  1.20000000E+00  1.50000000E+00
  1.20000000E+00  1.20000000E+00  1.50000000E+00  1.20000000E+00  1.20000000E+00
  1.50000000E+00  1.20000000E+00  1.20000000E+00  1.50000000E+00  1.20000000E+00
  1.20000000E+00  1.50000000E+00  1.20000000E+00  1.20000000E+00  1.50000000E+00
  1.20000000E+00  1.20000000E+00  1.50000000E+00  1.20000000E+00  1.20000000E+00
  1.50000000E+00  1.20000000E+00  1.20000000E+00  1.50000000E+00  1.20000000E+00
  1.20000000E+00  1.50000000E+00  1.20000000E+00  1.20000000E+00  1.50000000E+00
  1.20000000E+00  1.20000000E+00  1.50000000E+00  1.20000000E+00  1.20000000E+00
  1.50000000E+00  1.20000000E+00  1.20000000E+00  1.50000000E+00  1.20000000E+00
  1.20000000E+00  1.50000000E+00  1.20000000E+00  1.20000000E+00  1.50000000E+00
  1.20000000E+00  1.20000000E+00  1.50000000E+00  1.20000000E+00  1.20000000E+00
  1.50000000E+00  1.20000000E+00  1.20000000E+00  1.50000000E+00  1.20000000E+00
  1.20000000E+00  1.50000000E+00  1.20000000E+00  1.20000000E+00  1.50000000E+00
  1.20000000E+00  1.20000000E+00  1.50000000E+00  1.20000000E+00  1.20000000E+00
  1.50000000E+00  1.20000000E+00  1.20000000E+00  1.50000000E+00  1.20000000E+00
  1.20000000E+00  1.50000000E+00  1.20000000E+00  1.20000000E+00  1.50000000E+00
  1.20000000E+00  1.20000000E+00  1.50000000E+00  1.20000000E+00  1.20000000E+00
  1.50000000E+00  1.20000000E+00  1.20000000E+00  1.50000000E+00  1.20000000E+00
  1.20000000E+00  1.50000000E+00  1.20000000E+00  1.20000000E+00  1.50000000E+00
  1.20000000E+00  1.20000000E+00  1.50000000E+00  1.20000000E+00  1.20000000E+00
  1.50000000E+00  1.20000000E+00  1.20000000E+00  1.50000000E+00  1.20000000E+00
  1.20000000E+00  1.50000000E+00  1.20000000E+00  1.20000000E+00  1.50000000E+00
  1.20000000E+00  1.20000000E+00  1.50000000E+00  1.20000000E+00  1.20000000E+00
  1.50000000E+00  1.20000000E+00  1.20000000E+00  1.50000000E+00  1.20000000E+00
  1.20000000E+00  1.50000000E+00  1.20000000E+00  1.20000000E+00  1.50000000E+00
  1.20000000E+00  1.20000000E+00  1.50000000E+00  1.20000000E+00  1.20000000E+00
  1.50000000E+00  1.20000000E+00  1.20000000E+00  1.50000000E+00  1.20000000E+00
  1.20000000E+00  1.50000000E+00  1.20000000E+00  1.20000000E+00  1.50000000E+00
  1.20000000E+00  1.20000000E+00  1.50000000E+00  1.20000000E+00  1.20000000E+00
  1.50000000E+00  1.20000000E+00  1.20000000E+00  1.50000000E+00  1.20000000E+00
  1.20000000E+00  1.50000000E+00  1.20000000E+00  1.20000000E+00  1.50000000E+00
  1.20000000E+00  1.20000000E+00  1.50000000E+00  1.20000000E+00  1.20000000E+00
  1.50000000E+00  1.20000000E+00  1.20000000E+00  1.50000000E+00  1.20000000E+00
  1.20000000E+00  1.50000000E+00  1.20000000E+00  1.20000000E+00  1.50000000E+00
  1.20000000E+00  1.20000000E+00  1.50000000E+00  1.20000000E+00  1.20000000E+00
  1.50000000E+00  1.20000000E+00  1.20000000E+00  1.50000000E+00  1.20000000E+00
  1.20000000E+00  1.50000000E+00  1.20000000E+00  1.20000000E+00  1.50000000E+00
  1.20000000E+00  1.20000000E+00  1.50000000E+00  1.20000000E+00  1.20000000E+00
  1.50000000E+00  1.20000000E+00  1.20000000E+00  1.50000000E+00  1.20000000E+00
  1.20000000E+00  1.50000000E+00  1.20000000E+00  1.20000000E+00  1.50000000E+00
  1.20000000E+00  1.20000000E+00  1.50000000E+00  1.20000000E+00  1.20000000E+00
  1.50000000E+00  1.20000000E+00  1.20000000E+00  1.50000000E+00  1.20000000E+00
  1.20000000E+00  1.50000000E+00  1.20000000E+00  1.20000000E+00  1.50000000E+00
  1.20000000E+00  1.20000000E+00  1.50000000E+00  1.20000000E+00  1.20000000E+00
  1.50000000E+00  1.20000000E+00  1.20000000E+00  1.50000000E+00  1.20000000E+00
  1.20000000E+00  1.50000000E+00  1.20000000E+00  1.20000000E+00  1.50000000E+00
  1.20000000E+00  1.20000000E+00  1.50000000E+00  1.20000000E+00  1.20000000E+00
  1.50000000E+00  1.20000000E+00  1.20000000E+00  1.50000000E+00  1.20000000E+00
  1.20000000E+00  1.50000000E+00  1.20000000E+00  1.20000000E+00  1.50000000E+00
  1.20000000E+00  1.20000000E+00  1.50000000E+00  1.20000000E+00  1.20000000E+00
  1.50000000E+00  1.20000000E+00  1.20000000E+00  1.50000000E+00  1.20000000E+00
  1.20000000E+00  1.50000000E+00  1.20000000E+00  1.20000000E+00  1.50000000E+00
  1.20000000E+00  1.20000000E+00  1.50000000E+00  1.20000000E+00  1.20000000E+00
  1.50000000E+00  1.20000000E+00  1.20000000E+00  1.50000000E+00  1.20000000E+00
  1.20000000E+00  1.50000000E+00  1.20000000E+00  1.20000000E+00  1.50000000E+00
  1.20000000E+00  1.20000000E+00  1.50000000E+00  1.20000000E+00  1.20000000E+00
  1.50000000E+00  1.20000000E+00  1.20000000E+00  1.50000000E+00  1.20000000E+00
  1.20000000E+00  1.50000000E+00  1.20000000E+00  1.20000000E+00  1.50000000E+00
  1.20000000E+00  1.20000000E+00  1.50000000E+00  1.20000000E+00  1.20000000E+00
  1.50000000E+00  1.20000000E+00  1.20000000E+00  1.50000000E+00  1.20000000E+00
  1.20000000E+00  1.50000000E+00  1.20000000E+00  1.20000000E+00  1.50000000E+00
  1.20000000E+00  1.20000000E+00  1.50000000E+00  1.20000000E+00  1.20000000E+00
  1.50000000E+00  1.20000000E+00  1.20000000E+00  1.50000000E+00  1.20000000E+00
  1.20000000E+00  1.50000000E+00  1.20000000E+00  1.20000000E+00  1.50000000E+00
  1.20000000E+00  1.20000000E+00  1.50000000E+00  1.20000000E+00  1.20000000E+00
  1.50000000E+00  1.20000000E+00  1.20000000E+00  1.50000000E+00  1.20000000E+00
  1.20000000E+00  1.50000000E+00  1.20000000E+00  1.20000000E+00  1.50000000E+00
  1.20000000E+00  1.20000000E+00  1.50000000E+00  1.20000000E+00  1.20000000E+00
  1.50000000E+00  1.20000000E+00  1.20000000E+00  1.50000000E+00  1.20000000E+00
  1.20000000E+00  1.50000000E+00  1.20000000E+00  1.20000000E+00  1.50000000E+00
  1.20000000E+00  1.20000000E+00  1.50000000E+00  1.20000000E+00  1.20000000E+00
  1.50000000E+00  1.20000000E+00  1.20000000E+00  1.50000000E+00  1.20000000E+00
  1.20000000E+00  1.50000000E+00  1.20000000E+00  1.20000000E+00  1.50000000E+00
  1.20000000E+00  1.20000000E+00  1.50000000E+00  1.20000000E+00  1.20000000E+00
  1.50000000E+00  1.20000000E+00  1.20000000E+00  1.50000000E+00  1.20000000E+00
  1.20000000E+00  1.50000000E+00  1.20000000E+00  1.20000000E+00  1.50000000E+00
  1.20000000E+00  1.20000000E+00  1.50000000E+00  1.20000000E+00  1.20000000E+00
  1.50000000E+00  1.20000000E+00  1.20000000E+00  1.50000000E+00  1.20000000E+00
  1.20000000E+00  1.50000000E+00  1.20000000E+00  1.20000000E+00  1.50000000E+00
  1.20000000E+00  1.20000000E+00  1.50000000E+00  1.20000000E+00  1.20000000E+00
  1.50000000E+00  1.20000000E+00  1.20000000E+00  1.50000000E+00  1.20000000E+00
  1.20000000E+00  1.50000000E+00  1.20000000E+00  1.20000000E+00  1.50000000E+00
  1.20000000E+00  1.20000000E+00  1.50000000E+00  1.20000000E+00  1.20000000E+00
  1.50000000E+00  1.20000000E+00  1.20000000E+00  1.50000000E+00  1.20000000E+00
  1.20000000E+00  1.50000000E+00  1.20000000E+00  1.20000000E+00  1.50000000E+00
  1.20000000E+00  1.20000000E+00  1.50000000E+00  1.20000000E+00  1.20000000E+00
  1.50000000E+00  1.20000000E+00  1.20000000E+00  1.50000000E+00  1.20000000E+00
  1.20000000E+00  1.50000000E+00  1.20000000E+00  1.20000000E+00  1.50000000E+00
  1.20000000E+00  1.20000000E+00  1.50000000E+00  1.20000000E+00  1.20000000E+00
  1.50000000E+00  1.20000000E+00  1.20000000E+00  1.50000000E+00  1.20000000E+00
  1.20000000E+00  1.50000000E+00  1.20000000E+00  1.20000000E+00  1.50000000E+00
  1.20000000E+00  1.20000000E+00  1.50000000E+00  1.20000000E+00  1.20000000E+00
  1.50000000E+00  1.20000000E+00  1.20000000E+00  1.50000000E+00  1.20000000E+00
  1.20000000E+00  1.50000000E+00  1.20000000E+00  1.20000000E+00  1.50000000E+00
  1.20000000E+00  1.20000000E+00  1.50000000E+00  1.20000000E+00  1.20000000E+00
  1.50000000E+00  1.20000000E+00  1.20000000E+00  1.50000000E+00  1.20000000E+00
  1.20000000E+00  1.50000000E+00  1.20000000E+00  1.20000000E+00  1.50000000E+00
  1.20000000E+00  1.20000000E+00  1.50000000E+00  1.20000000E+00  1.20000000E+00
  1.50000000E+00  1.20000000E+00  1.20000000E+00  1.50000000E+00  1.20000000E+00
  1.20000000E+00  1.50000000E+00  1.20000000E+00  1.20000000E+00  1.50000000E+00
  1.20000000E+00  1.20000000E+00  1.50000000E+00  1.20000000E+00  1.20000000E+00
  1.50000000E+00  1.20000000E+00  1.20000000E+00  1.50000000E+00  1.20000000E+00
  1.20000000E+00  1.50000000E+00  1.20000000E+00  1.20000000E+00  1.50000000E+00
  1.20000000E+00  1.20000000E+00  1.50000000E+00  1.20000000E+00  1.20000000E+00
  1.50000000E+00  1.20000000E+00  1.20000000E+00  1.50000000E+00  1.20000000E+00
  1.20000000E+00  1.50000000E+00  1.20000000E+00  1.20000000E+00  1.50000000E+00
  1.20000000E+00  1.20000000E+00  1.50000000E+00  1.20000000E+00  1.20000000E+00
  1.50000000E+00  1.20000000E+00  1.20000000E+00  1.50000000E+00  1.20000000E+00
  1.20000000E+00  1.50000000E+00  1.20000000E+00  1.20000000E+00  1.50000000E+00
  1.20000000E+00  1.20000000E+00  1.50000000E+00  1.20000000E+00  1.20000000E+00
  1.50000000E+00  1.20000000E+00  1.20000000E+00  1.50000000E+00  1.20000000E+00
  1.20000000E+00  1.50000000E+00  1.20000000E+00  1.20000000E+00  1.50000000E+00
  1.20000000E+00  1.20000000E+00  1.50000000E+00  1.20000000E+00  1.20000000E+00
  1.50000000E+00  1.20000000E+00  1.20000000E+00  1.50000000E+00  1.20000000E+00
  1.20000000E+00  1.50000000E+00  1.20000000E+00  1.20000000E+00  1.50000000E+00
  1.20000000E+00  1.20000000E+00  1.50000000E+00  1.20000000E+00  1.20000000E+00
  1.50000000E+00  1.20000000E+00  1.20000000E+00  1.50000000E+00  1.20000000E+00
  1.20000000E+00  1.50000000E+00  1.20000000E+00  1.20000000E+00  1.50000000E+00
  1.20000000E+00  1.20000000E+00  1.50000000E+00  1.20000000E+00  1.20000000E+00
  1.50000000E+00  1.20000000E+00  1.20000000E+00  1.50000000E+00  1.20000000E+00
  1.20000000E+00  1.50000000E+00  1.20000000E+00  1.20000000E+00  1.50000000E+00
  1.20000000E+00  1.20000000E+00  1.50000000E+00  1.20000000E+00  1.20000000E+00
  1.50000000E+00  1.20000000E+00  1.20000000E+00  1.50000000E+00  1.20000000E+00
  1.20000000E+00  1.50000000E+00  1.20000000E+00  1.20000000E+00  1.50000000E+00
  1.20000000E+00  1.20000000E+00  1.50000000E+00  1.20000000E+00  1.20000000E+00
  1.50000000E+00  1.20000000E+00  1.20000000E+00  1.50000000E+00  1.20000000E+00
  1.20000000E+00  1.50000000E+00  1.20000000E+00  1.20000000E+00  1.50000000E+00
  1.20000000E+00  1.20000000E+00  1.50000000E+00  1.20000000E+00  1.20000000E+00
  1.50000000E+00  1.20000000E+00  1.20000000E+00  1.50000000E+00  1.20000000E+00
  1.20000000E+00  1.50000000E+00  1.20000000E+00  1.20000000E+00  1.50000000E+00
  1.20000000E+00  1.20000000E+00  1.50000000E+00  1.20000000E+00  1.20000000E+00
  1.50000000E+00  1.20000000E+00  1.20000000E+00  1.50000000E+00  1.20000000E+00
  1.20000000E+00  1.50000000E+00  1.20000000E+00  1.20000000E+00  1.50000000E+00
  1.20000000E+00  1.20000000E+00  1.50000000E+00  1.20000000E+00  1.20000000E+00
  1.50000000E+00  1.20000000E+00  1.20000000E+00  1.50000000E+00  1.20000000E+00
  1.20000000E+00  1.50000000E+00  1.20000000E+00  1.20000000E+00  1.50000000E+00
  1.20000000E+00  1.20000000E+00  1.50000000E+00  1.20000000E+00  1.20000000E+00
  1.50000000E+00  1.20000000E+00  1.20000000E+00  1.50000000E+00  1.20000000E+00
  1.20000000E+00  1.50000000E+00  1.20000000E+00  1.20000000E+00  1.50000000E+00
  1.20000000E+00  1.20000000E+00  1.50000000E+00  1.20000000E+00  1.20000000E+00
  1.50000000E+00  1.20000000E+00  1.20000000E+00  1.50000000E+00  1.20000000E+00
  1.20000000E+00  1.50000000E+00  1.20000000E+00  1.20000000E+00  1.50000000E+00
  1.20000000E+00  1.20000000E+00  1.50000000E+00  1.20000000E+00  1.20000000E+00
  1.50000000E+00  1.20000000E+00  1.20000000E+00  1.50000000E+00  1.20000000E+00
  1.20000000E+00  1.50000000E+00  1.20000000E+00  1.20000000E+00  1.50000000E+00
  1.20000000E+00  1.20000000E+00  1.50000000E+00  1.20000000E+00  1.20000000E+00
  1.50000000E+00  1.20000000E+00  1.20000000E+00  1.50000000E+00  1.20000000E+00
  1.20000000E+00  1.50000000E+00  1.20000000E+00  1.20000000E+00  1.50000000E+00
  1.20000000E+00  1.20000000E+00  1.50000000E+00  1.20000000E+00  1.20000000E+00
  1.50000000E+00  1.20000000E+00  1.20000000E+00  1.50000000E+00  1.20000000E+00
  1.20000000E+00  1.50000000E+00  1.20000000E+00  1.20000000E+00  1.50000000E+00
  1.20000000E+00  1.20000000E+00  1.50000000E+00  1.20000000E+00  1.20000000E+00
  1.50000000E+00  1.20000000E+00  1.20000000E+00  1.50000000E+00  1.20000000E+00
  1.20000000E+00  1.50000000E+00  1.20000000E+00  1.20000000E+00  1.50000000E+00
  1.20000000E+00  1.20000000E+00  1.50000000E+00  1.20000000E+00  1.20000000E+00
  1.50000000E+00  1.20000000E+00  1.20000000E+00  1.50000000E+00  1.20000000E+00
  1.20000000E+00  1.50000000E+00  1.20000000E+00  1.20000000E+00  1.50000000E+00
  1.20000000E+00  1.20000000E+00  1.50000000E+00  1.20000000E+00  1.20000000E+00
  1.50000000E+00  1.20000000E+00  1.20000000E+00  1.50000000E+00  1.20000000E+00
  1.20000000E+00  1.50000000E+00  1.20000000E+00  1.20000000E+00  1.50000000E+00
  1.20000000E+00  1.20000000E+00  1.50000000E+00  1.20000000E+00  1.20000000E+00
  1.50000000E+00  1.20000000E+00  1.20000000E+00  1.50000000E+00  1.20000000E+00
  1.20000000E+00  1.50000000E+00  1.20000000E+00  1.20000000E+00  1.50000000E+00
  1.20000000E+00  1.20000000E+00  1.50000000E+00  1.20000000E+00  1.20000000E+00
  1.50000000E+00  1.20000000E+00  1.20000000E+00  1.50000000E+00  1.20000000E+00
  1.20000000E+00  1.50000000E+00  1.20000000E+00  1.20000000E+00  1.50000000E+00
  1.20000000E+00  1.20000000E+00  1.50000000E+00  1.20000000E+00  1.20000000E+00
  1.50000000E+00  1.20000000E+00  1.20000000E+00  1.50000000E+00  1.20000000E+00
  1.20000000E+00  1.50000000E+00  1.20000000E+00  1.20000000E+00  1.50000000E+00
  1.20000000E+00  1.20000000E+00  1.50000000E+00  1.20000000E+00  1.20000000E+00
  1.50000000E+00  1.20000000E+00  1.20000000E+00  1.50000000E+00  1.20000000E+00
  1.20000000E+00  1.50000000E+00  1.20000000E+00  1.20000000E+00  1.50000000E+00
  1.20000000E+00  1.20000000E+00  1.50000000E+00  1.20000000E+00  1.20000000E+00
  1.50000000E+00  1.20000000E+00  1.20000000E+00  1.50000000E+00  1.20000000E+00
  1.20000000E+00  1.50000000E+00  1.20000000E+00  1.20000000E+00  1.50000000E+00
  1.20000000E+00  1.20000000E+00  1.50000000E+00  1.20000000E+00  1.20000000E+00
  1.50000000E+00  1.20000000E+00  1.20000000E+00  1.50000000E+00  1.20000000E+00
  1.20000000E+00  1.50000000E+00  1.20000000E+00  1.20000000E+00  1.50000000E+00
  1.20000000E+00  1.20000000E+00  1.50000000E+00  1.20000000E+00  1.20000000E+00
  1.50000000E+00  1.20000000E+00  1.20000000E+00  1.50000000E+00  1.20000000E+00
  1.20000000E+00  1.50000000E+00  1.20000000E+00  1.20000000E+00  1.50000000E+00
  1.20000000E+00  1.20000000E+00  1.50000000E+00  1.20000000E+00  1.20000000E+00
  1.50000000E+00  1.20000000E+00  1.20000000E+00  1.50000000E+00  1.20000000E+00
  1.20000000E+00  1.50000000E+00  1.20000000E+00  1.20000000E+00  1.50000000E+00
  1.20000000E+00  1.20000000E+00  1.50000000E+00  1.20000000E+00  1.20000000E+00
  1.50000000E+00  1.20000000E+00  1.20000000E+00  1.50000000E+00  1.20000000E+00
  1.20000000E+00  1.50000000E+00  1.20000000E+00  1.20000000E+00  1.50000000E+00
  1.20000000E+00  1.20000000E+00  1.50000000E+00  1.20000000E+00  1.20000000E+00
  1.50000000E+00  1.20000000E+00  1.20000000E+00  1.50000000E+00  1.20000000E+00
  1.20000000E+00  1.50000000E+00  1.20000000E+00  1.20000000E+00  1.50000000E+00
  1.20000000E+00  1.20000000E+00  1.50000000E+00  1.20000000E+00  1.20000000E+00
  1.50000000E+00  1.20000000E+00  1.20000000E+00  1.50000000E+00  1.20000000E+00
  1.20000000E+00  1.50000000E+00  1.20000000E+00  1.20000000E+00  1.50000000E+00
  1.20000000E+00  1.20000000E+00  1.50000000E+00  1.20000000E+00  1.20000000E+00
  1.50000000E+00  1.20000000E+00  1.20000000E+00  1.50000000E+00  1.20000000E+00
  1.20000000E+00  1.50000000E+00  1.20000000E+00  1.20000000E+00  1.50000000E+00
  1.20000000E+00  1.20000000E+00  1.50000000E+00  1.20000000E+00  1.20000000E+00
  1.50000000E+00  1.20000000E+00  1.20000000E+00  1.50000000E+00  1.20000000E+00
  1.20000000E+00  1.50000000E+00  1.20000000E+00  1.20000000E+00  1.50000000E+00
  1.20000000E+00  1.20000000E+00  1.50000000E+00  1.20000000E+00  1.20000000E+00
  1.50000000E+00  1.20000000E+00  1.20000000E+00  1.50000000E+00  1.20000000E+00
  1.20000000E+00  1.50000000E+00  1.20000000E+00  1.20000000E+00  1.50000000E+00
  1.20000000E+00  1.20000000E+00  1.50000000E+00  1.20000000E+00  1.20000000E+00
  1.50000000E+00  1.20000000E+00  1.20000000E+00  1.50000000E+00  1.20000000E+00
  1.20000000E+00  1.50000000E+00  1.20000000E+00  1.20000000E+00  1.50000000E+00
  1.20000000E+00  1.20000000E+00  1.50000000E+00  1.20000000E+00  1.20000000E+00
  1.50000000E+00  1.20000000E+00  1.20000000E+00  1.50000000E+00  1.20000000E+00
  1.20000000E+00  1.50000000E+00  1.20000000E+00  1.20000000E+00  1.50000000E+00
  1.20000000E+00  1.20000000E+00  1.50000000E+00  1.20000000E+00  1.20000000E+00
  1.50000000E+00  1.20000000E+00  1.20000000E+00  1.50000000E+00  1.20000000E+00
  1.20000000E+00  1.50000000E+00  1.20000000E+00  1.20000000E+00  1.50000000E+00
  1.20000000E+00  1.20000000E+00  1.50000000E+00  1.20000000E+00  1.20000000E+00
  1.50000000E+00  1.20000000E+00  1.20000000E+00  1.50000000E+00  1.20000000E+00
  1.20000000E+00  1.50000000E+00  1.20000000E+00  1.20000000E+00  1.50000000E+00
  1.20000000E+00  1.20000000E+00  1.50000000E+00  1.20000000E+00  1.20000000E+00
  1.50000000E+00  1.20000000E+00  1.20000000E+00  1.50000000E+00  1.20000000E+00
  1.20000000E+00  1.50000000E+00  1.20000000E+00  1.20000000E+00  1.50000000E+00
  1.20000000E+00  1.20000000E+00  1.50000000E+00  1.20000000E+00  1.20000000E+00
  1.50000000E+00  1.20000000E+00  1.20000000E+00  1.50000000E+00  1.20000000E+00
  1.20000000E+00  1.50000000E+00  1.20000000E+00  1.20000000E+00  1.50000000E+00
  1.20000000E+00  1.20000000E+00  1.50000000E+00  1.20000000E+00  1.20000000E+00
  1.50000000E+00  1.20000000E+00  1.20000000E+00  1.50000000E+00  1.20000000E+00
  1.20000000E+00  1.50000000E+00  1.20000000E+00  1.20000000E+00  1.50000000E+00
  1.20000000E+00  1.20000000E+00  1.50000000E+00  1.20000000E+00  1.20000000E+00
  1.50000000E+00  1.20000000E+00  1.20000000E+00  1.50000000E+00  1.20000000E+00
  1.20000000E+00  1.50000000E+00  1.20000000E+00  1.20000000E+00  1.50000000E+00
  1.20000000E+00  1.20000000E+00  1.50000000E+00  1.20000000E+00  1.20000000E+00
  1.50000000E+00  1.20000000E+00  1.20000000E+00  1.50000000E+00  1.20000000E+00
  1.20000000E+00  1.50000000E+00  1.20000000E+00  1.20000000E+00  1.50000000E+00
  1.20000000E+00  1.20000000E+00  1.50000000E+00  1.20000000E+00  1.20000000E+00
  1.50000000E+00  1.20000000E+00  1.20000000E+00  1.50000000E+00  1.20000000E+00
  1.20000000E+00  1.50000000E+00  1.20000000E+00  1.20000000E+00  1.50000000E+00
  1.20000000E+00  1.20000000E+00  1.50000000E+00  1.20000000E+00  1.20000000E+00
  1.50000000E+00  1.20000000E+00  1.20000000E+00  1.50000000E+00  1.20000000E+00
  1.20000000E+00  1.50000000E+00  1.20000000E+00  1.20000000E+00  1.50000000E+00
  1.20000000E+00  1.20000000E+00  1.50000000E+00  1.20000000E+00  1.20000000E+00
  1.50000000E+00  1.20000000E+00  1.20000000E+00  1.50000000E+00  1.20000000E+00
  1.20000000E+00  1.50000000E+00  1.20000000E+00  1.20000000E+00  1.50000000E+00
  1.20000000E+00  1.20000000E+00  1.50000000E+00  1.20000000E+00  1.20000000E+00
  1.50000000E+00  1.20000000E+00  1.20000000E+00  1.50000000E+00  1.20000000E+00
  1.20000000E+00  1.50000000E+00  1.20000000E+00  1.20000000E+00  1.50000000E+00
  1.20000000E+00  1.20000000E+00  1.50000000E+00  1.20000000E+00  1.20000000E+00
  1.50000000E+00  1.20000000E+00  1.20000000E+00  1.50000000E+00  1.20000000E+00
  1.20000000E+00  1.50000000E+00  1.20000000E+00  1.20000000E+00  1.50000000E+00
  1.20000000E+00  1.20000000E+00  1.50000000E+00  1.20000000E+00  1.20000000E+00
  1.50000000E+00  1.20000000E+00  1.20000000E+00  1.50000000E+00  1.20000000E+00
  1.20000000E+00  1.50000000E+00  1.20000000E+00  1.20000000E+00  1.50000000E+00
  1.20000000E+00  1.20000000E+00  1.50000000E+00  1.20000000E+00  1.20000000E+00
  1.50000000E+00  1.20000000E+00  1.20000000E+00  1.50000000E+00  1.20000000E+00
  1.20000000E+00  1.50000000E+00  1.20000000E+00  1.20000000E+00  1.50000000E+00
  1.20000000E+00  1.20000000E+00  1.50000000E+00  1.20000000E+00  1.20000000E+00
  1.50000000E+00  1.20000000E+00  1.20000000E+00  1.50000000E+00  1.20000000E+00
  1.20000000E+00  1.50000000E+00  1.20000000E+00  1.20000000E+00  1.50000000E+00
  1.20000000E+00  1.20000000E+00  1.50000000E+00  1.20000000E+00  1.20000000E+00
  1.50000000E+00  1.20000000E+00  1.20000000E+00  1.50000000E+00  1.20000000E+00
  1.20000000E+00  1.50000000E+00  1.20000000E+00  1.20000000E+00  1.50000000E+00
  1.20000000E+00  1.20000000E+00  1.50000000E+00  1.20000000E+00  1.20000000E+00
  1.50000000E+00  1.20000000E+00  1.20000000E+00  1.50000000E+00  1.20000000E+00
  1.20000000E+00  1.50000000E+00  1.20000000E+00  1.20000000E+00  1.50000000E+00
  1.20000000E+00  1.20000000E+00  1.50000000E+00  1.20000000E+00  1.20000000E+00
  1.50000000E+00  1.20000000E+00  1.20000000E+00  1.50000000E+00  1.20000000E+00
  1.20000000E+00  1.50000000E+00  1.20000000E+00  1.20000000E+00  1.50000000E+00
  1.20000000E+00  1.20000000E+00  1.50000000E+00  1.20000000E+00  1.20000000E+00
  1.50000000E+00  1.20000000E+00  1.20000000E+00  1.50000000E+00  1.20000000E+00
  1.20000000E+00  1.50000000E+00  1.20000000E+00  1.20000000E+00  1.50000000E+00
  1.20000000E+00  1.20000000E+00  1.50000000E+00  1.20000000E+00  1.20000000E+00
  1.50000000E+00  1.20000000E+00  1.20000000E+00  1.50000000E+00  1.20000000E+00
  1.20000000E+00  1.50000000E+00  1.20000000E+00  1.20000000E+00  1.50000000E+00
  1.20000000E+00  1.20000000E+00  1.50000000E+00  1.20000000E+00  1.20000000E+00
  1.50000000E+00  1.20000000E+00  1.20000000E+00  1.50000000E+00  1.20000000E+00
  1.20000000E+00  1.50000000E+00  1.20000000E+00  1.20000000E+00  1.50000000E+00
  1.20000000E+00  1.20000000E+00  1.50000000E+00  1.20000000E+00  1.20000000E+00
  1.50000000E+00  1.20000000E+00  1.20000000E+00  1.50000000E+00  1.20000000E+00
  1.20000000E+00  1.50000000E+00  1.20000000E+00  1.20000000E+00  1.50000000E+00
  1.20000000E+00  1.20000000E+00  1.50000000E+00  1.20000000E+00  1.20000000E+00
  1.50000000E+00  1.20000000E+00  1.20000000E+00  1.50000000E+00  1.20000000E+00
  1.20000000E+00  1.50000000E+00  1.20000000E+00  1.20000000E+00  1.50000000E+00
  1.20000000E+00  1.20000000E+00  1.50000000E+00  1.20000000E+00  1.20000000E+00
  1.50000000E+00  1.20000000E+00  1.20000000E+00  1.50000000E+00  1.20000000E+00
  1.20000000E+00  1.50000000E+00  1.20000000E+00  1.20000000E+00  1.50000000E+00
  1.20000000E+00  1.20000000E+00  1.50000000E+00  1.20000000E+00  1.20000000E+00
  1.50000000E+00  1.20000000E+00  1.20000000E+00  1.50000000E+00  1.20000000E+00
  1.20000000E+00  1.50000000E+00  1.20000000E+00  1.20000000E+00  1.50000000E+00
  1.20000000E+00  1.20000000E+00  1.50000000E+00  1.20000000E+00  1.20000000E+00
  1.50000000E+00  1.20000000E+00  1.20000000E+00  1.50000000E+00  1.20000000E+00
  1.20000000E+00  1.50000000E+00  1.20000000E+00  1.20000000E+00  1.50000000E+00
  1.20000000E+00  1.20000000E+00  1.50000000E+00  1.20000000E+00  1.20000000E+00
  1.50000000E+00  1.20000000E+00  1.20000000E+00  1.50000000E+00  1.20000000E+00
  1.20000000E+00  1.50000000E+00  1.20000000E+00  1.20000000E+00  1.50000000E+00
  1.20000000E+00  1.20000000E+00  1.50000000E+00  1.20000000E+00  1.20000000E+00
  1.50000000E+00  1.20000000E+00  1.20000000E+00  1.50000000E+00  1.20000000E+00
  1.20000000E+00  1.50000000E+00  1.20000000E+00  1.20000000E+00  1.50000000E+00
  1.20000000E+00  1.20000000E+00  1.50000000E+00  1.20000000E+00  1.20000000E+00
  1.50000000E+00  1.20000000E+00  1.20000000E+00  1.50000000E+00  1.20000000E+00
  1.20000000E+00  1.50000000E+00  1.20000000E+00  1.20000000E+00  1.50000000E+00
  1.20000000E+00  1.20000000E+00  1.50000000E+00  1.20000000E+00  1.20000000E+00
  1.50000000E+00  1.20000000E+00  1.20000000E+00  1.50000000E+00  1.20000000E+00
  1.20000000E+00  1.50000000E+00  1.20000000E+00  1.20000000E+00  1.50000000E+00
  1.20000000E+00  1.20000000E+00  1.50000000E+00  1.20000000E+00  1.20000000E+00
  1.50000000E+00  1.20000000E+00  1.20000000E+00  1.50000000E+00  1.20000000E+00
  1.20000000E+00  1.50000000E+00  1.20000000E+00  1.20000000E+00  1.50000000E+00
  1.20000000E+00  1.20000000E+00  1.50000000E+00  1.20000000E+00  1.20000000E+00
  1.50000000E+00  1.20000000E+00  1.20000000E+00  1.50000000E+00  1.20000000E+00
  1.20000000E+00  1.50000000E+00  1.20000000E+00  1.20000000E+00  1.50000000E+00
  1.20000000E+00  1.20000000E+00  1.50000000E+00  1.20000000E+00  1.20000000E+00
  1.50000000E+00  1.20000000E+00  1.20000000E+00  1.50000000E+00  1.20000000E+00
  1.20000000E+00  1.50000000E+00  1.20000000E+00  1.20000000E+00  1.50000000E+00
  1.20000000E+00  1.20000000E+00  1.50000000E+00  1.20000000E+00  1.20000000E+00
  1.50000000E+00  1.20000000E+00  1.20000000E+00  1.50000000E+00  1.20000000E+00
  1.20000000E+00  1.50000000E+00  1.20000000E+00  1.20000000E+00  1.50000000E+00
  1.20000000E+00  1.20000000E+00  1.50000000E+00  1.20000000E+00  1.20000000E+00
  1.50000000E+00  1.20000000E+00  1.20000000E+00  1.50000000E+00  1.20000000E+00
  1.20000000E+00  1.50000000E+00  1.20000000E+00  1.20000000E+00  1.50000000E+00
  1.20000000E+00  1.20000000E+00  1.50000000E+00  1.20000000E+00  1.20000000E+00
  1.50000000E+00  1.20000000E+00  1.20000000E+00  1.50000000E+00  1.20000000E+00
  1.20000000E+00  1.50000000E+00  1.20000000E+00  1.20000000E+00  1.50000000E+00
  1.20000000E+00  1.20000000E+00  1.50000000E+00  1.20000000E+00  1.20000000E+00
  1.50000000E+00  1.20000000E+00  1.20000000E+00  1.50000000E+00  1.20000000E+00
  1.20000000E+00  1.50000000E+00  1.20000000E+00  1.20000000E+00  1.50000000E+00
  1.20000000E+00  1.20000000E+00  1.50000000E+00  1.20000000E+00  1.20000000E+00
  1.50000000E+00  1.20000000E+00  1.20000000E+00  1.50000000E+00  1.20000000E+00
  1.20000000E+00  1.50000000E+00  1.20000000E+00  1.20000000E+00  1.50000000E+00
  1.20000000E+00  1.20000000E+00  1.50000000E+00  1.20000000E+00  1.20000000E+00
  1.50000000E+00  1.20000000E+00  1.20000000E+00  1.50000000E+00  1.20000000E+00
  1.20000000E+00  1.50000000E+00  1.20000000E+00  1.20000000E+00  1.50000000E+00
  1.20000000E+00  1.20000000E+00  1.50000000E+00  1.20000000E+00  1.20000000E+00
  1.50000000E+00  1.20000000E+00  1.20000000E+00  1.50000000E+00  1.20000000E+00
  1.20000000E+00  1.50000000E+00  1.20000000E+00  1.20000000E+00  1.50000000E+00
  1.20000000E+00  1.20000000E+00  1.50000000E+00  1.20000000E+00  1.20000000E+00
  1.50000000E+00  1.20000000E+00  1.20000000E+00  1.50000000E+00  1.20000000E+00
  1.20000000E+00  1.50000000E+00  1.20000000E+00  1.20000000E+00  1.50000000E+00
  1.20000000E+00  1.20000000E+00  1.50000000E+00  1.20000000E+00  1.20000000E+00
  1.50000000E+00  1.20000000E+00  1.20000000E+00  1.50000000E+00  1.20000000E+00
  1.20000000E+00  1.50000000E+00  1.20000000E+00  1.20000000E+00  1.50000000E+00
  1.20000000E+00  1.20000000E+00  1.50000000E+00  1.20000000E+00  1.20000000E+00
  1.50000000E+00  1.20000000E+00  1.20000000E+00  1.50000000E+00  1.20000000E+00
  1.20000000E+00  1.50000000E+00  1.20000000E+00  1.20000000E+00  1.50000000E+00
  1.20000000E+00  1.20000000E+00  1.50000000E+00  1.20000000E+00  1.20000000E+00
  1.50000000E+00  1.20000000E+00  1.20000000E+00  1.50000000E+00  1.20000000E+00
  1.20000000E+00  1.50000000E+00  1.20000000E+00  1.20000000E+00  1.50000000E+00
  1.20000000E+00  1.20000000E+00  1.50000000E+00  1.20000000E+00  1.20000000E+00
  1.50000000E+00  1.20000000E+00  1.20000000E+00  1.50000000E+00  1.20000000E+00
  1.20000000E+00  1.50000000E+00  1.20000000E+00  1.20000000E+00  1.50000000E+00
  1.20000000E+00  1.20000000E+00  1.50000000E+00  1.20000000E+00  1.20000000E+00
  1.50000000E+00  1.20000000E+00  1.20000000E+00  1.50000000E+00  1.20000000E+00
  1.20000000E+00  1.50000000E+00  1.20000000E+00  1.20000000E+00  1.50000000E+00
  1.20000000E+00  1.20000000E+00  1.50000000E+00  1.20000000E+00  1.20000000E+00
  1.50000000E+00  1.20000000E+00  1.20000000E+00  1.50000000E+00  1.20000000E+00
  1.20000000E+00  1.50000000E+00  1.20000000E+00  1.20000000E+00  1.50000000E+00
  1.20000000E+00  1.20000000E+00  1.50000000E+00  1.20000000E+00  1.20000000E+00
  1.50000000E+00  1.20000000E+00  1.20000000E+00  1.50000000E+00  1.20000000E+00
  1.20000000E+00  1.50000000E+00  1.20000000E+00  1.20000000E+00  1.50000000E+00
  1.20000000E+00  1.20000000E+00  1.50000000E+00  1.20000000E+00  1.20000000E+00
  1.50000000E+00  1.20000000E+00  1.20000000E+00  1.50000000E+00  1.20000000E+00
  1.20000000E+00  1.50000000E+00  1.20000000E+00  1.20000000E+00  1.50000000E+00
  1.20000000E+00  1.20000000E+00  1.50000000E+00  1.20000000E+00  1.20000000E+00
  1.50000000E+00  1.20000000E+00  1.20000000E+00  1.50000000E+00  1.20000000E+00
  1.20000000E+00  1.50000000E+00  1.20000000E+00  1.20000000E+00  1.50000000E+00
  1.20000000E+00  1.20000000E+00  1.50000000E+00  1.20000000E+00  1.20000000E+00
  1.50000000E+00  1.20000000E+00  1.20000000E+00  1.50000000E+00  1.20000000E+00
  1.20000000E+00  1.50000000E+00  1.20000000E+00  1.20000000E+00  1.50000000E+00
  1.20000000E+00  1.20000000E+00  1.50000000E+00  1.20000000E+00  1.20000000E+00
  1.50000000E+00  1.20000000E+00  1.20000000E+00  1.50000000E+00  1.20000000E+00
  1.20000000E+00  1.50000000E+00  1.20000000E+00  1.20000000E+00  1.50000000E+00
  1.20000000E+00  1.20000000E+00  1.50000000E+00  1.20000000E+00  1.20000000E+00
  1.50000000E+00  1.20000000E+00  1.20000000E+00  1.50000000E+00  1.20000000E+00
  1.20000000E+00  1.50000000E+00  1.20000000E+00  1.20000000E+00  1.50000000E+00
  1.20000000E+00  1.20000000E+00  1.50000000E+00  1.20000000E+00  1.20000000E+00
  1.50000000E+00  1.20000000E+00  1.20000000E+00  1.50000000E+00  1.20000000E+00
  1.20000000E+00  1.50000000E+00  1.20000000E+00  1.20000000E+00  1.50000000E+00
  1.20000000E+00  1.20000000E+00  1.50000000E+00  1.20000000E+00  1.20000000E+00
  1.50000000E+00  1.20000000E+00  1.20000000E+00  1.50000000E+00  1.20000000E+00
  1.20000000E+00  1.50000000E+00  1.20000000E+00  1.20000000E+00  1.50000000E+00
  1.20000000E+00  1.20000000E+00  1.50000000E+00  1.20000000E+00  1.20000000E+00
  1.50000000E+00  1.20000000E+00  1.20000000E+00  1.50000000E+00  1.20000000E+00
  1.20000000E+00  1.50000000E+00  1.20000000E+00  1.20000000E+00  1.50000000E+00
  1.20000000E+00  1.20000000E+00  1.50000000E+00  1.20000000E+00  1.20000000E+00
  1.50000000E+00  1.20000000E+00  1.20000000E+00  1.50000000E+00  1.20000000E+00
  1.20000000E+00  1.50000000E+00  1.20000000E+00  1.20000000E+00  1.50000000E+00
  1.20000000E+00  1.20000000E+00  1.50000000E+00  1.20000000E+00  1.20000000E+00
  1.50000000E+00  1.20000000E+00  1.20000000E+00  1.50000000E+00  1.20000000E+00
  1.20000000E+00  1.50000000E+00  1.20000000E+00  1.20000000E+00  1.50000000E+00
  1.20000000E+00  1.20000000E+00  1.50000000E+00  1.20000000E+00  1.20000000E+00
  1.50000000E+00  1.20000000E+00  1.20000000E+00  1.50000000E+00  1.20000000E+00
  1.20000000E+00  1.50000000E+00  1.20000000E+00  1.20000000E+00  1.50000000E+00
  1.20000000E+00  1.20000000E+00  1.50000000E+00  1.20000000E+00  1.20000000E+00
  1.50000000E+00  1.20000000E+00  1.20000000E+00  1.50000000E+00  1.20000000E+00
  1.20000000E+00  1.50000000E+00  1.20000000E+00  1.20000000E+00  1.50000000E+00
  1.20000000E+00  1.20000000E+00  1.50000000E+00  1.20000000E+00  1.20000000E+00
  1.50000000E+00  1.20000000E+00  1.20000000E+00  1.50000000E+00  1.20000000E+00
  1.20000000E+00  1.50000000E+00  1.20000000E+00  1.20000000E+00  1.50000000E+00
  1.20000000E+00  1.20000000E+00  1.50000000E+00  1.20000000E+00  1.20000000E+00
  1.50000000E+00  1.20000000E+00  1.20000000E+00  1.50000000E+00  1.20000000E+00
  1.20000000E+00  1.50000000E+00  1.20000000E+00  1.20000000E+00  1.50000000E+00
  1.20000000E+00  1.20000000E+00  1.50000000E+00  1.20000000E+00  1.20000000E+00
  1.50000000E+00  1.20000000E+00  1.20000000E+00  1.50000000E+00  1.20000000E+00
  1.20000000E+00  1.50000000E+00  1.20000000E+00  1.20000000E+00  1.50000000E+00
  1.20000000E+00  1.20000000E+00  1.50000000E+00  1.20000000E+00  1.20000000E+00
  1.50000000E+00  1.20000000E+00  1.20000000E+00  1.50000000E+00  1.20000000E+00
  1.20000000E+00  1.50000000E+00  1.20000000E+00  1.20000000E+00  1.50000000E+00
  1.20000000E+00  1.20000000E+00  1.50000000E+00  1.20000000E+00  1.20000000E+00
  1.50000000E+00  1.20000000E+00  1.20000000E+00  1.50000000E+00  1.20000000E+00
  1.20000000E+00  1.50000000E+00  1.20000000E+00  1.20000000E+00  1.50000000E+00
  1.20000000E+00  1.20000000E+00  1.50000000E+00  1.20000000E+00  1.20000000E+00
  1.50000000E+00  1.20000000E+00  1.20000000E+00  1.50000000E+00  1.20000000E+00
  1.20000000E+00  1.50000000E+00  1.20000000E+00  1.20000000E+00  1.50000000E+00
  1.20000000E+00  1.20000000E+00  1.50000000E+00  1.20000000E+00  1.20000000E+00
  1.50000000E+00  1.20000000E+00  1.20000000E+00  1.50000000E+00  1.20000000E+00
  1.20000000E+00  1.50000000E+00  1.20000000E+00  1.20000000E+00  1.50000000E+00
  1.20000000E+00  1.20000000E+00  1.50000000E+00  1.20000000E+00  1.20000000E+00
  1.50000000E+00  1.20000000E+00  1.20000000E+00  1.50000000E+00  1.20000000E+00
  1.20000000E+00  1.50000000E+00  1.20000000E+00  1.20000000E+00  1.50000000E+00
  1.20000000E+00  1.20000000E+00  1.50000000E+00  1.20000000E+00  1.20000000E+00
  1.50000000E+00  1.20000000E+00  1.20000000E+00  1.50000000E+00  1.20000000E+00
  1.20000000E+00  1.50000000E+00  1.20000000E+00  1.20000000E+00  1.50000000E+00
  1.20000000E+00  1.20000000E+00  1.50000000E+00  1.20000000E+00  1.20000000E+00
  1.50000000E+00  1.20000000E+00  1.20000000E+00  1.50000000E+00  1.20000000E+00
  1.20000000E+00  1.50000000E+00  1.20000000E+00  1.20000000E+00  1.50000000E+00
  1.20000000E+00  1.20000000E+00  1.50000000E+00  1.20000000E+00  1.20000000E+00
  1.50000000E+00  1.20000000E+00  1.20000000E+00  1.50000000E+00  1.20000000E+00
  1.20000000E+00  1.50000000E+00  1.20000000E+00  1.20000000E+00  1.50000000E+00
  1.20000000E+00  1.20000000E+00  1.50000000E+00  1.20000000E+00  1.20000000E+00
  1.50000000E+00  1.20000000E+00  1.20000000E+00  1.50000000E+00  1.20000000E+00
  1.20000000E+00  1.50000000E+00  1.20000000E+00  1.20000000E+00  1.50000000E+00
  1.20000000E+00  1.20000000E+00  1.50000000E+00  1.20000000E+00  1.20000000E+00
  1.50000000E+00  1.20000000E+00  1.20000000E+00  1.50000000E+00  1.20000000E+00
  1.20000000E+00  1.50000000E+00  1.20000000E+00  1.20000000E+00  1.50000000E+00
  1.20000000E+00  1.20000000E+00  1.50000000E+00  1.20000000E+00  1.20000000E+00
  1.50000000E+00  1.20000000E+00  1.20000000E+00  1.50000000E+00  1.20000000E+00
  1.20000000E+00  1.50000000E+00  1.20000000E+00  1.20000000E+00  1.50000000E+00
  1.20000000E+00  1.20000000E+00  1.50000000E+00  1.20000000E+00  1.20000000E+00
  1.50000000E+00  1.20000000E+00  1.20000000E+00  1.50000000E+00  1.20000000E+00
  1.20000000E+00  1.50000000E+00  1.20000000E+00  1.20000000E+00  1.50000000E+00
  1.20000000E+00  1.20000000E+00  1.50000000E+00  1.20000000E+00  1.20000000E+00
  1.50000000E+00  1.20000000E+00  1.20000000E+00  1.50000000E+00  1.20000000E+00
  1.20000000E+00  1.50000000E+00  1.20000000E+00  1.20000000E+00  1.50000000E+00
  1.20000000E+00  1.20000000E+00  1.50000000E+00  1.20000000E+00  1.20000000E+00
  1.50000000E+00  1.20000000E+00  1.20000000E+00  1.50000000E+00  1.20000000E+00
  1.20000000E+00  1.50000000E+00  1.20000000E+00  1.20000000E+00  1.50000000E+00
  1.20000000E+00  1.20000000E+00  1.50000000E+00  1.20000000E+00  1.20000000E+00
  1.50000000E+00  1.20000000E+00  1.20000000E+00  1.50000000E+00  1.20000000E+00
  1.20000000E+00  1.50000000E+00  1.20000000E+00  1.20000000E+00  1.50000000E+00
  1.20000000E+00  1.20000000E+00  1.50000000E+00  1.20000000E+00  1.20000000E+00
  1.50000000E+00  1.20000000E+00  1.20000000E+00  1.50000000E+00  1.20000000E+00
  1.20000000E+00  1.50000000E+00  1.20000000E+00  1.20000000E+00  1.50000000E+00
  1.20000000E+00  1.20000000E+00  1.50000000E+00  1.20000000E+00  1.20000000E+00
  1.50000000E+00  1.20000000E+00  1.20000000E+00  1.50000000E+00  1.20000000E+00
  1.20000000E+00  1.50000000E+00  1.20000000E+00  1.20000000E+00  1.50000000E+00
  1.20000000E+00  1.20000000E+00  1.50000000E+00  1.20000000E+00  1.20000000E+00
  1.50000000E+00  1.20000000E+00  1.20000000E+00  1.50000000E+00  1.20000000E+00
  1.20000000E+00  1.50000000E+00  1.20000000E+00  1.20000000E+00  1.50000000E+00
  1.20000000E+00  1.20000000E+00  1.50000000E+00  1.20000000E+00  1.20000000E+00
  1.50000000E+00  1.20000000E+00  1.20000000E+00  1.50000000E+00  1.20000000E+00
  1.20000000E+00  1.50000000E+00  1.20000000E+00  1.20000000E+00  1.50000000E+00
  1.20000000E+00  1.20000000E+00  1.50000000E+00  1.20000000E+00  1.20000000E+00
  1.50000000E+00  1.20000000E+00  1.20000000E+00  1.50000000E+00  1.20000000E+00
  1.20000000E+00  1.50000000E+00  1.20000000E+00  1.20000000E+00  1.50000000E+00
  1.20000000E+00  1.20000000E+00  1.50000000E+00  1.20000000E+00  1.20000000E+00
  1.50000000E+00  1.20000000E+00  1.20000000E+00  1.50000000E+00  1.20000000E+00
  1.20000000E+00  1.50000000E+00  1.20000000E+00  1.20000000E+00  1.50000000E+00
  1.20000000E+00  1.20000000E+00  1.50000000E+00  1.20000000E+00  1.20000000E+00
  1.50000000E+00  1.20000000E+00  1.20000000E+00  1.50000000E+00  1.20000000E+00
  1.20000000E+00  1.50000000E+00  1.20000000E+00  1.20000000E+00  1.50000000E+00
  1.20000000E+00  1.20000000E+00  1.50000000E+00  1.20000000E+00  1.20000000E+00
  1.50000000E+00  1.20000000E+00  1.20000000E+00  1.50000000E+00  1.20000000E+00
  1.20000000E+00  1.50000000E+00  1.20000000E+00  1.20000000E+00  1.50000000E+00
  1.20000000E+00  1.20000000E+00  1.50000000E+00  1.20000000E+00  1.20000000E+00
  1.50000000E+00  1.20000000E+00  1.20000000E+00  1.50000000E+00  1.20000000E+00
  1.20000000E+00  1.50000000E+00  1.20000000E+00  1.20000000E+00  1.50000000E+00
  1.20000000E+00  1.20000000E+00  1.50000000E+00  1.20000000E+00  1.20000000E+00
  1.50000000E+00  1.20000000E+00  1.20000000E+00  1.50000000E+00  1.20000000E+00
  1.20000000E+00  1.50000000E+00  1.20000000E+00  1.20000000E+00  1.50000000E+00
  1.20000000E+00  1.20000000E+00  1.50000000E+00  1.20000000E+00  1.20000000E+00
  1.50000000E+00  1.20000000E+00  1.20000000E+00  1.50000000E+00  1.20000000E+00
  1.20000000E+00  1.50000000E+00  1.20000000E+00  1.20000000E+00  1.50000000E+00
  1.20000000E+00  1.20000000E+00  1.50000000E+00  1.20000000E+00  1.20000000E+00
  1.50000000E+00  1.20000000E+00  1.20000000E+00  1.50000000E+00  1.20000000E+00
  1.20000000E+00  1.50000000E+00  1.20000000E+00  1.20000000E+00  1.50000000E+00
  1.20000000E+00  1.20000000E+00  1.50000000E+00  1.20000000E+00  1.20000000E+00
  1.50000000E+00  1.20000000E+00  1.20000000E+00  1.50000000E+00  1.20000000E+00
  1.20000000E+00  1.50000000E+00  1.20000000E+00  1.20000000E+00  1.50000000E+00
  1.20000000E+00  1.20000000E+00  1.50000000E+00  1.20000000E+00  1.20000000E+00
  1.50000000E+00  1.20000000E+00  1.20000000E+00  1.50000000E+00  1.20000000E+00
  1.20000000E+00  1.50000000E+00  1.20000000E+00  1.20000000E+00  1.50000000E+00
  1.20000000E+00  1.20000000E+00  1.50000000E+00  1.20000000E+00  1.20000000E+00
  1.50000000E+00  1.20000000E+00  1.20000000E+00  1.50000000E+00  1.20000000E+00
  1.20000000E+00  1.50000000E+00  1.20000000E+00  1.20000000E+00  1.50000000E+00
  1.20000000E+00  1.20000000E+00  1.50000000E+00  1.20000000E+00  1.20000000E+00
  1.50000000E+00  1.20000000E+00  1.20000000E+00  1.50000000E+00  1.20000000E+00
  1.20000000E+00  1.50000000E+00  1.20000000E+00  1.20000000E+00  1.50000000E+00
  1.20000000E+00  1.20000000E+00  1.50000000E+00  1.20000000E+00  1.20000000E+00
  1.50000000E+00  1.20000000E+00  1.20000000E+00  1.50000000E+00  1.20000000E+00
  1.20000000E+00  1.50000000E+00  1.20000000E+00  1.20000000E+00  1.50000000E+00
  1.20000000E+00  1.20000000E+00  1.50000000E+00  1.20000000E+00  1.20000000E+00
  1.50000000E+00  1.20000000E+00  1.20000000E+00  1.50000000E+00  1.20000000E+00
  1.20000000E+00  1.50000000E+00  1.20000000E+00  1.20000000E+00  1.50000000E+00
  1.20000000E+00  1.20000000E+00  1.50000000E+00  1.20000000E+00  1.20000000E+00
  1.50000000E+00  1.20000000E+00  1.20000000E+00  1.50000000E+00  1.20000000E+00
  1.20000000E+00  1.50000000E+00  1.20000000E+00  1.20000000E+00  1.50000000E+00
  1.20000000E+00  1.20000000E+00  1.50000000E+00  1.20000000E+00  1.20000000E+00
  1.50000000E+00  1.20000000E+00  1.20000000E+00  1.50000000E+00  1.20000000E+00
  1.20000000E+00  1.50000000E+00  1.20000000E+00  1.20000000E+00  1.50000000E+00
  1.20000000E+00  1.20000000E+00  1.50000000E+00  1.20000000E+00  1.20000000E+00
  1.50000000E+00  1.20000000E+00  1.20000000E+00  1.50000000E+00  1.20000000E+00
  1.20000000E+00  1.50000000E+00  1.20000000E+00  1.20000000E+00  1.50000000E+00
  1.20000000E+00  1.20000000E+00  1.50000000E+00  1.20000000E+00  1.20000000E+00
  1.50000000E+00  1.20000000E+00  1.20000000E+00  1.50000000E+00  1.20000000E+00
  1.20000000E+00  1.50000000E+00  1.20000000E+00  1.20000000E+00  1.50000000E+00
  1.20000000E+00  1.20000000E+00  1.50000000E+00  1.20000000E+00  1.20000000E+00
  1.50000000E+00  1.20000000E+00  1.20000000E+00  1.50000000E+00  1.20000000E+00
  1.20000000E+00  1.50000000E+00  1.20000000E+00  1.20000000E+00  1.50000000E+00
  1.20000000E+00  1.20000000E+00  1.50000000E+00  1.20000000E+00  1.20000000E+00
  1.50000000E+00  1.20000000E+00  1.20000000E+00  1.50000000E+00  1.20000000E+00
  1.20000000E+00  1.50000000E+00  1.20000000E+00  1.20000000E+00  1.50000000E+00
  1.20000000E+00  1.20000000E+00  1.50000000E+00  1.20000000E+00  1.20000000E+00
  1.50000000E+00  1.20000000E+00  1.20000000E+00  1.50000000E+00  1.20000000E+00
  1.20000000E+00  1.50000000E+00  1.20000000E+00  1.20000000E+00  1.50000000E+00
  1.20000000E+00  1.20000000E+00  1.50000000E+00  1.20000000E+00  1.20000000E+00
  1.50000000E+00  1.20000000E+00  1.20000000E+00  1.50000000E+00  1.20000000E+00
  1.20000000E+00  1.50000000E+00  1.20000000E+00  1.20000000E+00  1.50000000E+00
  1.20000000E+00  1.20000000E+00  1.50000000E+00  1.20000000E+00  1.20000000E+00
  1.50000000E+00  1.20000000E+00  1.20000000E+00  1.50000000E+00  1.20000000E+00
  1.20000000E+00  1.50000000E+00  1.20000000E+00  1.20000000E+00  1.50000000E+00
  1.20000000E+00  1.20000000E+00  1.50000000E+00  1.20000000E+00  1.20000000E+00
  1.50000000E+00  1.20000000E+00  1.20000000E+00  1.50000000E+00  1.20000000E+00
  1.20000000E+00  1.50000000E+00  1.20000000E+00  1.20000000E+00  1.50000000E+00
  1.20000000E+00  1.20000000E+00  1.50000000E+00  1.20000000E+00  1.20000000E+00
  1.50000000E+00  1.20000000E+00  1.20000000E+00  1.50000000E+00  1.20000000E+00
  1.20000000E+00  1.50000000E+00  1.20000000E+00  1.20000000E+00  1.50000000E+00
  1.20000000E+00  1.20000000E+00  1.50000000E+00  1.20000000E+00  1.20000000E+00
  1.50000000E+00  1.20000000E+00  1.20000000E+00  1.50000000E+00  1.20000000E+00
  1.20000000E+00  1.50000000E+00  1.20000000E+00  1.20000000E+00  1.50000000E+00
  1.20000000E+00  1.20000000E+00  1.50000000E+00  1.20000000E+00  1.20000000E+00
  1.50000000E+00  1.20000000E+00  1.20000000E+00  1.50000000E+00  1.20000000E+00
  1.20000000E+00  1.50000000E+00  1.20000000E+00  1.20000000E+00  1.50000000E+00
  1.20000000E+00  1.20000000E+00  1.50000000E+00  1.20000000E+00  1.20000000E+00
  1.50000000E+00  1.20000000E+00  1.20000000E+00  1.50000000E+00  1.20000000E+00
  1.20000000E+00  1.50000000E+00  1.20000000E+00  1.20000000E+00  1.50000000E+00
  1.20000000E+00  1.20000000E+00  1.50000000E+00  1.20000000E+00  1.20000000E+00
  1.50000000E+00  1.20000000E+00  1.20000000E+00  1.50000000E+00  1.20000000E+00
  1.20000000E+00  1.50000000E+00  1.20000000E+00  1.20000000E+00  1.50000000E+00
  1.20000000E+00  1.20000000E+00  1.50000000E+00  1.20000000E+00  1.20000000E+00
  1.50000000E+00  1.20000000E+00  1.20000000E+00  1.50000000E+00  1.20000000E+00
  1.20000000E+00  1.50000000E+00  1.20000000E+00  1.20000000E+00  1.50000000E+00
  1.20000000E+00  1.20000000E+00  1.50000000E+00  1.20000000E+00  1.20000000E+00
  1.50000000E+00  1.20000000E+00  1.20000000E+00  1.50000000E+00  1.20000000E+00
  1.20000000E+00  1.50000000E+00  1.20000000E+00  1.20000000E+00  1.50000000E+00
  1.20000000E+00  1.20000000E+00  1.50000000E+00  1.20000000E+00  1.20000000E+00
  1.50000000E+00  1.20000000E+00  1.20000000E+00  1.50000000E+00  1.20000000E+00
  1.20000000E+00  1.50000000E+00  1.20000000E+00  1.20000000E+00  1.50000000E+00
  1.20000000E+00  1.20000000E+00  1.50000000E+00  1.20000000E+00  1.20000000E+00
  1.50000000E+00  1.20000000E+00  1.20000000E+00  1.50000000E+00  1.20000000E+00
  1.20000000E+00  1.50000000E+00  1.20000000E+00  1.20000000E+00  1.50000000E+00
  1.20000000E+00  1.20000000E+00  1.50000000E+00  1.20000000E+00  1.20000000E+00
  1.50000000E+00  1.20000000E+00  1.20000000E+00  1.50000000E+00  1.20000000E+00
  1.20000000E+00  1.50000000E+00  1.20000000E+00  1.20000000E+00  1.50000000E+00
  1.20000000E+00  1.20000000E+00  1.50000000E+00  1.20000000E+00  1.20000000E+00
  1.50000000E+00  1.20000000E+00  1.20000000E+00  1.50000000E+00  1.20000000E+00
  1.20000000E+00  1.50000000E+00  1.20000000E+00  1.20000000E+00  1.50000000E+00
  1.20000000E+00  1.20000000E+00  1.50000000E+00  1.20000000E+00  1.20000000E+00
  1.50000000E+00  1.20000000E+00  1.20000000E+00  1.50000000E+00  1.20000000E+00
  1.20000000E+00  1.50000000E+00  1.20000000E+00  1.20000000E+00  1.50000000E+00
  1.20000000E+00  1.20000000E+00  1.50000000E+00  1.20000000E+00  1.20000000E+00
  1.50000000E+00  1.20000000E+00  1.20000000E+00  1.50000000E+00  1.20000000E+00
  1.20000000E+00  1.50000000E+00  1.20000000E+00  1.20000000E+00  1.50000000E+00
  1.20000000E+00  1.20000000E+00  1.50000000E+00  1.20000000E+00  1.20000000E+00
  1.50000000E+00  1.20000000E+00  1.20000000E+00  1.50000000E+00  1.20000000E+00
  1.20000000E+00  1.50000000E+00  1.20000000E+00  1.20000000E+00  1.50000000E+00
  1.20000000E+00  1.20000000E+00  1.50000000E+00  1.20000000E+00  1.20000000E+00
  1.50000000E+00  1.20000000E+00  1.20000000E+00  1.50000000E+00  1.20000000E+00
  1.20000000E+00  1.50000000E+00  1.20000000E+00  1.20000000E+00  1.50000000E+00
  1.20000000E+00  1.20000000E+00  1.50000000E+00  1.20000000E+00  1.20000000E+00
  1.50000000E+00  1.20000000E+00  1.20000000E+00  1.50000000E+00  1.20000000E+00
  1.20000000E+00  1.50000000E+00  1.20000000E+00  1.20000000E+00  1.50000000E+00
  1.20000000E+00  1.20000000E+00  1.50000000E+00  1.20000000E+00  1.20000000E+00
  1.50000000E+00  1.20000000E+00  1.20000000E+00  1.50000000E+00  1.20000000E+00
  1.20000000E+00  1.50000000E+00  1.20000000E+00  1.20000000E+00  1.50000000E+00
  1.20000000E+00  1.20000000E+00  1.50000000E+00  1.20000000E+00  1.20000000E+00
  1.50000000E+00  1.20000000E+00  1.20000000E+00  1.50000000E+00  1.20000000E+00
  1.20000000E+00  1.50000000E+00  1.20000000E+00  1.20000000E+00  1.50000000E+00
  1.20000000E+00  1.20000000E+00  1.50000000E+00  1.20000000E+00  1.20000000E+00
  1.50000000E+00  1.20000000E+00  1.20000000E+00  1.50000000E+00  1.20000000E+00
  1.20000000E+00  1.50000000E+00  1.20000000E+00  1.20000000E+00  1.50000000E+00
  1.20000000E+00  1.20000000E+00  1.50000000E+00  1.20000000E+00  1.20000000E+00
  1.50000000E+00  1.20000000E+00  1.20000000E+00  1.50000000E+00  1.20000000E+00
  1.20000000E+00  1.50000000E+00  1.20000000E+00  1.20000000E+00  1.50000000E+00
  1.20000000E+00  1.20000000E+00  1.50000000E+00  1.20000000E+00  1.20000000E+00
  1.50000000E+00  1.20000000E+00  1.20000000E+00  1.50000000E+00  1.20000000E+00
  1.20000000E+00  1.50000000E+00  1.20000000E+00  1.20000000E+00  1.50000000E+00
  1.20000000E+00  1.20000000E+00  1.50000000E+00  1.20000000E+00  1.20000000E+00
  1.50000000E+00  1.20000000E+00  1.20000000E+00  1.50000000E+00  1.20000000E+00
  1.20000000E+00  1.50000000E+00  1.20000000E+00  1.20000000E+00  1.50000000E+00
  1.20000000E+00  1.20000000E+00  1.50000000E+00  1.20000000E+00  1.20000000E+00
  1.50000000E+00  1.20000000E+00  1.20000000E+00  1.50000000E+00  1.20000000E+00
  1.20000000E+00  1.50000000E+00  1.20000000E+00  1.20000000E+00  1.50000000E+00
  1.20000000E+00  1.20000000E+00  1.50000000E+00  1.20000000E+00  1.20000000E+00
  1.50000000E+00  1.20000000E+00  1.20000000E+00  1.50000000E+00  1.20000000E+00
  1.20000000E+00  1.50000000E+00  1.20000000E+00  1.20000000E+00  1.50000000E+00
  1.20000000E+00  1.20000000E+00  1.50000000E+00  1.20000000E+00  1.20000000E+00
  1.50000000E+00  1.20000000E+00  1.20000000E+00  1.50000000E+00  1.20000000E+00
  1.20000000E+00  1.50000000E+00  1.20000000E+00  1.20000000E+00  1.50000000E+00
  1.20000000E+00  1.20000000E+00  1.50000000E+00  1.20000000E+00  1.20000000E+00
  1.50000000E+00  1.20000000E+00  1.20000000E+00  1.50000000E+00  1.20000000E+00
  1.20000000E+00  1.50000000E+00  1.20000000E+00  1.20000000E+00  1.50000000E+00
  1.20000000E+00  1.20000000E+00  1.50000000E+00  1.20000000E+00  1.20000000E+00
  1.50000000E+00  1.20000000E+00  1.20000000E+00  1.50000000E+00  1.20000000E+00
  1.20000000E+00  1.50000000E+00  1.20000000E+00  1.20000000E+00  1.50000000E+00
  1.20000000E+00  1.20000000E+00  1.50000000E+00  1.20000000E+00  1.20000000E+00
  1.50000000E+00  1.20000000E+00  1.20000000E+00  1.50000000E+00  1.20000000E+00
  1.20000000E+00  1.50000000E+00  1.20000000E+00  1.20000000E+00  1.50000000E+00
  1.20000000E+00  1.20000000E+00  1.50000000E+00  1.20000000E+00  1.20000000E+00
  1.50000000E+00  1.20000000E+00  1.20000000E+00  1.50000000E+00  1.20000000E+00
  1.20000000E+00  1.50000000E+00  1.20000000E+00  1.20000000E+00  1.50000000E+00
  1.20000000E+00  1.20000000E+00  1.50000000E+00  1.20000000E+00  1.20000000E+00
  1.50000000E+00  1.20000000E+00  1.20000000E+00  1.50000000E+00  1.20000000E+00
  1.20000000E+00  1.50000000E+00  1.20000000E+00  1.20000000E+00  1.50000000E+00
  1.20000000E+00  1.20000000E+00  1.50000000E+00  1.20000000E+00  1.20000000E+00
  1.50000000E+00  1.20000000E+00  1.20000000E+00  1.50000000E+00  1.20000000E+00
  1.20000000E+00  1.50000000E+00  1.20000000E+00  1.20000000E+00  1.50000000E+00
  1.20000000E+00  1.20000000E+00  1.50000000E+00  1.20000000E+00  1.20000000E+00
  1.50000000E+00  1.20000000E+00  1.20000000E+00  1.50000000E+00  1.20000000E+00
  1.20000000E+00  1.50000000E+00  1.20000000E+00  1.20000000E+00  1.50000000E+00
  1.20000000E+00  1.20000000E+00  1.50000000E+00  1.20000000E+00  1.20000000E+00
  1.50000000E+00  1.20000000E+00  1.20000000E+00  1.50000000E+00  1.20000000E+00
  1.20000000E+00  1.50000000E+00  1.20000000E+00  1.20000000E+00  1.50000000E+00
  1.20000000E+00  1.20000000E+00  1.50000000E+00  1.20000000E+00  1.20000000E+00
  1.50000000E+00  1.20000000E+00  1.20000000E+00  1.50000000E+00  1.20000000E+00
  1.20000000E+00  1.50000000E+00  1.20000000E+00  1.20000000E+00  1.50000000E+00
  1.20000000E+00  1.20000000E+00  1.50000000E+00  1.20000000E+00  1.20000000E+00
  1.50000000E+00  1.20000000E+00  1.20000000E+00  1.50000000E+00  1.20000000E+00
  1.20000000E+00  1.50000000E+00  1.20000000E+00  1.20000000E+00  1.50000000E+00
  1.20000000E+00  1.20000000E+00  1.50000000E+00  1.20000000E+00  1.20000000E+00
  1.50000000E+00  1.20000000E+00  1.20000000E+00  1.50000000E+00  1.20000000E+00
  1.20000000E+00  1.50000000E+00  1.20000000E+00  1.20000000E+00  1.50000000E+00
  1.20000000E+00  1.20000000E+00  1.50000000E+00  1.20000000E+00  1.20000000E+00
  1.50000000E+00  1.20000000E+00  1.20000000E+00  1.50000000E+00  1.20000000E+00
  1.20000000E+00  1.50000000E+00  1.20000000E+00  1.20000000E+00  1.50000000E+00
  1.20000000E+00  1.20000000E+00  1.50000000E+00  1.20000000E+00  1.20000000E+00
  1.50000000E+00  1.20000000E+00  1.20000000E+00  1.50000000E+00  1.20000000E+00
  1.20000000E+00  1.50000000E+00  1.20000000E+00  1.20000000E+00  1.50000000E+00
  1.20000000E+00  1.20000000E+00  1.50000000E+00  1.20000000E+00  1.20000000E+00
  1.50000000E+00  1.20000000E+00  1.20000000E+00  1.50000000E+00  1.20000000E+00
  1.20000000E+00  1.50000000E+00  1.20000000E+00  1.20000000E+00  1.50000000E+00
  1.20000000E+00  1.20000000E+00  1.50000000E+00  1.20000000E+00  1.20000000E+00
  1.50000000E+00  1.20000000E+00  1.20000000E+00  1.50000000E+00  1.20000000E+00
  1.20000000E+00  1.50000000E+00  1.20000000E+00  1.20000000E+00  1.50000000E+00
  1.20000000E+00  1.20000000E+00  1.50000000E+00  1.20000000E+00  1.20000000E+00
  1.50000000E+00  1.20000000E+00  1.20000000E+00  1.50000000E+00  1.20000000E+00
  1.20000000E+00  1.50000000E+00  1.20000000E+00  1.20000000E+00  1.50000000E+00
  1.20000000E+00  1.20000000E+00  1.50000000E+00  1.20000000E+00  1.20000000E+00
  1.50000000E+00  1.20000000E+00  1.20000000E+00  1.50000000E+00  1.20000000E+00
  1.20000000E+00  1.50000000E+00  1.20000000E+00  1.20000000E+00  1.50000000E+00
  1.20000000E+00  1.20000000E+00  1.50000000E+00  1.20000000E+00  1.20000000E+00
  1.50000000E+00  1.20000000E+00  1.20000000E+00  1.50000000E+00  1.20000000E+00
  1.20000000E+00  1.50000000E+00  1.20000000E+00  1.20000000E+00  1.50000000E+00
  1.20000000E+00  1.20000000E+00  1.50000000E+00  1.20000000E+00  1.20000000E+00
  1.50000000E+00  1.20000000E+00  1.20000000E+00  1.50000000E+00  1.20000000E+00
  1.20000000E+00  1.50000000E+00  1.20000000E+00  1.20000000E+00  1.50000000E+00
  1.20000000E+00  1.20000000E+00  1.50000000E+00  1.20000000E+00  1.20000000E+00
  1.50000000E+00  1.20000000E+00  1.20000000E+00  1.50000000E+00  1.20000000E+00
  1.20000000E+00  1.50000000E+00  1.20000000E+00  1.20000000E+00  1.50000000E+00
  1.20000000E+00  1.20000000E+00  1.50000000E+00  1.20000000E+00  1.20000000E+00
  1.50000000E+00  1.20000000E+00  1.20000000E+00  1.50000000E+00  1.20000000E+00
  1.20000000E+00  1.50000000E+00  1.20000000E+00  1.20000000E+00  1.50000000E+00
  1.20000000E+00  1.20000000E+00  1.50000000E+00  1.20000000E+00  1.20000000E+00
  1.50000000E+00  1.20000000E+00  1.20000000E+00  1.50000000E+00  1.20000000E+00
  1.20000000E+00  1.50000000E+00  1.20000000E+00  1.20000000E+00  1.50000000E+00
  1.20000000E+00  1.20000000E+00  1.50000000E+00  1.20000000E+00  1.20000000E+00
  1.50000000E+00  1.20000000E+00  1.20000000E+00  1.50000000E+00  1.20000000E+00
  1.20000000E+00  1.50000000E+00  1.20000000E+00  1.20000000E+00  1.50000000E+00
  1.20000000E+00  1.20000000E+00  1.50000000E+00  1.20000000E+00  1.20000000E+00
  1.50000000E+00  1.20000000E+00  1.20000000E+00  1.50000000E+00  1.20000000E+00
  1.20000000E+00  1.50000000E+00  1.20000000E+00  1.20000000E+00  1.50000000E+00
  1.20000000E+00  1.20000000E+00  1.50000000E+00  1.20000000E+00  1.20000000E+00
  1.50000000E+00  1.20000000E+00  1.20000000E+00  1.50000000E+00  1.20000000E+00
  1.20000000E+00  1.50000000E+00  1.20000000E+00  1.20000000E+00  1.50000000E+00
  1.20000000E+00  1.20000000E+00  1.50000000E+00  1.20000000E+00  1.20000000E+00
  1.50000000E+00  1.20000000E+00  1.20000000E+00  1.50000000E+00  1.20000000E+00
  1.20000000E+00  1.50000000E+00  1.20000000E+00  1.20000000E+00  1.50000000E+00
  1.20000000E+00  1.20000000E+00  1.50000000E+00  1.20000000E+00  1.20000000E+00
  1.50000000E+00  1.20000000E+00  1.20000000E+00  1.50000000E+00  1.20000000E+00
  1.20000000E+00  1.50000000E+00  1.20000000E+00  1.20000000E+00  1.50000000E+00
  1.20000000E+00  1.20000000E+00  1.50000000E+00  1.20000000E+00  1.20000000E+00
  1.50000000E+00  1.20000000E+00  1.20000000E+00  1.50000000E+00  1.20000000E+00
  1.20000000E+00  1.50000000E+00  1.20000000E+00  1.20000000E+00  1.50000000E+00
  1.20000000E+00  1.20000000E+00  1.50000000E+00  1.20000000E+00  1.20000000E+00
  1.50000000E+00  1.20000000E+00  1.20000000E+00  1.50000000E+00  1.20000000E+00
  1.20000000E+00  1.50000000E+00  1.20000000E+00  1.20000000E+00  1.50000000E+00
  1.20000000E+00  1.20000000E+00  1.50000000E+00  1.20000000E+00  1.20000000E+00
  1.50000000E+00  1.20000000E+00  1.20000000E+00  1.50000000E+00  1.20000000E+00
  1.20000000E+00  1.50000000E+00  1.20000000E+00  1.20000000E+00  1.50000000E+00
  1.20000000E+00  1.20000000E+00  1.50000000E+00  1.20000000E+00  1.20000000E+00
  1.50000000E+00  1.20000000E+00  1.20000000E+00  1.50000000E+00  1.20000000E+00
  1.20000000E+00  1.50000000E+00  1.20000000E+00  1.20000000E+00  1.50000000E+00
  1.20000000E+00  1.20000000E+00  1.50000000E+00  1.20000000E+00  1.20000000E+00
  1.50000000E+00  1.20000000E+00  1.20000000E+00  1.50000000E+00  1.20000000E+00
  1.20000000E+00  1.50000000E+00  1.20000000E+00  1.20000000E+00  1.50000000E+00
  1.20000000E+00  1.20000000E+00  1.50000000E+00  1.20000000E+00  1.20000000E+00
  1.50000000E+00  1.20000000E+00  1.20000000E+00  1.50000000E+00  1.20000000E+00
  1.20000000E+00  1.50000000E+00  1.20000000E+00  1.20000000E+00  1.50000000E+00
  1.20000000E+00  1.20000000E+00  1.50000000E+00  1.20000000E+00  1.20000000E+00
  1.50000000E+00  1.20000000E+00  1.20000000E+00  1.50000000E+00  1.20000000E+00
  1.20000000E+00  1.50000000E+00  1.20000000E+00  1.20000000E+00  1.50000000E+00
  1.20000000E+00  1.20000000E+00  1.50000000E+00  1.20000000E+00  1.20000000E+00
  1.50000000E+00  1.20000000E+00  1.20000000E+00  1.50000000E+00  1.20000000E+00
  1.20000000E+00  1.50000000E+00  1.20000000E+00  1.20000000E+00  1.50000000E+00
  1.20000000E+00  1.20000000E+00  1.50000000E+00  1.20000000E+00  1.20000000E+00
  1.50000000E+00  1.20000000E+00  1.20000000E+00  1.50000000E+00  1.20000000E+00
  1.20000000E+00  1.50000000E+00  1.20000000E+00  1.20000000E+00  1.50000000E+00
  1.20000000E+00  1.20000000E+00  1.50000000E+00  1.20000000E+00  1.20000000E+00
  1.50000000E+00  1.20000000E+00  1.20000000E+00  1.50000000E+00  1.20000000E+00
  1.20000000E+00  1.50000000E+00  1.20000000E+00  1.20000000E+00  1.50000000E+00
  1.20000000E+00  1.20000000E+00  1.50000000E+00  1.20000000E+00  1.20000000E+00
  1.50000000E+00  1.20000000E+00  1.20000000E+00  1.50000000E+00  1.20000000E+00
  1.20000000E+00  1.50000000E+00  1.20000000E+00  1.20000000E+00  1.50000000E+00
  1.20000000E+00  1.20000000E+00  1.50000000E+00  1.20000000E+00  1.20000000E+00
  1.50000000E+00  1.20000000E+00  1.20000000E+00  1.50000000E+00  1.20000000E+00
  1.20000000E+00  1.50000000E+00  1.20000000E+00  1.20000000E+00  1.50000000E+00
  1.20000000E+00  1.20000000E+00  1.50000000E+00  1.20000000E+00  1.20000000E+00
  1.50000000E+00  1.20000000E+00  1.20000000E+00  1.50000000E+00  1.20000000E+00
  1.20000000E+00  1.50000000E+00  1.20000000E+00  1.20000000E+00  1.50000000E+00
  1.20000000E+00  1.20000000E+00  1.50000000E+00  1.20000000E+00  1.20000000E+00
  1.50000000E+00  1.20000000E+00  1.20000000E+00  1.50000000E+00  1.20000000E+00
  1.20000000E+00  1.50000000E+00  1.20000000E+00  1.20000000E+00  1.50000000E+00
  1.20000000E+00  1.20000000E+00  1.50000000E+00  1.20000000E+00  1.20000000E+00
  1.50000000E+00  1.20000000E+00  1.20000000E+00  1.50000000E+00  1.20000000E+00
  1.20000000E+00  1.50000000E+00  1.20000000E+00  1.20000000E+00  1.50000000E+00
  1.20000000E+00  1.20000000E+00  1.50000000E+00  1.20000000E+00  1.20000000E+00
  1.50000000E+00  1.20000000E+00  1.20000000E+00  1.50000000E+00  1.20000000E+00
  1.20000000E+00  1.50000000E+00  1.20000000E+00  1.20000000E+00  1.50000000E+00
  1.20000000E+00  1.20000000E+00  1.50000000E+00  1.20000000E+00  1.20000000E+00
  1.50000000E+00  1.20000000E+00  1.20000000E+00  1.50000000E+00  1.20000000E+00
  1.20000000E+00  1.50000000E+00  1.20000000E+00  1.20000000E+00  1.50000000E+00
  1.20000000E+00  1.20000000E+00  1.50000000E+00  1.20000000E+00  1.20000000E+00
  1.50000000E+00  1.20000000E+00  1.20000000E+00  1.50000000E+00  1.20000000E+00
  1.20000000E+00  1.50000000E+00  1.20000000E+00  1.20000000E+00  1.50000000E+00
  1.20000000E+00  1.20000000E+00  1.50000000E+00  1.20000000E+00  1.20000000E+00
  1.50000000E+00  1.20000000E+00  1.20000000E+00  1.50000000E+00  1.20000000E+00
  1.20000000E+00  1.50000000E+00  1.20000000E+00  1.20000000E+00  1.50000000E+00
  1.20000000E+00  1.20000000E+00  1.50000000E+00  1.20000000E+00  1.20000000E+00
  1.50000000E+00  1.20000000E+00  1.20000000E+00  1.50000000E+00  1.20000000E+00
  1.20000000E+00  1.50000000E+00  1.20000000E+00  1.20000000E+00  1.50000000E+00
  1.20000000E+00  1.20000000E+00  1.50000000E+00  1.20000000E+00  1.20000000E+00
  1.50000000E+00  1.20000000E+00  1.20000000E+00  1.50000000E+00  1.20000000E+00
  1.20000000E+00  1.50000000E+00  1.20000000E+00  1.20000000E+00  1.50000000E+00
  1.20000000E+00  1.20000000E+00  1.50000000E+00  1.20000000E+00  1.20000000E+00
  1.50000000E+00  1.20000000E+00  1.20000000E+00  1.50000000E+00  1.20000000E+00
  1.20000000E+00  1.50000000E+00  1.20000000E+00  1.20000000E+00  1.50000000E+00
  1.20000000E+00  1.20000000E+00  1.50000000E+00  1.20000000E+00  1.20000000E+00
  1.50000000E+00  1.20000000E+00  1.20000000E+00  1.50000000E+00  1.20000000E+00
  1.20000000E+00  1.50000000E+00  1.20000000E+00  1.20000000E+00  1.50000000E+00
  1.20000000E+00  1.20000000E+00  1.50000000E+00  1.20000000E+00  1.20000000E+00
  1.50000000E+00  1.20000000E+00  1.20000000E+00  1.50000000E+00  1.20000000E+00
  1.20000000E+00  1.50000000E+00  1.20000000E+00  1.20000000E+00  1.50000000E+00
  1.20000000E+00  1.20000000E+00  1.50000000E+00  1.20000000E+00  1.20000000E+00
  1.50000000E+00  1.20000000E+00  1.20000000E+00  1.50000000E+00  1.20000000E+00
  1.20000000E+00  1.50000000E+00  1.20000000E+00  1.20000000E+00  1.50000000E+00
  1.20000000E+00  1.20000000E+00  1.50000000E+00  1.20000000E+00  1.20000000E+00
  1.50000000E+00  1.20000000E+00  1.20000000E+00  1.50000000E+00  1.20000000E+00
  1.20000000E+00  1.50000000E+00  1.20000000E+00  1.20000000E+00  1.50000000E+00
  1.20000000E+00  1.20000000E+00  1.50000000E+00  1.20000000E+00  1.20000000E+00
  1.50000000E+00  1.20000000E+00  1.20000000E+00  1.50000000E+00  1.20000000E+00
  1.20000000E+00  1.50000000E+00  1.20000000E+00  1.20000000E+00  1.50000000E+00
  1.20000000E+00  1.20000000E+00  1.50000000E+00  1.20000000E+00  1.20000000E+00
  1.50000000E+00  1.20000000E+00  1.20000000E+00  1.50000000E+00  1.20000000E+00
  1.20000000E+00  1.50000000E+00  1.20000000E+00  1.20000000E+00  1.50000000E+00
  1.20000000E+00  1.20000000E+00  1.50000000E+00  1.20000000E+00  1.20000000E+00
  1.50000000E+00  1.20000000E+00  1.20000000E+00  1.50000000E+00  1.20000000E+00
  1.20000000E+00  1.50000000E+00  1.20000000E+00  1.20000000E+00  1.50000000E+00
  1.20000000E+00  1.20000000E+00  1.50000000E+00  1.20000000E+00  1.20000000E+00
  1.50000000E+00  1.20000000E+00  1.20000000E+00  1.50000000E+00  1.20000000E+00
  1.20000000E+00  1.50000000E+00  1.20000000E+00  1.20000000E+00  1.50000000E+00
  1.20000000E+00  1.20000000E+00  1.50000000E+00  1.20000000E+00  1.20000000E+00
  1.50000000E+00  1.20000000E+00  1.20000000E+00  1.50000000E+00  1.20000000E+00
  1.20000000E+00  1.50000000E+00  1.20000000E+00  1.20000000E+00  1.50000000E+00
  1.20000000E+00  1.20000000E+00  1.50000000E+00  1.20000000E+00  1.20000000E+00
  1.50000000E+00  1.20000000E+00  1.20000000E+00  1.50000000E+00  1.20000000E+00
  1.20000000E+00  1.50000000E+00  1.20000000E+00  1.20000000E+00  1.50000000E+00
  1.20000000E+00  1.20000000E+00  1.50000000E+00  1.20000000E+00  1.20000000E+00
  1.50000000E+00  1.20000000E+00  1.20000000E+00  1.50000000E+00  1.20000000E+00
  1.20000000E+00  1.50000000E+00  1.20000000E+00  1.20000000E+00  1.50000000E+00
  1.20000000E+00  1.20000000E+00  1.50000000E+00  1.20000000E+00  1.20000000E+00
  1.50000000E+00  1.20000000E+00  1.20000000E+00  1.50000000E+00  1.20000000E+00
  1.20000000E+00  1.50000000E+00  1.20000000E+00  1.20000000E+00  1.50000000E+00
  1.20000000E+00  1.20000000E+00  1.50000000E+00  1.20000000E+00  1.20000000E+00
  1.50000000E+00  1.20000000E+00  1.20000000E+00  1.50000000E+00  1.20000000E+00
  1.20000000E+00  1.50000000E+00  1.20000000E+00  1.20000000E+00  1.50000000E+00
  1.20000000E+00  1.20000000E+00  1.50000000E+00  1.20000000E+00  1.20000000E+00
  1.50000000E+00  1.20000000E+00  1.20000000E+00  1.50000000E+00  1.20000000E+00
  1.20000000E+00  1.50000000E+00  1.20000000E+00  1.20000000E+00  1.50000000E+00
  1.20000000E+00  1.20000000E+00  1.50000000E+00  1.20000000E+00  1.20000000E+00
  1.50000000E+00  1.20000000E+00  1.20000000E+00  1.50000000E+00  1.20000000E+00
  1.20000000E+00  1.50000000E+00  1.20000000E+00  1.20000000E+00  1.50000000E+00
  1.20000000E+00  1.20000000E+00  1.50000000E+00  1.20000000E+00  1.20000000E+00
  1.50000000E+00  1.20000000E+00  1.20000000E+00  1.50000000E+00  1.20000000E+00
  1.20000000E+00  1.50000000E+00  1.20000000E+00  1.20000000E+00  1.50000000E+00
  1.20000000E+00  1.20000000E+00  1.50000000E+00  1.20000000E+00  1.20000000E+00
  1.50000000E+00  1.20000000E+00  1.20000000E+00  1.50000000E+00  1.20000000E+00
  1.20000000E+00  1.50000000E+00  1.20000000E+00  1.20000000E+00  1.50000000E+00
  1.20000000E+00  1.20000000E+00  1.50000000E+00  1.20000000E+00  1.20000000E+00
  1.50000000E+00  1.20000000E+00  1.20000000E+00  1.50000000E+00  1.20000000E+00
  1.20000000E+00  1.50000000E+00  1.20000000E+00  1.20000000E+00  1.50000000E+00
  1.20000000E+00  1.20000000E+00  1.50000000E+00  1.20000000E+00  1.20000000E+00
  1.50000000E+00  1.20000000E+00  1.20000000E+00  1.50000000E+00  1.20000000E+00
  1.20000000E+00  1.50000000E+00  1.20000000E+00  1.20000000E+00  1.50000000E+00
  1.20000000E+00  1.20000000E+00  1.50000000E+00  1.20000000E+00  1.20000000E+00
  1.50000000E+00  1.20000000E+00  1.20000000E+00  1.50000000E+00  1.20000000E+00
  1.20000000E+00  1.50000000E+00  1.20000000E+00  1.20000000E+00  1.50000000E+00
  1.20000000E+00  1.20000000E+00  1.50000000E+00  1.20000000E+00  1.20000000E+00
  1.50000000E+00  1.20000000E+00  1.20000000E+00  1.50000000E+00  1.20000000E+00
  1.20000000E+00  1.50000000E+00  1.20000000E+00  1.20000000E+00  1.50000000E+00
  1.20000000E+00  1.20000000E+00  1.50000000E+00  1.20000000E+00  1.20000000E+00
  1.50000000E+00  1.20000000E+00  1.20000000E+00  1.50000000E+00  1.20000000E+00
  1.20000000E+00  1.50000000E+00  1.20000000E+00  1.20000000E+00  1.50000000E+00
  1.20000000E+00  1.20000000E+00  1.50000000E+00  1.20000000E+00  1.20000000E+00
  1.50000000E+00  1.20000000E+00  1.20000000E+00  1.50000000E+00  1.20000000E+00
  1.20000000E+00  1.50000000E+00  1.20000000E+00  1.20000000E+00  1.50000000E+00
  1.20000000E+00  1.20000000E+00  1.50000000E+00  1.20000000E+00  1.20000000E+00
  1.50000000E+00  1.20000000E+00  1.20000000E+00  1.50000000E+00  1.20000000E+00
  1.20000000E+00  1.50000000E+00  1.20000000E+00  1.20000000E+00  1.50000000E+00
  1.20000000E+00  1.20000000E+00  1.50000000E+00  1.20000000E+00  1.20000000E+00
  1.50000000E+00  1.20000000E+00  1.20000000E+00  1.50000000E+00  1.20000000E+00
  1.20000000E+00  1.50000000E+00  1.20000000E+00  1.20000000E+00  1.50000000E+00
  1.20000000E+00  1.20000000E+00  1.50000000E+00  1.20000000E+00  1.20000000E+00
  1.50000000E+00  1.20000000E+00  1.20000000E+00  1.50000000E+00  1.20000000E+00
  1.20000000E+00  1.50000000E+00  1.20000000E+00  1.20000000E+00  1.50000000E+00
  1.20000000E+00  1.20000000E+00  1.50000000E+00  1.20000000E+00  1.20000000E+00
  1.50000000E+00  1.20000000E+00  1.20000000E+00  1.50000000E+00  1.20000000E+00
  1.20000000E+00  1.50000000E+00  1.20000000E+00  1.20000000E+00  1.50000000E+00
  1.20000000E+00  1.20000000E+00  1.50000000E+00  1.20000000E+00  1.20000000E+00
  1.50000000E+00  1.20000000E+00  1.20000000E+00  1.50000000E+00  1.20000000E+00
  1.20000000E+00  1.50000000E+00  1.20000000E+00  1.20000000E+00  1.50000000E+00
  1.20000000E+00  1.20000000E+00  1.50000000E+00  1.20000000E+00  1.20000000E+00
  1.50000000E+00  1.20000000E+00  1.20000000E+00  1.50000000E+00  1.20000000E+00
  1.20000000E+00  1.50000000E+00  1.20000000E+00  1.20000000E+00  1.50000000E+00
  1.20000000E+00  1.20000000E+00  1.50000000E+00  1.20000000E+00  1.20000000E+00
  1.50000000E+00  1.20000000E+00  1.20000000E+00  1.50000000E+00  1.20000000E+00
  1.20000000E+00  1.50000000E+00  1.20000000E+00  1.20000000E+00  1.50000000E+00
  1.20000000E+00  1.20000000E+00  1.50000000E+00  1.20000000E+00  1.20000000E+00
  1.50000000E+00  1.20000000E+00  1.20000000E+00  1.50000000E+00  1.20000000E+00
  1.20000000E+00  1.50000000E+00  1.20000000E+00  1.20000000E+00  1.50000000E+00
  1.20000000E+00  1.20000000E+00  1.50000000E+00  1.20000000E+00  1.20000000E+00
  1.50000000E+00  1.20000000E+00  1.20000000E+00  1.50000000E+00  1.20000000E+00
  1.20000000E+00  1.50000000E+00  1.20000000E+00  1.20000000E+00  1.50000000E+00
  1.20000000E+00  1.20000000E+00  1.50000000E+00  1.20000000E+00  1.20000000E+00
  1.50000000E+00  1.20000000E+00  1.20000000E+00  1.50000000E+00  1.20000000E+00
  1.20000000E+00  1.50000000E+00  1.20000000E+00  1.20000000E+00  1.50000000E+00
  1.20000000E+00  1.20000000E+00  1.50000000E+00  1.20000000E+00  1.20000000E+00
  1.50000000E+00  1.20000000E+00  1.20000000E+00  1.50000000E+00  1.20000000E+00
  1.20000000E+00  1.50000000E+00  1.20000000E+00  1.20000000E+00  1.50000000E+00
  1.20000000E+00  1.20000000E+00  1.50000000E+00  1.20000000E+00  1.20000000E+00
  1.50000000E+00  1.20000000E+00  1.20000000E+00  1.50000000E+00  1.20000000E+00
  1.20000000E+00  1.50000000E+00  1.20000000E+00  1.20000000E+00  1.50000000E+00
  1.20000000E+00  1.20000000E+00  1.50000000E+00  1.20000000E+00  1.20000000E+00
  1.50000000E+00  1.20000000E+00  1.20000000E+00  1.50000000E+00  1.20000000E+00
  1.20000000E+00  1.50000000E+00  1.20000000E+00  1.20000000E+00  1.50000000E+00
  1.20000000E+00  1.20000000E+00  1.50000000E+00  1.20000000E+00  1.20000000E+00
  1.50000000E+00  1.20000000E+00  1.20000000E+00  1.50000000E+00  1.20000000E+00
  1.20000000E+00  1.50000000E+00  1.20000000E+00  1.20000000E+00  1.50000000E+00
  1.20000000E+00  1.20000000E+00  1.50000000E+00  1.20000000E+00  1.20000000E+00
  1.50000000E+00  1.20000000E+00  1.20000000E+00  1.50000000E+00  1.20000000E+00
  1.20000000E+00  1.50000000E+00  1.20000000E+00  1.20000000E+00  1.50000000E+00
  1.20000000E+00  1.20000000E+00  1.50000000E+00  1.20000000E+00  1.20000000E+00
  1.50000000E+00  1.20000000E+00  1.20000000E+00  1.50000000E+00  1.20000000E+00
  1.20000000E+00  1.50000000E+00  1.20000000E+00  1.20000000E+00  1.50000000E+00
  1.20000000E+00  1.20000000E+00  1.50000000E+00  1.20000000E+00  1.20000000E+00
  1.50000000E+00  1.20000000E+00  1.20000000E+00  1.50000000E+00  1.20000000E+00
  1.20000000E+00  1.50000000E+00  1.20000000E+00  1.20000000E+00  1.50000000E+00
  1.20000000E+00  1.20000000E+00  1.50000000E+00  1.20000000E+00  1.20000000E+00
  1.50000000E+00  1.20000000E+00  1.20000000E+00  1.50000000E+00  1.20000000E+00
  1.20000000E+00  1.50000000E+00  1.20000000E+00  1.20000000E+00  1.50000000E+00
  1.20000000E+00  1.20000000E+00  1.50000000E+00  1.20000000E+00  1.20000000E+00
  1.50000000E+00  1.20000000E+00  1.20000000E+00  1.50000000E+00  1.20000000E+00
  1.20000000E+00  1.50000000E+00  1.20000000E+00  1.20000000E+00  1.50000000E+00
  1.20000000E+00  1.20000000E+00  1.50000000E+00  1.20000000E+00  1.20000000E+00
  1.50000000E+00  1.20000000E+00  1.20000000E+00  1.50000000E+00  1.20000000E+00
  1.20000000E+00  1.50000000E+00  1.20000000E+00  1.20000000E+00  1.50000000E+00
  1.20000000E+00  1.20000000E+00  1.50000000E+00  1.20000000E+00  1.20000000E+00
  1.50000000E+00  1.20000000E+00  1.20000000E+00  1.50000000E+00  1.20000000E+00
  1.20000000E+00  1.50000000E+00  1.20000000E+00  1.20000000E+00  1.50000000E+00
  1.20000000E+00  1.20000000E+00  1.50000000E+00  1.20000000E+00  1.20000000E+00
  1.50000000E+00  1.20000000E+00  1.20000000E+00  1.50000000E+00  1.20000000E+00
  1.20000000E+00  1.50000000E+00  1.20000000E+00  1.20000000E+00  1.50000000E+00
  1.20000000E+00  1.20000000E+00  1.50000000E+00  1.20000000E+00  1.20000000E+00
  1.50000000E+00  1.20000000E+00  1.20000000E+00  1.50000000E+00  1.20000000E+00
  1.20000000E+00  1.50000000E+00  1.20000000E+00  1.20000000E+00  1.50000000E+00
  1.20000000E+00  1.20000000E+00  1.50000000E+00  1.20000000E+00  1.20000000E+00
  1.50000000E+00  1.20000000E+00  1.20000000E+00  1.50000000E+00  1.20000000E+00
  1.20000000E+00  1.50000000E+00  1.20000000E+00  1.20000000E+00  1.50000000E+00
  1.20000000E+00  1.20000000E+00  1.50000000E+00  1.20000000E+00  1.20000000E+00
  1.50000000E+00  1.20000000E+00  1.20000000E+00  1.50000000E+00  1.20000000E+00
  1.20000000E+00  1.50000000E+00  1.20000000E+00  1.20000000E+00  1.50000000E+00
  1.20000000E+00  1.20000000E+00  1.50000000E+00  1.20000000E+00  1.20000000E+00
  1.50000000E+00  1.20000000E+00  1.20000000E+00  1.50000000E+00  1.20000000E+00
  1.20000000E+00  1.50000000E+00  1.20000000E+00  1.20000000E+00  1.50000000E+00
  1.20000000E+00  1.20000000E+00  1.50000000E+00  1.20000000E+00  1.20000000E+00
  1.50000000E+00  1.20000000E+00  1.20000000E+00  1.50000000E+00  1.20000000E+00
  1.20000000E+00  1.50000000E+00  1.20000000E+00  1.20000000E+00  1.50000000E+00
  1.20000000E+00  1.20000000E+00  1.50000000E+00  1.20000000E+00  1.20000000E+00
  1.50000000E+00  1.20000000E+00  1.20000000E+00  1.50000000E+00  1.20000000E+00
  1.20000000E+00  1.50000000E+00  1.20000000E+00  1.20000000E+00  1.50000000E+00
  1.20000000E+00  1.20000000E+00  1.50000000E+00  1.20000000E+00  1.20000000E+00
  1.50000000E+00  1.20000000E+00  1.20000000E+00  1.50000000E+00  1.20000000E+00
  1.20000000E+00  1.50000000E+00  1.20000000E+00  1.20000000E+00  1.50000000E+00
  1.20000000E+00  1.20000000E+00  1.50000000E+00  1.20000000E+00  1.20000000E+00
  1.50000000E+00  1.20000000E+00  1.20000000E+00  1.50000000E+00  1.20000000E+00
  1.20000000E+00  1.50000000E+00  1.20000000E+00  1.20000000E+00  1.50000000E+00
  1.20000000E+00  1.20000000E+00  1.50000000E+00  1.20000000E+00  1.20000000E+00
  1.50000000E+00  1.20000000E+00  1.20000000E+00  1.50000000E+00  1.20000000E+00
  1.20000000E+00  1.50000000E+00  1.20000000E+00  1.20000000E+00  1.50000000E+00
  1.20000000E+00  1.20000000E+00  1.50000000E+00  1.20000000E+00  1.20000000E+00
  1.50000000E+00  1.20000000E+00  1.20000000E+00  1.50000000E+00  1.20000000E+00
  1.20000000E+00  1.50000000E+00  1.20000000E+00  1.20000000E+00  1.50000000E+00
  1.20000000E+00  1.20000000E+00  1.50000000E+00  1.20000000E+00  1.20000000E+00
  1.50000000E+00  1.20000000E+00  1.20000000E+00  1.50000000E+00  1.20000000E+00
  1.20000000E+00  1.50000000E+00  1.20000000E+00  1.20000000E+00  1.50000000E+00
  1.20000000E+00  1.20000000E+00  1.50000000E+00  1.20000000E+00  1.20000000E+00
  1.50000000E+00  1.20000000E+00  1.20000000E+00  1.50000000E+00  1.20000000E+00
  1.20000000E+00  1.50000000E+00  1.20000000E+00  1.20000000E+00  1.50000000E+00
  1.20000000E+00  1.20000000E+00  1.50000000E+00  1.20000000E+00  1.20000000E+00
  1.50000000E+00  1.20000000E+00  1.20000000E+00  1.50000000E+00  1.20000000E+00
  1.20000000E+00  1.50000000E+00  1.20000000E+00  1.20000000E+00  1.50000000E+00
  1.20000000E+00  1.20000000E+00  1.50000000E+00  1.20000000E+00  1.20000000E+00
  1.50000000E+00  1.20000000E+00  1.20000000E+00  1.50000000E+00  1.20000000E+00
  1.20000000E+00  1.50000000E+00  1.20000000E+00  1.20000000E+00  1.50000000E+00
  1.20000000E+00  1.20000000E+00  1.50000000E+00  1.20000000E+00  1.20000000E+00
  1.50000000E+00  1.20000000E+00  1.20000000E+00  1.50000000E+00  1.20000000E+00
  1.20000000E+00  1.50000000E+00  1.20000000E+00  1.20000000E+00  1.50000000E+00
  1.20000000E+00  1.20000000E+00  1.50000000E+00  1.20000000E+00  1.20000000E+00
  1.50000000E+00  1.20000000E+00  1.20000000E+00  1.50000000E+00  1.20000000E+00
  1.20000000E+00  1.50000000E+00  1.20000000E+00  1.20000000E+00  1.50000000E+00
  1.20000000E+00  1.20000000E+00  1.50000000E+00  1.20000000E+00  1.20000000E+00
  1.50000000E+00  1.20000000E+00  1.20000000E+00  1.50000000E+00  1.20000000E+00
  1.20000000E+00  1.50000000E+00  1.20000000E+00  1.20000000E+00  1.50000000E+00
  1.20000000E+00  1.20000000E+00  1.50000000E+00  1.20000000E+00  1.20000000E+00
  1.50000000E+00  1.20000000E+00  1.20000000E+00  1.50000000E+00  1.20000000E+00
  1.20000000E+00  1.50000000E+00  1.20000000E+00  1.20000000E+00  1.50000000E+00
  1.20000000E+00  1.20000000E+00  1.50000000E+00  1.20000000E+00  1.20000000E+00
  1.50000000E+00  1.20000000E+00  1.20000000E+00  1.50000000E+00  1.20000000E+00
  1.20000000E+00  1.50000000E+00  1.20000000E+00  1.20000000E+00  1.50000000E+00
  1.20000000E+00  1.20000000E+00  1.50000000E+00  1.20000000E+00  1.20000000E+00
  1.50000000E+00  1.20000000E+00  1.20000000E+00  1.50000000E+00  1.20000000E+00
  1.20000000E+00  1.50000000E+00  1.20000000E+00  1.20000000E+00  1.50000000E+00
  1.20000000E+00  1.20000000E+00  1.50000000E+00  1.20000000E+00  1.20000000E+00
  1.50000000E+00  1.20000000E+00  1.20000000E+00  1.50000000E+00  1.20000000E+00
  1.20000000E+00  1.50000000E+00  1.20000000E+00  1.20000000E+00  1.50000000E+00
  1.20000000E+00  1.20000000E+00  1.50000000E+00  1.20000000E+00  1.20000000E+00
  1.50000000E+00  1.20000000E+00  1.20000000E+00  1.50000000E+00  1.20000000E+00
  1.20000000E+00  1.50000000E+00  1.20000000E+00  1.20000000E+00  1.50000000E+00
  1.20000000E+00  1.20000000E+00  1.50000000E+00  1.20000000E+00  1.20000000E+00
  1.50000000E+00  1.20000000E+00  1.20000000E+00  1.50000000E+00  1.20000000E+00
  1.20000000E+00  1.50000000E+00  1.20000000E+00  1.20000000E+00  1.50000000E+00
  1.20000000E+00  1.20000000E+00  1.50000000E+00  1.20000000E+00  1.20000000E+00
  1.50000000E+00  1.20000000E+00  1.20000000E+00  1.50000000E+00  1.20000000E+00
  1.20000000E+00  1.50000000E+00  1.20000000E+00  1.20000000E+00  1.50000000E+00
  1.20000000E+00  1.20000000E+00  1.50000000E+00  1.20000000E+00  1.20000000E+00
  1.50000000E+00  1.20000000E+00  1.20000000E+00  1.50000000E+00  1.20000000E+00
  1.20000000E+00  1.50000000E+00  1.20000000E+00  1.20000000E+00  1.50000000E+00
  1.20000000E+00  1.20000000E+00  1.50000000E+00  1.20000000E+00  1.20000000E+00
  1.50000000E+00  1.20000000E+00  1.20000000E+00  1.50000000E+00  1.20000000E+00
  1.20000000E+00  1.50000000E+00  1.20000000E+00  1.20000000E+00  1.50000000E+00
  1.20000000E+00  1.20000000E+00  1.50000000E+00  1.20000000E+00  1.20000000E+00
  1.50000000E+00  1.20000000E+00  1.20000000E+00  1.50000000E+00  1.20000000E+00
  1.20000000E+00  1.50000000E+00  1.20000000E+00  1.20000000E+00  1.50000000E+00
  1.20000000E+00  1.20000000E+00  1.50000000E+00  1.20000000E+00  1.20000000E+00
  1.50000000E+00  1.20000000E+00  1.20000000E+00  1.50000000E+00  1.20000000E+00
  1.20000000E+00  1.50000000E+00  1.20000000E+00  1.20000000E+00  1.50000000E+00
  1.20000000E+00  1.20000000E+00  1.50000000E+00  1.20000000E+00  1.20000000E+00
  1.50000000E+00  1.20000000E+00  1.20000000E+00  1.50000000E+00  1.20000000E+00
  1.20000000E+00  1.50000000E+00  1.20000000E+00  1.20000000E+00  1.50000000E+00
  1.20000000E+00  1.20000000E+00  1.50000000E+00  1.20000000E+00  1.20000000E+00
  1.50000000E+00  1.20000000E+00  1.20000000E+00  1.50000000E+00  1.20000000E+00
  1.20000000E+00  1.50000000E+00  1.20000000E+00  1.20000000E+00  1.50000000E+00
  1.20000000E+00  1.20000000E+00  1.50000000E+00  1.20000000E+00  1.20000000E+00
  1.50000000E+00  1.20000000E+00  1.20000000E+00  1.50000000E+00  1.20000000E+00
  1.20000000E+00  1.50000000E+00  1.20000000E+00  1.20000000E+00  1.50000000E+00
  1.20000000E+00  1.20000000E+00  1.50000000E+00  1.20000000E+00  1.20000000E+00
  1.50000000E+00  1.20000000E+00  1.20000000E+00  1.50000000E+00  1.20000000E+00
  1.20000000E+00  1.50000000E+00  1.20000000E+00  1.20000000E+00  1.50000000E+00
  1.20000000E+00  1.20000000E+00  1.50000000E+00  1.20000000E+00  1.20000000E+00
  1.50000000E+00  1.20000000E+00  1.20000000E+00  1.50000000E+00  1.20000000E+00
  1.20000000E+00  1.50000000E+00  1.20000000E+00  1.20000000E+00  1.50000000E+00
  1.20000000E+00  1.20000000E+00  1.50000000E+00  1.20000000E+00  1.20000000E+00
  1.50000000E+00  1.20000000E+00  1.20000000E+00  1.50000000E+00  1.20000000E+00
  1.20000000E+00  1.50000000E+00  1.20000000E+00  1.20000000E+00  1.50000000E+00
  1.20000000E+00  1.20000000E+00  1.50000000E+00  1.20000000E+00  1.20000000E+00
  1.50000000E+00  1.20000000E+00  1.20000000E+00  1.50000000E+00  1.20000000E+00
  1.20000000E+00  1.50000000E+00  1.20000000E+00  1.20000000E+00  1.50000000E+00
  1.20000000E+00  1.20000000E+00  1.50000000E+00  1.20000000E+00  1.20000000E+00
  1.50000000E+00  1.20000000E+00  1.20000000E+00  1.50000000E+00  1.20000000E+00
  1.20000000E+00  1.50000000E+00  1.20000000E+00  1.20000000E+00  1.50000000E+00
  1.20000000E+00  1.20000000E+00  1.50000000E+00  1.20000000E+00  1.20000000E+00
  1.50000000E+00  1.20000000E+00  1.20000000E+00  1.50000000E+00  1.20000000E+00
  1.20000000E+00  1.50000000E+00  1.20000000E+00  1.20000000E+00  1.50000000E+00
  1.20000000E+00  1.20000000E+00  1.50000000E+00  1.20000000E+00  1.20000000E+00
  1.50000000E+00  1.20000000E+00  1.20000000E+00  1.50000000E+00  1.20000000E+00
  1.20000000E+00  1.50000000E+00  1.20000000E+00  1.20000000E+00  1.50000000E+00
  1.20000000E+00  1.20000000E+00  1.50000000E+00  1.20000000E+00  1.20000000E+00
  1.50000000E+00  1.20000000E+00  1.20000000E+00  1.50000000E+00  1.20000000E+00
  1.20000000E+00  1.50000000E+00  1.20000000E+00  1.20000000E+00  1.50000000E+00
  1.20000000E+00  1.20000000E+00  1.50000000E+00  1.20000000E+00  1.20000000E+00
  1.50000000E+00  1.20000000E+00  1.20000000E+00  1.50000000E+00  1.20000000E+00
  1.20000000E+00  1.50000000E+00  1.20000000E+00  1.20000000E+00  1.50000000E+00
  1.20000000E+00  1.20000000E+00  1.50000000E+00  1.20000000E+00  1.20000000E+00
  1.50000000E+00  1.20000000E+00  1.20000000E+00  1.50000000E+00  1.20000000E+00
  1.20000000E+00  1.50000000E+00  1.20000000E+00  1.20000000E+00  1.50000000E+00
  1.20000000E+00  1.20000000E+00  1.50000000E+00  1.20000000E+00  1.20000000E+00
  1.50000000E+00  1.20000000E+00  1.20000000E+00  1.50000000E+00  1.20000000E+00
  1.20000000E+00  1.50000000E+00  1.20000000E+00  1.20000000E+00  1.50000000E+00
  1.20000000E+00  1.20000000E+00  1.50000000E+00  1.20000000E+00  1.20000000E+00
  1.50000000E+00  1.20000000E+00  1.20000000E+00  1.50000000E+00  1.20000000E+00
  1.20000000E+00  1.50000000E+00  1.20000000E+00  1.20000000E+00  1.50000000E+00
  1.20000000E+00  1.20000000E+00  1.50000000E+00  1.20000000E+00  1.20000000E+00
  1.50000000E+00  1.20000000E+00  1.20000000E+00  1.50000000E+00  1.20000000E+00
  1.20000000E+00  1.50000000E+00  1.20000000E+00  1.20000000E+00  1.50000000E+00
  1.20000000E+00  1.20000000E+00  1.50000000E+00  1.20000000E+00  1.20000000E+00
  1.50000000E+00  1.20000000E+00  1.20000000E+00  1.50000000E+00  1.20000000E+00
  1.20000000E+00  1.50000000E+00  1.20000000E+00  1.20000000E+00  1.50000000E+00
  1.20000000E+00  1.20000000E+00  1.50000000E+00  1.20000000E+00  1.20000000E+00
  1.50000000E+00  1.20000000E+00  1.20000000E+00  1.50000000E+00  1.20000000E+00
  1.20000000E+00  1.50000000E+00  1.20000000E+00  1.20000000E+00  1.50000000E+00
  1.20000000E+00  1.20000000E+00  1.50000000E+00  1.20000000E+00  1.20000000E+00
  1.50000000E+00  1.20000000E+00  1.20000000E+00  1.50000000E+00  1.20000000E+00
  1.20000000E+00  1.50000000E+00  1.20000000E+00  1.20000000E+00  1.50000000E+00
  1.20000000E+00  1.20000000E+00  1.50000000E+00  1.20000000E+00  1.20000000E+00
  1.50000000E+00  1.20000000E+00  1.20000000E+00  1.50000000E+00  1.20000000E+00
  1.20000000E+00  1.50000000E+00  1.20000000E+00  1.20000000E+00  1.50000000E+00
  1.20000000E+00  1.20000000E+00  1.50000000E+00  1.20000000E+00  1.20000000E+00
  1.50000000E+00  1.20000000E+00  1.20000000E+00  1.50000000E+00  1.20000000E+00
  1.20000000E+00  1.50000000E+00  1.20000000E+00  1.20000000E+00  1.50000000E+00
  1.20000000E+00  1.20000000E+00  1.50000000E+00  1.20000000E+00  1.20000000E+00
  1.50000000E+00  1.20000000E+00  1.20000000E+00  1.50000000E+00  1.20000000E+00
  1.20000000E+00  1.50000000E+00  1.20000000E+00  1.20000000E+00  1.50000000E+00
  1.20000000E+00  1.20000000E+00  1.50000000E+00  1.20000000E+00  1.20000000E+00
  1.50000000E+00  1.20000000E+00  1.20000000E+00  1.50000000E+00  1.20000000E+00
  1.20000000E+00  1.50000000E+00  1.20000000E+00  1.20000000E+00  1.50000000E+00
  1.20000000E+00  1.20000000E+00  1.50000000E+00  1.20000000E+00  1.20000000E+00
  1.50000000E+00  1.20000000E+00  1.20000000E+00  1.50000000E+00  1.20000000E+00
  1.20000000E+00  1.50000000E+00  1.20000000E+00  1.20000000E+00  1.50000000E+00
  1.20000000E+00  1.20000000E+00  1.50000000E+00  1.20000000E+00  1.20000000E+00
  1.50000000E+00  1.20000000E+00  1.20000000E+00  1.50000000E+00  1.20000000E+00
  1.20000000E+00  1.50000000E+00  1.20000000E+00  1.20000000E+00  1.50000000E+00
  1.20000000E+00  1.20000000E+00  1.50000000E+00  1.20000000E+00  1.20000000E+00
  1.50000000E+00  1.20000000E+00  1.20000000E+00  1.50000000E+00  1.20000000E+00
  1.20000000E+00  1.50000000E+00  1.20000000E+00  1.20000000E+00  1.50000000E+00
  1.20000000E+00  1.20000000E+00  1.50000000E+00  1.20000000E+00  1.20000000E+00
  1.50000000E+00  1.20000000E+00  1.20000000E+00  1.50000000E+00  1.20000000E+00
  1.20000000E+00  1.50000000E+00  1.20000000E+00  1.20000000E+00  1.50000000E+00
  1.20000000E+00  1.20000000E+00  1.50000000E+00  1.20000000E+00  1.20000000E+00
  1.50000000E+00  1.20000000E+00  1.20000000E+00  1.50000000E+00  1.20000000E+00
  1.20000000E+00  1.50000000E+00  1.20000000E+00  1.20000000E+00  1.50000000E+00
  1.20000000E+00  1.20000000E+00  1.50000000E+00  1.20000000E+00  1.20000000E+00
  1.50000000E+00  1.20000000E+00  1.20000000E+00  1.50000000E+00  1.20000000E+00
  1.20000000E+00  1.50000000E+00  1.20000000E+00  1.20000000E+00  1.50000000E+00
  1.20000000E+00  1.20000000E+00  1.50000000E+00  1.20000000E+00  1.20000000E+00
  1.50000000E+00  1.20000000E+00  1.20000000E+00  1.50000000E+00  1.20000000E+00
  1.20000000E+00  1.50000000E+00  1.20000000E+00  1.20000000E+00  1.50000000E+00
  1.20000000E+00  1.20000000E+00  1.50000000E+00  1.20000000E+00  1.20000000E+00
  1.50000000E+00  1.20000000E+00  1.20000000E+00  1.50000000E+00  1.20000000E+00
  1.20000000E+00  1.50000000E+00  1.20000000E+00  1.20000000E+00  1.50000000E+00
  1.20000000E+00  1.20000000E+00  1.50000000E+00  1.20000000E+00  1.20000000E+00
  1.50000000E+00  1.20000000E+00  1.20000000E+00  1.50000000E+00  1.20000000E+00
  1.20000000E+00  1.50000000E+00  1.20000000E+00  1.20000000E+00  1.50000000E+00
  1.20000000E+00  1.20000000E+00  1.50000000E+00  1.20000000E+00  1.20000000E+00
  1.50000000E+00  1.20000000E+00  1.20000000E+00  1.50000000E+00  1.20000000E+00
  1.20000000E+00  1.50000000E+00  1.20000000E+00  1.20000000E+00  1.50000000E+00
  1.20000000E+00  1.20000000E+00  1.50000000E+00  1.20000000E+00  1.20000000E+00
  1.50000000E+00  1.20000000E+00  1.20000000E+00  1.50000000E+00  1.20000000E+00
  1.20000000E+00  1.50000000E+00  1.20000000E+00  1.20000000E+00  1.50000000E+00
  1.20000000E+00  1.20000000E+00  1.50000000E+00  1.20000000E+00  1.20000000E+00
  1.50000000E+00  1.20000000E+00  1.20000000E+00  1.50000000E+00  1.20000000E+00
  1.20000000E+00  1.50000000E+00  1.20000000E+00  1.20000000E+00  1.50000000E+00
  1.20000000E+00  1.20000000E+00  1.50000000E+00  1.20000000E+00  1.20000000E+00
  1.50000000E+00  1.20000000E+00  1.20000000E+00  1.50000000E+00  1.20000000E+00
  1.20000000E+00  1.50000000E+00  1.20000000E+00  1.20000000E+00  1.50000000E+00
  1.20000000E+00  1.20000000E+00  1.50000000E+00  1.20000000E+00  1.20000000E+00
  1.50000000E+00  1.20000000E+00  1.20000000E+00  1.50000000E+00  1.20000000E+00
  1.20000000E+00  1.50000000E+00  1.20000000E+00  1.20000000E+00  1.50000000E+00
  1.20000000E+00  1.20000000E+00  1.50000000E+00  1.20000000E+00  1.20000000E+00
  1.50000000E+00  1.20000000E+00  1.20000000E+00  1.50000000E+00  1.20000000E+00
  1.20000000E+00  1.50000000E+00  1.20000000E+00  1.20000000E+00  1.50000000E+00
  1.20000000E+00  1.20000000E+00  1.50000000E+00  1.20000000E+00  1.20000000E+00
  1.50000000E+00  1.20000000E+00  1.20000000E+00  1.50000000E+00  1.20000000E+00
  1.20000000E+00  1.50000000E+00  1.20000000E+00  1.20000000E+00  1.50000000E+00
  1.20000000E+00  1.20000000E+00  1.50000000E+00  1.20000000E+00  1.20000000E+00
  1.50000000E+00  1.20000000E+00  1.20000000E+00  1.50000000E+00  1.20000000E+00
  1.20000000E+00  1.50000000E+00  1.20000000E+00  1.20000000E+00  1.50000000E+00
  1.20000000E+00  1.20000000E+00  1.50000000E+00  1.20000000E+00  1.20000000E+00
  1.50000000E+00  1.20000000E+00  1.20000000E+00  1.50000000E+00  1.20000000E+00
  1.20000000E+00  1.50000000E+00  1.20000000E+00  1.20000000E+00  1.50000000E+00
  1.20000000E+00  1.20000000E+00  1.50000000E+00  1.20000000E+00  1.20000000E+00
  1.50000000E+00  1.20000000E+00  1.20000000E+00  1.50000000E+00  1.20000000E+00
  1.20000000E+00  1.50000000E+00  1.20000000E+00  1.20000000E+00  1.50000000E+00
  1.20000000E+00  1.20000000E+00  1.50000000E+00  1.20000000E+00  1.20000000E+00
  1.50000000E+00  1.20000000E+00  1.20000000E+00  1.50000000E+00  1.20000000E+00
  1.20000000E+00  1.50000000E+00  1.20000000E+00  1.20000000E+00  1.50000000E+00
  1.20000000E+00  1.20000000E+00  1.50000000E+00  1.20000000E+00  1.20000000E+00
  1.50000000E+00  1.20000000E+00  1.20000000E+00  1.50000000E+00  1.20000000E+00
  1.20000000E+00  1.50000000E+00  1.20000000E+00  1.20000000E+00  1.50000000E+00
  1.20000000E+00  1.20000000E+00  1.50000000E+00  1.20000000E+00  1.20000000E+00
  1.50000000E+00  1.20000000E+00  1.20000000E+00  1.50000000E+00  1.20000000E+00
  1.20000000E+00  1.50000000E+00  1.20000000E+00  1.20000000E+00  1.50000000E+00
  1.20000000E+00  1.20000000E+00  1.50000000E+00  1.20000000E+00  1.20000000E+00
  1.50000000E+00  1.20000000E+00  1.20000000E+00  1.50000000E+00  1.20000000E+00
  1.20000000E+00  1.50000000E+00  1.20000000E+00  1.20000000E+00  1.50000000E+00
  1.20000000E+00  1.20000000E+00  1.50000000E+00  1.20000000E+00  1.20000000E+00
  1.50000000E+00  1.20000000E+00  1.20000000E+00  1.50000000E+00  1.20000000E+00
  1.20000000E+00  1.50000000E+00  1.20000000E+00  1.20000000E+00  1.50000000E+00
  1.20000000E+00  1.20000000E+00  1.50000000E+00  1.20000000E+00  1.20000000E+00
  1.50000000E+00  1.20000000E+00  1.20000000E+00  1.50000000E+00  1.20000000E+00
  1.20000000E+00  1.50000000E+00  1.20000000E+00  1.20000000E+00  1.50000000E+00
  1.20000000E+00  1.20000000E+00  1.50000000E+00  1.20000000E+00  1.20000000E+00
  1.50000000E+00  1.20000000E+00  1.20000000E+00  1.50000000E+00  1.20000000E+00
  1.20000000E+00  1.50000000E+00  1.20000000E+00  1.20000000E+00  1.50000000E+00
  1.20000000E+00  1.20000000E+00  1.50000000E+00  1.20000000E+00  1.20000000E+00
  1.50000000E+00  1.20000000E+00  1.20000000E+00  1.50000000E+00  1.20000000E+00
  1.20000000E+00  1.50000000E+00  1.20000000E+00  1.20000000E+00  1.50000000E+00
  1.20000000E+00  1.20000000E+00  1.50000000E+00  1.20000000E+00  1.20000000E+00
  1.50000000E+00  1.20000000E+00  1.20000000E+00  1.50000000E+00  1.20000000E+00
  1.20000000E+00  1.50000000E+00  1.20000000E+00  1.20000000E+00  1.50000000E+00
  1.20000000E+00  1.20000000E+00  1.50000000E+00  1.20000000E+00  1.20000000E+00
  1.50000000E+00  1.20000000E+00  1.20000000E+00  1.50000000E+00  1.20000000E+00
  1.20000000E+00  1.50000000E+00  1.20000000E+00  1.20000000E+00  1.50000000E+00
  1.20000000E+00  1.20000000E+00  1.50000000E+00  1.20000000E+00  1.20000000E+00
  1.50000000E+00  1.20000000E+00  1.20000000E+00  1.50000000E+00  1.20000000E+00
  1.20000000E+00  1.50000000E+00  1.20000000E+00  1.20000000E+00  1.50000000E+00
  1.20000000E+00  1.20000000E+00  1.50000000E+00  1.20000000E+00  1.20000000E+00
  1.50000000E+00  1.20000000E+00  1.20000000E+00  1.50000000E+00  1.20000000E+00
  1.20000000E+00  1.50000000E+00  1.20000000E+00  1.20000000E+00  1.50000000E+00
  1.20000000E+00  1.20000000E+00  1.50000000E+00  1.20000000E+00  1.20000000E+00
  1.50000000E+00  1.20000000E+00  1.20000000E+00  1.50000000E+00  1.20000000E+00
  1.20000000E+00  1.50000000E+00  1.20000000E+00  1.20000000E+00  1.50000000E+00
  1.20000000E+00  1.20000000E+00  1.50000000E+00  1.20000000E+00  1.20000000E+00
  1.50000000E+00  1.20000000E+00  1.20000000E+00  1.50000000E+00  1.20000000E+00
  1.20000000E+00  1.50000000E+00  1.20000000E+00  1.20000000E+00  1.50000000E+00
  1.20000000E+00  1.20000000E+00  1.50000000E+00  1.20000000E+00  1.20000000E+00
  1.50000000E+00  1.20000000E+00  1.20000000E+00  1.50000000E+00  1.20000000E+00
  1.20000000E+00  1.50000000E+00  1.20000000E+00  1.20000000E+00  1.50000000E+00
  1.20000000E+00  1.20000000E+00  1.50000000E+00  1.20000000E+00  1.20000000E+00
  1.50000000E+00  1.20000000E+00  1.20000000E+00  1.50000000E+00  1.20000000E+00
  1.20000000E+00  1.50000000E+00  1.20000000E+00  1.20000000E+00  1.50000000E+00
  1.20000000E+00  1.20000000E+00  1.50000000E+00  1.20000000E+00  1.20000000E+00
  1.50000000E+00  1.20000000E+00  1.20000000E+00  1.50000000E+00  1.20000000E+00
  1.20000000E+00  1.50000000E+00  1.20000000E+00  1.20000000E+00  1.50000000E+00
  1.20000000E+00  1.20000000E+00  1.50000000E+00  1.20000000E+00  1.20000000E+00
  1.50000000E+00  1.20000000E+00  1.20000000E+00  1.50000000E+00  1.20000000E+00
  1.20000000E+00  1.50000000E+00  1.20000000E+00  1.20000000E+00  1.50000000E+00
  1.20000000E+00  1.20000000E+00  1.50000000E+00  1.20000000E+00  1.20000000E+00
  1.50000000E+00  1.20000000E+00  1.20000000E+00  1.50000000E+00  1.20000000E+00
  1.20000000E+00  1.50000000E+00  1.20000000E+00  1.20000000E+00  1.50000000E+00
  1.20000000E+00  1.20000000E+00  1.50000000E+00  1.20000000E+00  1.20000000E+00
  1.50000000E+00  1.20000000E+00  1.20000000E+00  1.50000000E+00  1.20000000E+00
  1.20000000E+00  1.50000000E+00  1.20000000E+00  1.20000000E+00  1.50000000E+00
  1.20000000E+00  1.20000000E+00  1.50000000E+00  1.20000000E+00  1.20000000E+00
  1.50000000E+00  1.20000000E+00  1.20000000E+00  1.50000000E+00  1.20000000E+00
  1.20000000E+00  1.50000000E+00  1.20000000E+00  1.20000000E+00  1.50000000E+00
  1.20000000E+00  1.20000000E+00  1.50000000E+00  1.20000000E+00  1.20000000E+00
  1.50000000E+00  1.20000000E+00  1.20000000E+00  1.50000000E+00  1.20000000E+00
  1.20000000E+00  1.50000000E+00  1.20000000E+00  1.20000000E+00  1.50000000E+00
  1.20000000E+00  1.20000000E+00  1.50000000E+00  1.20000000E+00  1.20000000E+00
  1.50000000E+00  1.20000000E+00  1.20000000E+00  1.50000000E+00  1.20000000E+00
  1.20000000E+00  1.50000000E+00  1.20000000E+00  1.20000000E+00  1.50000000E+00
  1.20000000E+00  1.20000000E+00  1.50000000E+00  1.20000000E+00  1.20000000E+00
  1.50000000E+00  1.20000000E+00  1.20000000E+00  1.50000000E+00  1.20000000E+00
  1.20000000E+00  1.50000000E+00  1.20000000E+00  1.20000000E+00  1.50000000E+00
  1.20000000E+00  1.20000000E+00  1.50000000E+00  1.20000000E+00  1.20000000E+00
  1.50000000E+00  1.20000000E+00  1.20000000E+00  1.50000000E+00  1.20000000E+00
  1.20000000E+00  1.50000000E+00  1.20000000E+00  1.20000000E+00  1.50000000E+00
  1.20000000E+00  1.20000000E+00  1.50000000E+00  1.20000000E+00  1.20000000E+00
  1.50000000E+00  1.20000000E+00  1.20000000E+00  1.50000000E+00  1.20000000E+00
  1.20000000E+00  1.50000000E+00  1.20000000E+00  1.20000000E+00  1.50000000E+00
  1.20000000E+00  1.20000000E+00  1.50000000E+00  1.20000000E+00  1.20000000E+00
  1.50000000E+00  1.20000000E+00  1.20000000E+00  1.50000000E+00  1.20000000E+00
  1.20000000E+00  1.50000000E+00  1.20000000E+00  1.20000000E+00  1.50000000E+00
  1.20000000E+00  1.20000000E+00  1.50000000E+00  1.20000000E+00  1.20000000E+00
  1.50000000E+00  1.20000000E+00  1.20000000E+00  1.50000000E+00  1.20000000E+00
  1.20000000E+00  1.50000000E+00  1.20000000E+00  1.20000000E+00  1.50000000E+00
  1.20000000E+00  1.20000000E+00  1.50000000E+00  1.20000000E+00  1.20000000E+00
  1.50000000E+00  1.20000000E+00  1.20000000E+00  1.50000000E+00  1.20000000E+00
  1.20000000E+00  1.50000000E+00  1.20000000E+00  1.20000000E+00  1.50000000E+00
  1.20000000E+00  1.20000000E+00  1.50000000E+00  1.20000000E+00  1.20000000E+00
  1.50000000E+00  1.20000000E+00  1.20000000E+00  1.50000000E+00  1.20000000E+00
  1.20000000E+00  1.50000000E+00  1.20000000E+00  1.20000000E+00  1.50000000E+00
  1.20000000E+00  1.20000000E+00  1.50000000E+00  1.20000000E+00  1.20000000E+00
  1.50000000E+00  1.20000000E+00  1.20000000E+00  1.50000000E+00  1.20000000E+00
  1.20000000E+00  1.50000000E+00  1.20000000E+00  1.20000000E+00  1.50000000E+00
  1.20000000E+00  1.20000000E+00  1.50000000E+00  1.20000000E+00  1.20000000E+00
  1.50000000E+00  1.20000000E+00  1.20000000E+00  1.50000000E+00  1.20000000E+00
  1.20000000E+00  1.50000000E+00  1.20000000E+00  1.20000000E+00  1.50000000E+00
  1.20000000E+00  1.20000000E+00  1.50000000E+00  1.20000000E+00  1.20000000E+00
  1.50000000E+00  1.20000000E+00  1.20000000E+00  1.50000000E+00  1.20000000E+00
  1.20000000E+00  1.50000000E+00  1.20000000E+00  1.20000000E+00  1.50000000E+00
  1.20000000E+00  1.20000000E+00  1.50000000E+00  1.20000000E+00  1.20000000E+00
  1.50000000E+00  1.20000000E+00  1.20000000E+00  1.50000000E+00  1.20000000E+00
  1.20000000E+00  1.50000000E+00  1.20000000E+00  1.20000000E+00  1.50000000E+00
  1.20000000E+00  1.20000000E+00  1.50000000E+00  1.20000000E+00  1.20000000E+00
  1.50000000E+00  1.20000000E+00  1.20000000E+00  1.50000000E+00  1.20000000E+00
  1.20000000E+00  1.50000000E+00  1.20000000E+00  1.20000000E+00  1.50000000E+00
  1.20000000E+00  1.20000000E+00  1.50000000E+00  1.20000000E+00  1.20000000E+00
  1.50000000E+00  1.20000000E+00  1.20000000E+00  1.50000000E+00  1.20000000E+00
  1.20000000E+00  1.50000000E+00  1.20000000E+00  1.20000000E+00  1.50000000E+00
  1.20000000E+00  1.20000000E+00  1.50000000E+00  1.20000000E+00  1.20000000E+00
  1.50000000E+00  1.20000000E+00  1.20000000E+00  1.50000000E+00  1.20000000E+00
  1.20000000E+00  1.50000000E+00  1.20000000E+00  1.20000000E+00  1.50000000E+00
  1.20000000E+00  1.20000000E+00  1.50000000E+00  1.20000000E+00  1.20000000E+00
  1.50000000E+00  1.20000000E+00  1.20000000E+00  1.50000000E+00  1.20000000E+00
  1.20000000E+00  1.50000000E+00  1.20000000E+00  1.20000000E+00  1.50000000E+00
  1.20000000E+00  1.20000000E+00  1.50000000E+00  1.20000000E+00  1.20000000E+00
  1.50000000E+00  1.20000000E+00  1.20000000E+00  1.50000000E+00  1.20000000E+00
  1.20000000E+00  1.50000000E+00  1.20000000E+00  1.20000000E+00  1.50000000E+00
  1.20000000E+00  1.20000000E+00  1.50000000E+00  1.20000000E+00  1.20000000E+00
  1.50000000E+00  1.20000000E+00  1.20000000E+00  1.50000000E+00  1.20000000E+00
  1.20000000E+00  1.50000000E+00  1.20000000E+00  1.20000000E+00  1.50000000E+00
  1.20000000E+00  1.20000000E+00  1.50000000E+00  1.20000000E+00  1.20000000E+00
  1.50000000E+00  1.20000000E+00  1.20000000E+00  1.50000000E+00  1.20000000E+00
  1.20000000E+00  1.50000000E+00  1.20000000E+00  1.20000000E+00  1.50000000E+00
  1.20000000E+00  1.20000000E+00  1.50000000E+00  1.20000000E+00  1.20000000E+00
  1.50000000E+00  1.20000000E+00  1.20000000E+00  1.50000000E+00  1.20000000E+00
  1.20000000E+00  1.50000000E+00  1.20000000E+00  1.20000000E+00  1.50000000E+00
  1.20000000E+00  1.20000000E+00  1.50000000E+00  1.20000000E+00  1.20000000E+00
  1.50000000E+00  1.20000000E+00  1.20000000E+00  1.50000000E+00  1.20000000E+00
  1.20000000E+00  1.50000000E+00  1.20000000E+00  1.20000000E+00  1.50000000E+00
  1.20000000E+00  1.20000000E+00  1.50000000E+00  1.20000000E+00  1.20000000E+00
  1.50000000E+00  1.20000000E+00  1.20000000E+00  1.50000000E+00  1.20000000E+00
  1.20000000E+00  1.50000000E+00  1.20000000E+00  1.20000000E+00  1.50000000E+00
  1.20000000E+00  1.20000000E+00  1.50000000E+00  1.20000000E+00  1.20000000E+00
  1.50000000E+00  1.20000000E+00  1.20000000E+00  1.50000000E+00  1.20000000E+00
  1.20000000E+00  1.50000000E+00  1.20000000E+00  1.20000000E+00  1.50000000E+00
  1.20000000E+00  1.20000000E+00  1.50000000E+00  1.20000000E+00  1.20000000E+00
  1.50000000E+00  1.20000000E+00  1.20000000E+00  1.50000000E+00  1.20000000E+00
  1.20000000E+00  1.50000000E+00  1.20000000E+00  1.20000000E+00  1.50000000E+00
  1.20000000E+00  1.20000000E+00  1.50000000E+00  1.20000000E+00  1.20000000E+00
  1.50000000E+00  1.20000000E+00  1.20000000E+00  1.50000000E+00  1.20000000E+00
  1.20000000E+00  1.50000000E+00  1.20000000E+00  1.20000000E+00  1.50000000E+00
  1.20000000E+00  1.20000000E+00  1.50000000E+00  1.20000000E+00  1.20000000E+00
  1.50000000E+00  1.20000000E+00  1.20000000E+00  1.50000000E+00  1.20000000E+00
  1.20000000E+00  1.50000000E+00  1.20000000E+00  1.20000000E+00  1.50000000E+00
  1.20000000E+00  1.20000000E+00  1.50000000E+00  1.20000000E+00  1.20000000E+00
  1.50000000E+00  1.20000000E+00  1.20000000E+00  1.50000000E+00  1.20000000E+00
  1.20000000E+00  1.50000000E+00  1.20000000E+00  1.20000000E+00  1.50000000E+00
  1.20000000E+00  1.20000000E+00  1.50000000E+00  1.20000000E+00  1.20000000E+00
  1.50000000E+00  1.20000000E+00  1.20000000E+00  1.50000000E+00  1.20000000E+00
  1.20000000E+00  1.50000000E+00  1.20000000E+00  1.20000000E+00  1.50000000E+00
  1.20000000E+00  1.20000000E+00  1.50000000E+00  1.20000000E+00  1.20000000E+00
  1.50000000E+00  1.20000000E+00  1.20000000E+00  1.50000000E+00  1.20000000E+00
  1.20000000E+00  1.50000000E+00  1.20000000E+00  1.20000000E+00  1.50000000E+00
  1.20000000E+00  1.20000000E+00  1.50000000E+00  1.20000000E+00  1.20000000E+00
  1.50000000E+00  1.20000000E+00  1.20000000E+00  1.50000000E+00  1.20000000E+00
  1.20000000E+00  1.50000000E+00  1.20000000E+00  1.20000000E+00  1.50000000E+00
  1.20000000E+00  1.20000000E+00  1.50000000E+00  1.20000000E+00  1.20000000E+00
  1.50000000E+00  1.20000000E+00  1.20000000E+00  1.50000000E+00  1.20000000E+00
  1.20000000E+00  1.50000000E+00  1.20000000E+00  1.20000000E+00  1.50000000E+00
  1.20000000E+00  1.20000000E+00  1.50000000E+00  1.20000000E+00  1.20000000E+00
  1.50000000E+00  1.20000000E+00  1.20000000E+00  1.50000000E+00  1.20000000E+00
  1.20000000E+00  1.50000000E+00  1.20000000E+00  1.20000000E+00  1.50000000E+00
  1.20000000E+00  1.20000000E+00  1.50000000E+00  1.20000000E+00  1.20000000E+00
  1.50000000E+00  1.20000000E+00  1.20000000E+00  1.50000000E+00  1.20000000E+00
  1.20000000E+00  1.50000000E+00  1.20000000E+00  1.20000000E+00  1.50000000E+00
  1.20000000E+00  1.20000000E+00  1.50000000E+00  1.20000000E+00  1.20000000E+00
  1.50000000E+00  1.20000000E+00  1.20000000E+00  1.50000000E+00  1.20000000E+00
  1.20000000E+00  1.50000000E+00  1.20000000E+00  1.20000000E+00  1.50000000E+00
  1.20000000E+00  1.20000000E+00  1.50000000E+00  1.20000000E+00  1.20000000E+00
  1.50000000E+00  1.20000000E+00  1.20000000E+00  1.50000000E+00  1.20000000E+00
  1.20000000E+00  1.50000000E+00  1.20000000E+00  1.20000000E+00  1.50000000E+00
  1.20000000E+00  1.20000000E+00  1.50000000E+00  1.20000000E+00  1.20000000E+00
  1.50000000E+00  1.20000000E+00  1.20000000E+00  1.50000000E+00  1.20000000E+00
  1.20000000E+00  1.50000000E+00  1.20000000E+00  1.20000000E+00  1.50000000E+00
  1.20000000E+00  1.20000000E+00  1.50000000E+00  1.20000000E+00  1.20000000E+00
  1.50000000E+00  1.20000000E+00  1.20000000E+00  1.50000000E+00  1.20000000E+00
  1.20000000E+00  1.50000000E+00  1.20000000E+00  1.20000000E+00  1.50000000E+00
  1.20000000E+00  1.20000000E+00  1.50000000E+00  1.20000000E+00  1.20000000E+00
  1.50000000E+00  1.20000000E+00  1.20000000E+00  1.50000000E+00  1.20000000E+00
  1.20000000E+00  1.50000000E+00  1.20000000E+00  1.20000000E+00  1.50000000E+00
  1.20000000E+00  1.20000000E+00  1.50000000E+00  1.20000000E+00  1.20000000E+00
  1.50000000E+00  1.20000000E+00  1.20000000E+00  1.50000000E+00  1.20000000E+00
  1.20000000E+00  1.50000000E+00  1.20000000E+00  1.20000000E+00  1.50000000E+00
  1.20000000E+00  1.20000000E+00  1.50000000E+00  1.20000000E+00  1.20000000E+00
  1.50000000E+00  1.20000000E+00  1.20000000E+00  1.50000000E+00  1.20000000E+00
  1.20000000E+00  1.50000000E+00  1.20000000E+00  1.20000000E+00  1.50000000E+00
  1.20000000E+00  1.20000000E+00  1.50000000E+00  1.20000000E+00  1.20000000E+00
  1.50000000E+00  1.20000000E+00  1.20000000E+00  1.50000000E+00  1.20000000E+00
  1.20000000E+00  1.50000000E+00  1.20000000E+00  1.20000000E+00  1.50000000E+00
  1.20000000E+00  1.20000000E+00  1.50000000E+00  1.20000000E+00  1.20000000E+00
  1.50000000E+00  1.20000000E+00  1.20000000E+00  1.50000000E+00  1.20000000E+00
  1.20000000E+00  1.50000000E+00  1.20000000E+00  1.20000000E+00  1.50000000E+00
  1.20000000E+00  1.20000000E+00  1.50000000E+00  1.20000000E+00  1.20000000E+00
  1.50000000E+00  1.20000000E+00  1.20000000E+00  1.50000000E+00  1.20000000E+00
  1.20000000E+00  1.50000000E+00  1.20000000E+00  1.20000000E+00  1.50000000E+00
  1.20000000E+00  1.20000000E+00  1.50000000E+00  1.20000000E+00  1.20000000E+00
  1.50000000E+00  1.20000000E+00  1.20000000E+00  1.50000000E+00  1.20000000E+00
  1.20000000E+00  1.50000000E+00  1.20000000E+00  1.20000000E+00  1.50000000E+00
  1.20000000E+00  1.20000000E+00  1.50000000E+00  1.20000000E+00  1.20000000E+00
  1.50000000E+00  1.20000000E+00  1.20000000E+00  1.50000000E+00  1.20000000E+00
  1.20000000E+00  1.50000000E+00  1.20000000E+00  1.20000000E+00  1.50000000E+00
  1.20000000E+00  1.20000000E+00  1.50000000E+00  1.20000000E+00  1.20000000E+00
  1.50000000E+00  1.20000000E+00  1.20000000E+00  1.50000000E+00  1.20000000E+00
  1.20000000E+00  1.50000000E+00  1.20000000E+00  1.20000000E+00  1.50000000E+00
  1.20000000E+00  1.20000000E+00  1.50000000E+00  1.20000000E+00  1.20000000E+00
  1.50000000E+00  1.20000000E+00  1.20000000E+00  1.50000000E+00  1.20000000E+00
  1.20000000E+00  1.50000000E+00  1.20000000E+00  1.20000000E+00  1.50000000E+00
  1.20000000E+00  1.20000000E+00  1.50000000E+00  1.20000000E+00  1.20000000E+00
  1.50000000E+00  1.20000000E+00  1.20000000E+00  1.50000000E+00  1.20000000E+00
  1.20000000E+00  1.50000000E+00  1.20000000E+00  1.20000000E+00  1.50000000E+00
  1.20000000E+00  1.20000000E+00  1.50000000E+00  1.20000000E+00  1.20000000E+00
  1.50000000E+00  1.20000000E+00  1.20000000E+00  1.50000000E+00  1.20000000E+00
  1.20000000E+00  1.50000000E+00  1.20000000E+00  1.20000000E+00  1.50000000E+00
  1.20000000E+00  1.20000000E+00  1.50000000E+00  1.20000000E+00  1.20000000E+00
  1.50000000E+00  1.20000000E+00  1.20000000E+00  1.50000000E+00  1.20000000E+00
  1.20000000E+00  1.50000000E+00  1.20000000E+00  1.20000000E+00  1.50000000E+00
  1.20000000E+00  1.20000000E+00  1.50000000E+00  1.20000000E+00  1.20000000E+00
  1.50000000E+00  1.20000000E+00  1.20000000E+00  1.50000000E+00  1.20000000E+00
  1.20000000E+00  1.50000000E+00  1.20000000E+00  1.20000000E+00  1.50000000E+00
  1.20000000E+00  1.20000000E+00  1.50000000E+00  1.20000000E+00  1.20000000E+00
  1.50000000E+00  1.20000000E+00  1.20000000E+00  1.50000000E+00  1.20000000E+00
  1.20000000E+00  1.50000000E+00  1.20000000E+00  1.20000000E+00  1.50000000E+00
  1.20000000E+00  1.20000000E+00  1.50000000E+00  1.20000000E+00  1.20000000E+00
  1.50000000E+00  1.20000000E+00  1.20000000E+00  1.50000000E+00  1.20000000E+00
  1.20000000E+00  1.50000000E+00  1.20000000E+00  1.20000000E+00  1.50000000E+00
  1.20000000E+00  1.20000000E+00  1.50000000E+00  1.20000000E+00  1.20000000E+00
  1.50000000E+00  1.20000000E+00  1.20000000E+00  1.50000000E+00  1.20000000E+00
  1.20000000E+00  1.50000000E+00  1.20000000E+00  1.20000000E+00  1.50000000E+00
  1.20000000E+00  1.20000000E+00  1.50000000E+00  1.20000000E+00  1.20000000E+00
  1.50000000E+00  1.20000000E+00  1.20000000E+00  1.50000000E+00  1.20000000E+00
  1.20000000E+00  1.50000000E+00  1.20000000E+00  1.20000000E+00  1.50000000E+00
  1.20000000E+00  1.20000000E+00  1.50000000E+00  1.20000000E+00  1.20000000E+00
  1.50000000E+00  1.20000000E+00  1.20000000E+00  1.50000000E+00  1.20000000E+00
  1.20000000E+00  1.50000000E+00  1.20000000E+00  1.20000000E+00  1.50000000E+00
  1.20000000E+00  1.20000000E+00  1.50000000E+00  1.20000000E+00  1.20000000E+00
  1.50000000E+00  1.20000000E+00  1.20000000E+00  1.50000000E+00  1.20000000E+00
  1.20000000E+00  1.50000000E+00  1.20000000E+00  1.20000000E+00  1.50000000E+00
  1.20000000E+00  1.20000000E+00  1.50000000E+00  1.20000000E+00  1.20000000E+00
  1.50000000E+00  1.20000000E+00  1.20000000E+00  1.50000000E+00  1.20000000E+00
  1.20000000E+00  1.50000000E+00  1.20000000E+00  1.20000000E+00  1.50000000E+00
  1.20000000E+00  1.20000000E+00  1.50000000E+00  1.20000000E+00  1.20000000E+00
  1.50000000E+00  1.20000000E+00  1.20000000E+00  1.50000000E+00  1.20000000E+00
  1.20000000E+00  1.50000000E+00  1.20000000E+00  1.20000000E+00  1.50000000E+00
  1.20000000E+00  1.20000000E+00  1.50000000E+00  1.20000000E+00  1.20000000E+00
  1.50000000E+00  1.20000000E+00  1.20000000E+00  1.50000000E+00  1.20000000E+00
  1.20000000E+00  1.50000000E+00  1.20000000E+00  1.20000000E+00  1.50000000E+00
  1.20000000E+00  1.20000000E+00  1.50000000E+00  1.20000000E+00  1.20000000E+00
  1.50000000E+00  1.20000000E+00  1.20000000E+00  1.50000000E+00  1.20000000E+00
  1.20000000E+00  1.50000000E+00  1.20000000E+00  1.20000000E+00  1.50000000E+00
  1.20000000E+00  1.20000000E+00  1.50000000E+00  1.20000000E+00  1.20000000E+00
  1.50000000E+00  1.20000000E+00  1.20000000E+00  1.50000000E+00  1.20000000E+00
  1.20000000E+00  1.50000000E+00  1.20000000E+00  1.20000000E+00  1.50000000E+00
  1.20000000E+00  1.20000000E+00  1.50000000E+00  1.20000000E+00  1.20000000E+00
  1.50000000E+00  1.20000000E+00  1.20000000E+00  1.50000000E+00  1.20000000E+00
  1.20000000E+00  1.50000000E+00  1.20000000E+00  1.20000000E+00  1.50000000E+00
  1.20000000E+00  1.20000000E+00  1.50000000E+00  1.20000000E+00  1.20000000E+00
  1.50000000E+00  1.20000000E+00  1.20000000E+00  1.50000000E+00  1.20000000E+00
  1.20000000E+00  1.50000000E+00  1.20000000E+00  1.20000000E+00  1.50000000E+00
  1.20000000E+00  1.20000000E+00  1.50000000E+00  1.20000000E+00  1.20000000E+00
  1.50000000E+00  1.20000000E+00  1.20000000E+00  1.50000000E+00  1.20000000E+00
  1.20000000E+00  1.50000000E+00  1.20000000E+00  1.20000000E+00  1.50000000E+00
  1.20000000E+00  1.20000000E+00  1.50000000E+00  1.20000000E+00  1.20000000E+00
  1.50000000E+00  1.20000000E+00  1.20000000E+00  1.50000000E+00  1.20000000E+00
  1.20000000E+00  1.50000000E+00  1.20000000E+00  1.20000000E+00  1.50000000E+00
  1.20000000E+00  1.20000000E+00  1.50000000E+00  1.20000000E+00  1.20000000E+00
  1.50000000E+00  1.20000000E+00  1.20000000E+00  1.50000000E+00  1.20000000E+00
  1.20000000E+00  1.50000000E+00  1.20000000E+00  1.20000000E+00  1.50000000E+00
  1.20000000E+00  1.20000000E+00  1.50000000E+00  1.20000000E+00  1.20000000E+00
  1.50000000E+00  1.20000000E+00  1.20000000E+00  1.50000000E+00  1.20000000E+00
  1.20000000E+00  1.50000000E+00  1.20000000E+00  1.20000000E+00  1.50000000E+00
  1.20000000E+00  1.20000000E+00  1.50000000E+00  1.20000000E+00  1.20000000E+00
  1.50000000E+00  1.20000000E+00  1.20000000E+00  1.50000000E+00  1.20000000E+00
  1.20000000E+00  1.50000000E+00  1.20000000E+00  1.20000000E+00  1.50000000E+00
  1.20000000E+00  1.20000000E+00  1.50000000E+00  1.20000000E+00  1.20000000E+00
  1.50000000E+00  1.20000000E+00  1.20000000E+00  1.50000000E+00  1.20000000E+00
  1.20000000E+00  1.50000000E+00  1.20000000E+00  1.20000000E+00  1.50000000E+00
  1.20000000E+00  1.20000000E+00  1.50000000E+00  1.20000000E+00  1.20000000E+00
  1.50000000E+00  1.20000000E+00  1.20000000E+00  1.50000000E+00  1.20000000E+00
  1.20000000E+00  1.50000000E+00  1.20000000E+00  1.20000000E+00  1.50000000E+00
  1.20000000E+00  1.20000000E+00  1.50000000E+00  1.20000000E+00  1.20000000E+00
  1.50000000E+00  1.20000000E+00  1.20000000E+00  1.50000000E+00  1.20000000E+00
  1.20000000E+00  1.50000000E+00  1.20000000E+00  1.20000000E+00  1.50000000E+00
  1.20000000E+00  1.20000000E+00  1.50000000E+00  1.20000000E+00  1.20000000E+00
  1.50000000E+00  1.20000000E+00  1.20000000E+00  1.50000000E+00  1.20000000E+00
  1.20000000E+00  1.50000000E+00  1.20000000E+00  1.20000000E+00  1.50000000E+00
  1.20000000E+00  1.20000000E+00  1.50000000E+00  1.20000000E+00  1.20000000E+00
  1.50000000E+00  1.20000000E+00  1.20000000E+00  1.50000000E+00  1.20000000E+00
  1.20000000E+00  1.50000000E+00  1.20000000E+00  1.20000000E+00  1.50000000E+00
  1.20000000E+00  1.20000000E+00  1.50000000E+00  1.20000000E+00  1.20000000E+00
  1.50000000E+00  1.20000000E+00  1.20000000E+00  1.50000000E+00  1.20000000E+00
  1.20000000E+00  1.50000000E+00  1.20000000E+00  1.20000000E+00  1.50000000E+00
  1.20000000E+00  1.20000000E+00  1.50000000E+00  1.20000000E+00  1.20000000E+00
  1.50000000E+00  1.20000000E+00  1.20000000E+00  1.50000000E+00  1.20000000E+00
  1.20000000E+00  1.50000000E+00  1.20000000E+00  1.20000000E+00  1.50000000E+00
  1.20000000E+00  1.20000000E+00  1.50000000E+00  1.20000000E+00  1.20000000E+00
  1.50000000E+00  1.20000000E+00  1.20000000E+00  1.50000000E+00  1.20000000E+00
  1.20000000E+00  1.50000000E+00  1.20000000E+00  1.20000000E+00  1.50000000E+00
  1.20000000E+00  1.20000000E+00  1.50000000E+00  1.20000000E+00  1.20000000E+00
  1.50000000E+00  1.20000000E+00  1.20000000E+00  1.50000000E+00  1.20000000E+00
  1.20000000E+00  1.50000000E+00  1.20000000E+00  1.20000000E+00  1.50000000E+00
  1.20000000E+00  1.20000000E+00  1.50000000E+00  1.20000000E+00  1.20000000E+00
  1.50000000E+00  1.20000000E+00  1.20000000E+00  1.50000000E+00  1.20000000E+00
  1.20000000E+00  1.50000000E+00  1.20000000E+00  1.20000000E+00  1.50000000E+00
  1.20000000E+00  1.20000000E+00  1.50000000E+00  1.20000000E+00  1.20000000E+00
  1.50000000E+00  1.20000000E+00  1.20000000E+00  1.50000000E+00  1.20000000E+00
  1.20000000E+00  1.50000000E+00  1.20000000E+00  1.20000000E+00  1.50000000E+00
  1.20000000E+00  1.20000000E+00  1.50000000E+00  1.20000000E+00  1.20000000E+00
  1.50000000E+00  1.20000000E+00  1.20000000E+00  1.50000000E+00  1.20000000E+00
  1.20000000E+00  1.50000000E+00  1.20000000E+00  1.20000000E+00  1.50000000E+00
  1.20000000E+00  1.20000000E+00  1.50000000E+00  1.20000000E+00  1.20000000E+00
  1.50000000E+00  1.20000000E+00  1.20000000E+00  1.50000000E+00  1.20000000E+00
  1.20000000E+00  1.50000000E+00  1.20000000E+00  1.20000000E+00  1.50000000E+00
  1.20000000E+00  1.20000000E+00  1.50000000E+00  1.20000000E+00  1.20000000E+00
  1.50000000E+00  1.20000000E+00  1.20000000E+00  1.50000000E+00  1.20000000E+00
  1.20000000E+00  1.50000000E+00  1.20000000E+00  1.20000000E+00  1.50000000E+00
  1.20000000E+00  1.20000000E+00  1.50000000E+00  1.20000000E+00  1.20000000E+00
  1.50000000E+00  1.20000000E+00  1.20000000E+00  1.50000000E+00  1.20000000E+00
  1.20000000E+00  1.50000000E+00  1.20000000E+00  1.20000000E+00  1.50000000E+00
  1.20000000E+00  1.20000000E+00  1.50000000E+00  1.20000000E+00  1.20000000E+00
  1.50000000E+00  1.20000000E+00  1.20000000E+00  1.50000000E+00  1.20000000E+00
  1.20000000E+00  1.50000000E+00  1.20000000E+00  1.20000000E+00  1.50000000E+00
  1.20000000E+00  1.20000000E+00  1.50000000E+00  1.20000000E+00  1.20000000E+00
  1.50000000E+00  1.20000000E+00  1.20000000E+00  1.50000000E+00  1.20000000E+00
  1.20000000E+00  1.50000000E+00  1.20000000E+00  1.20000000E+00  1.50000000E+00
  1.20000000E+00  1.20000000E+00  1.50000000E+00  1.20000000E+00  1.20000000E+00
  1.50000000E+00  1.20000000E+00  1.20000000E+00  1.50000000E+00  1.20000000E+00
  1.20000000E+00  1.50000000E+00  1.20000000E+00  1.20000000E+00  1.50000000E+00
  1.20000000E+00  1.20000000E+00  1.50000000E+00  1.20000000E+00  1.20000000E+00
  1.50000000E+00  1.20000000E+00  1.20000000E+00  1.50000000E+00  1.20000000E+00
  1.20000000E+00  1.50000000E+00  1.20000000E+00  1.20000000E+00  1.50000000E+00
  1.20000000E+00  1.20000000E+00  1.50000000E+00  1.20000000E+00  1.20000000E+00
  1.50000000E+00  1.20000000E+00  1.20000000E+00  1.50000000E+00  1.20000000E+00
  1.20000000E+00  1.50000000E+00  1.20000000E+00  1.20000000E+00  1.50000000E+00
  1.20000000E+00  1.20000000E+00  1.50000000E+00  1.20000000E+00  1.20000000E+00
  1.50000000E+00  1.20000000E+00  1.20000000E+00  1.50000000E+00  1.20000000E+00
  1.20000000E+00  1.50000000E+00  1.20000000E+00  1.20000000E+00  1.50000000E+00
  1.20000000E+00  1.20000000E+00  1.50000000E+00  1.20000000E+00  1.20000000E+00
  1.50000000E+00  1.20000000E+00  1.20000000E+00  1.50000000E+00  1.20000000E+00
  1.20000000E+00  1.50000000E+00  1.20000000E+00  1.20000000E+00  1.50000000E+00
  1.20000000E+00  1.20000000E+00  1.50000000E+00  1.20000000E+00  1.20000000E+00
  1.50000000E+00  1.20000000E+00  1.20000000E+00  1.50000000E+00  1.20000000E+00
  1.20000000E+00  1.50000000E+00  1.20000000E+00  1.20000000E+00  1.50000000E+00
  1.20000000E+00  1.20000000E+00  1.50000000E+00  1.20000000E+00  1.20000000E+00
  1.50000000E+00  1.20000000E+00  1.20000000E+00  1.50000000E+00  1.20000000E+00
  1.20000000E+00  1.50000000E+00  1.20000000E+00  1.20000000E+00  1.50000000E+00
  1.20000000E+00  1.20000000E+00  1.50000000E+00  1.20000000E+00  1.20000000E+00
  1.50000000E+00  1.20000000E+00  1.20000000E+00  1.50000000E+00  1.20000000E+00
  1.20000000E+00  1.50000000E+00  1.20000000E+00  1.20000000E+00  1.50000000E+00
  1.20000000E+00  1.20000000E+00  1.50000000E+00  1.20000000E+00  1.20000000E+00
  1.50000000E+00  1.20000000E+00  1.20000000E+00  1.50000000E+00  1.20000000E+00
  1.20000000E+00  1.50000000E+00  1.20000000E+00  1.20000000E+00  1.50000000E+00
  1.20000000E+00  1.20000000E+00  1.50000000E+00  1.20000000E+00  1.20000000E+00
  1.50000000E+00  1.20000000E+00  1.20000000E+00  1.50000000E+00  1.20000000E+00
  1.20000000E+00  1.50000000E+00  1.20000000E+00  1.20000000E+00  1.50000000E+00
  1.20000000E+00  1.20000000E+00  1.50000000E+00  1.20000000E+00  1.20000000E+00
  1.50000000E+00  1.20000000E+00  1.20000000E+00  1.50000000E+00  1.20000000E+00
  1.20000000E+00  1.50000000E+00  1.20000000E+00  1.20000000E+00  1.50000000E+00
  1.20000000E+00  1.20000000E+00  1.50000000E+00  1.20000000E+00  1.20000000E+00
  1.50000000E+00  1.20000000E+00  1.20000000E+00  1.50000000E+00  1.20000000E+00
  1.20000000E+00  1.50000000E+00  1.20000000E+00  1.20000000E+00  1.50000000E+00
  1.20000000E+00  1.20000000E+00  1.50000000E+00  1.20000000E+00  1.20000000E+00
  1.50000000E+00  1.20000000E+00  1.20000000E+00  1.50000000E+00  1.20000000E+00
  1.20000000E+00  1.50000000E+00  1.20000000E+00  1.20000000E+00  1.50000000E+00
  1.20000000E+00  1.20000000E+00  1.50000000E+00  1.20000000E+00  1.20000000E+00
  1.50000000E+00  1.20000000E+00  1.20000000E+00  1.50000000E+00  1.20000000E+00
  1.20000000E+00  1.50000000E+00  1.20000000E+00  1.20000000E+00  1.50000000E+00
  1.20000000E+00  1.20000000E+00  1.50000000E+00  1.20000000E+00  1.20000000E+00
  1.50000000E+00  1.20000000E+00  1.20000000E+00  1.50000000E+00  1.20000000E+00
  1.20000000E+00  1.50000000E+00  1.20000000E+00  1.20000000E+00  1.50000000E+00
  1.20000000E+00  1.20000000E+00  1.50000000E+00  1.20000000E+00  1.20000000E+00
  1.50000000E+00  1.20000000E+00  1.20000000E+00  1.50000000E+00  1.20000000E+00
  1.20000000E+00  1.50000000E+00  1.20000000E+00  1.20000000E+00  1.50000000E+00
  1.20000000E+00  1.20000000E+00  1.50000000E+00  1.20000000E+00  1.20000000E+00
  1.50000000E+00  1.20000000E+00  1.20000000E+00  1.50000000E+00  1.20000000E+00
  1.20000000E+00  1.50000000E+00  1.20000000E+00  1.20000000E+00  1.50000000E+00
  1.20000000E+00  1.20000000E+00  1.50000000E+00  1.20000000E+00  1.20000000E+00
  1.50000000E+00  1.20000000E+00  1.20000000E+00  1.50000000E+00  1.20000000E+00
  1.20000000E+00  1.50000000E+00  1.20000000E+00  1.20000000E+00  1.50000000E+00
  1.20000000E+00  1.20000000E+00  1.50000000E+00  1.20000000E+00  1.20000000E+00
  1.50000000E+00  1.20000000E+00  1.20000000E+00  1.50000000E+00  1.20000000E+00
  1.20000000E+00  1.50000000E+00  1.20000000E+00  1.20000000E+00  1.50000000E+00
  1.20000000E+00  1.20000000E+00  1.50000000E+00  1.20000000E+00  1.20000000E+00
  1.50000000E+00  1.20000000E+00  1.20000000E+00  1.50000000E+00  1.20000000E+00
  1.20000000E+00  1.50000000E+00  1.20000000E+00  1.20000000E+00  1.50000000E+00
  1.20000000E+00  1.20000000E+00  1.50000000E+00  1.20000000E+00  1.20000000E+00
  1.50000000E+00  1.20000000E+00  1.20000000E+00  1.50000000E+00  1.20000000E+00
  1.20000000E+00  1.50000000E+00  1.20000000E+00  1.20000000E+00  1.50000000E+00
  1.20000000E+00  1.20000000E+00  1.50000000E+00  1.20000000E+00  1.20000000E+00
  1.50000000E+00  1.20000000E+00  1.20000000E+00  1.50000000E+00  1.20000000E+00
  1.20000000E+00  1.50000000E+00  1.20000000E+00  1.20000000E+00  1.50000000E+00
  1.20000000E+00  1.20000000E+00  1.50000000E+00  1.20000000E+00  1.20000000E+00
  1.50000000E+00  1.20000000E+00  1.20000000E+00  1.50000000E+00  1.20000000E+00
  1.20000000E+00  1.50000000E+00  1.20000000E+00  1.20000000E+00  1.50000000E+00
  1.20000000E+00  1.20000000E+00  1.50000000E+00  1.20000000E+00  1.20000000E+00
  1.50000000E+00  1.20000000E+00  1.20000000E+00  1.50000000E+00  1.20000000E+00
  1.20000000E+00  1.50000000E+00  1.20000000E+00  1.20000000E+00  1.50000000E+00
  1.20000000E+00  1.20000000E+00  1.50000000E+00  1.20000000E+00  1.20000000E+00
  1.50000000E+00  1.20000000E+00  1.20000000E+00  1.50000000E+00  1.20000000E+00
  1.20000000E+00  1.50000000E+00  1.20000000E+00  1.20000000E+00  1.50000000E+00
  1.20000000E+00  1.20000000E+00  1.50000000E+00  1.20000000E+00  1.20000000E+00
  1.50000000E+00  1.20000000E+00  1.20000000E+00  1.50000000E+00  1.20000000E+00
  1.20000000E+00  1.50000000E+00  1.20000000E+00  1.20000000E+00  1.50000000E+00
  1.20000000E+00  1.20000000E+00  1.50000000E+00  1.20000000E+00  1.20000000E+00
  1.50000000E+00  1.20000000E+00  1.20000000E+00  1.50000000E+00  1.20000000E+00
  1.20000000E+00  1.50000000E+00  1.20000000E+00  1.20000000E+00  1.50000000E+00
  1.20000000E+00  1.20000000E+00  1.50000000E+00  1.20000000E+00  1.20000000E+00
  1.50000000E+00  1.20000000E+00  1.20000000E+00  1.50000000E+00  1.20000000E+00
  1.20000000E+00  1.50000000E+00  1.20000000E+00  1.20000000E+00  1.50000000E+00
  1.20000000E+00  1.20000000E+00  1.50000000E+00  1.20000000E+00  1.20000000E+00
  1.50000000E+00  1.20000000E+00  1.20000000E+00  1.50000000E+00  1.20000000E+00
  1.20000000E+00  1.50000000E+00  1.20000000E+00  1.20000000E+00  1.50000000E+00
  1.20000000E+00  1.20000000E+00  1.50000000E+00  1.20000000E+00  1.20000000E+00
  1.50000000E+00  1.20000000E+00  1.20000000E+00  1.50000000E+00  1.20000000E+00
  1.20000000E+00  1.50000000E+00  1.20000000E+00  1.20000000E+00  1.50000000E+00
  1.20000000E+00  1.20000000E+00  1.50000000E+00  1.20000000E+00  1.20000000E+00
  1.50000000E+00  1.20000000E+00  1.20000000E+00  1.50000000E+00  1.20000000E+00
  1.20000000E+00  1.50000000E+00  1.20000000E+00  1.20000000E+00  1.50000000E+00
  1.20000000E+00  1.20000000E+00  1.50000000E+00  1.20000000E+00  1.20000000E+00
  1.50000000E+00  1.20000000E+00  1.20000000E+00  1.50000000E+00  1.20000000E+00
  1.20000000E+00  1.50000000E+00  1.20000000E+00  1.20000000E+00  1.50000000E+00
  1.20000000E+00  1.20000000E+00  1.50000000E+00  1.20000000E+00  1.20000000E+00
  1.50000000E+00  1.20000000E+00  1.20000000E+00  1.50000000E+00  1.20000000E+00
  1.20000000E+00  1.50000000E+00  1.20000000E+00  1.20000000E+00  1.50000000E+00
  1.20000000E+00  1.20000000E+00  1.50000000E+00  1.20000000E+00  1.20000000E+00
  1.50000000E+00  1.20000000E+00  1.20000000E+00  1.50000000E+00  1.20000000E+00
  1.20000000E+00  1.50000000E+00  1.20000000E+00  1.20000000E+00  1.50000000E+00
  1.20000000E+00  1.20000000E+00  1.50000000E+00  1.20000000E+00  1.20000000E+00
  1.50000000E+00  1.20000000E+00  1.20000000E+00  1.50000000E+00  1.20000000E+00
  1.20000000E+00  1.50000000E+00  1.20000000E+00  1.20000000E+00  1.50000000E+00
  1.20000000E+00  1.20000000E+00  1.50000000E+00  1.20000000E+00  1.20000000E+00
  1.50000000E+00  1.20000000E+00  1.20000000E+00  1.50000000E+00  1.20000000E+00
  1.20000000E+00  1.50000000E+00  1.20000000E+00  1.20000000E+00  1.50000000E+00
  1.20000000E+00  1.20000000E+00  1.50000000E+00  1.20000000E+00  1.20000000E+00
  1.50000000E+00  1.20000000E+00  1.20000000E+00  1.50000000E+00  1.20000000E+00
  1.20000000E+00  1.50000000E+00  1.20000000E+00  1.20000000E+00  1.50000000E+00
  1.20000000E+00  1.20000000E+00  1.50000000E+00  1.20000000E+00  1.20000000E+00
  1.50000000E+00  1.20000000E+00  1.20000000E+00  1.50000000E+00  1.20000000E+00
  1.20000000E+00  1.50000000E+00  1.20000000E+00  1.20000000E+00  1.50000000E+00
  1.20000000E+00  1.20000000E+00  1.50000000E+00  1.20000000E+00  1.20000000E+00
  1.50000000E+00  1.20000000E+00  1.20000000E+00  1.50000000E+00  1.20000000E+00
  1.20000000E+00  1.50000000E+00  1.20000000E+00  1.20000000E+00  1.50000000E+00
  1.20000000E+00  1.20000000E+00  1.50000000E+00  1.20000000E+00  1.20000000E+00
  1.50000000E+00  1.20000000E+00  1.20000000E+00  1.50000000E+00  1.20000000E+00
  1.20000000E+00  1.50000000E+00  1.20000000E+00  1.20000000E+00  1.50000000E+00
  1.20000000E+00  1.20000000E+00  1.50000000E+00  1.20000000E+00  1.20000000E+00
  1.50000000E+00  1.20000000E+00  1.20000000E+00  1.50000000E+00  1.20000000E+00
  1.20000000E+00  1.50000000E+00  1.20000000E+00  1.20000000E+00  1.50000000E+00
  1.20000000E+00  1.20000000E+00  1.50000000E+00  1.20000000E+00  1.20000000E+00
  1.50000000E+00  1.20000000E+00  1.20000000E+00  1.50000000E+00  1.20000000E+00
  1.20000000E+00  1.50000000E+00  1.20000000E+00  1.20000000E+00  1.50000000E+00
  1.20000000E+00  1.20000000E+00  1.50000000E+00  1.20000000E+00  1.20000000E+00
  1.50000000E+00  1.20000000E+00  1.20000000E+00  1.50000000E+00  1.20000000E+00
  1.20000000E+00  1.50000000E+00  1.20000000E+00  1.20000000E+00  1.50000000E+00
  1.20000000E+00  1.20000000E+00  1.50000000E+00  1.20000000E+00  1.20000000E+00
  1.50000000E+00  1.20000000E+00  1.20000000E+00  1.50000000E+00  1.20000000E+00
  1.20000000E+00  1.50000000E+00  1.20000000E+00  1.20000000E+00  1.50000000E+00
  1.20000000E+00  1.20000000E+00  1.50000000E+00  1.20000000E+00  1.20000000E+00
  1.50000000E+00  1.20000000E+00  1.20000000E+00  1.50000000E+00  1.20000000E+00
  1.20000000E+00  1.50000000E+00  1.20000000E+00  1.20000000E+00  1.50000000E+00
  1.20000000E+00  1.20000000E+00  1.50000000E+00  1.20000000E+00  1.20000000E+00
  1.50000000E+00  1.20000000E+00  1.20000000E+00  1.50000000E+00  1.20000000E+00
  1.20000000E+00  1.50000000E+00  1.20000000E+00  1.20000000E+00  1.50000000E+00
  1.20000000E+00  1.20000000E+00  1.50000000E+00  1.20000000E+00  1.20000000E+00
  1.50000000E+00  1.20000000E+00  1.20000000E+00  1.50000000E+00  1.20000000E+00
  1.20000000E+00  1.50000000E+00  1.20000000E+00  1.20000000E+00  1.50000000E+00
  1.20000000E+00  1.20000000E+00  1.50000000E+00  1.20000000E+00  1.20000000E+00
  1.50000000E+00  1.20000000E+00  1.20000000E+00  1.50000000E+00  1.20000000E+00
  1.20000000E+00  1.50000000E+00  1.20000000E+00  1.20000000E+00  1.50000000E+00
  1.20000000E+00  1.20000000E+00  1.50000000E+00  1.20000000E+00  1.20000000E+00
  1.50000000E+00  1.20000000E+00  1.20000000E+00  1.50000000E+00  1.20000000E+00
  1.20000000E+00  1.50000000E+00  1.20000000E+00  1.20000000E+00  1.50000000E+00
  1.20000000E+00  1.20000000E+00  1.50000000E+00  1.20000000E+00  1.20000000E+00
  1.50000000E+00  1.20000000E+00  1.20000000E+00  1.50000000E+00  1.20000000E+00
  1.20000000E+00  1.50000000E+00  1.20000000E+00  1.20000000E+00  1.50000000E+00
  1.20000000E+00  1.20000000E+00  1.50000000E+00  1.20000000E+00  1.20000000E+00
  1.50000000E+00  1.20000000E+00  1.20000000E+00  1.50000000E+00  1.20000000E+00
  1.20000000E+00  1.50000000E+00  1.20000000E+00  1.20000000E+00  1.50000000E+00
  1.20000000E+00  1.20000000E+00  1.50000000E+00  1.20000000E+00  1.20000000E+00
  1.50000000E+00  1.20000000E+00  1.20000000E+00  1.50000000E+00  1.20000000E+00
  1.20000000E+00  1.50000000E+00  1.20000000E+00  1.20000000E+00  1.50000000E+00
  1.20000000E+00  1.20000000E+00  1.50000000E+00  1.20000000E+00  1.20000000E+00
  1.50000000E+00  1.20000000E+00  1.20000000E+00  1.50000000E+00  1.20000000E+00
  1.20000000E+00  1.50000000E+00  1.20000000E+00  1.20000000E+00  1.50000000E+00
  1.20000000E+00  1.20000000E+00  1.50000000E+00  1.20000000E+00  1.20000000E+00
  1.50000000E+00  1.20000000E+00  1.20000000E+00  1.50000000E+00  1.20000000E+00
  1.20000000E+00  1.50000000E+00  1.20000000E+00  1.20000000E+00  1.50000000E+00
  1.20000000E+00  1.20000000E+00  1.50000000E+00  1.20000000E+00  1.20000000E+00
  1.50000000E+00  1.20000000E+00  1.20000000E+00  1.50000000E+00  1.20000000E+00
  1.20000000E+00  1.50000000E+00  1.20000000E+00  1.20000000E+00  1.50000000E+00
  1.20000000E+00  1.20000000E+00  1.50000000E+00  1.20000000E+00  1.20000000E+00
  1.50000000E+00  1.20000000E+00  1.20000000E+00  1.50000000E+00  1.20000000E+00
  1.20000000E+00  1.50000000E+00  1.20000000E+00  1.20000000E+00  1.50000000E+00
  1.20000000E+00  1.20000000E+00  1.50000000E+00  1.20000000E+00  1.20000000E+00
  1.50000000E+00  1.20000000E+00  1.20000000E+00  1.50000000E+00  1.20000000E+00
  1.20000000E+00  1.50000000E+00  1.20000000E+00  1.20000000E+00  1.50000000E+00
  1.20000000E+00  1.20000000E+00  1.50000000E+00  1.20000000E+00  1.20000000E+00
  1.50000000E+00  1.20000000E+00  1.20000000E+00  1.50000000E+00  1.20000000E+00
  1.20000000E+00  1.50000000E+00  1.20000000E+00  1.20000000E+00  1.50000000E+00
  1.20000000E+00  1.20000000E+00  1.50000000E+00  1.20000000E+00  1.20000000E+00
  1.50000000E+00  1.20000000E+00  1.20000000E+00  1.50000000E+00  1.20000000E+00
  1.20000000E+00  1.50000000E+00  1.20000000E+00  1.20000000E+00  1.50000000E+00
  1.20000000E+00  1.20000000E+00  1.50000000E+00  1.20000000E+00  1.20000000E+00
  1.50000000E+00  1.20000000E+00  1.20000000E+00  1.50000000E+00  1.20000000E+00
  1.20000000E+00  1.50000000E+00  1.20000000E+00  1.20000000E+00  1.50000000E+00
  1.20000000E+00  1.20000000E+00  1.50000000E+00  1.20000000E+00  1.20000000E+00
  1.50000000E+00  1.20000000E+00  1.20000000E+00  1.50000000E+00  1.20000000E+00
  1.20000000E+00  1.50000000E+00  1.20000000E+00  1.20000000E+00  1.50000000E+00
  1.20000000E+00  1.20000000E+00  1.50000000E+00  1.20000000E+00  1.20000000E+00
  1.50000000E+00  1.20000000E+00  1.20000000E+00  1.50000000E+00  1.20000000E+00
  1.20000000E+00  1.50000000E+00  1.20000000E+00  1.20000000E+00  1.50000000E+00
  1.20000000E+00  1.20000000E+00  1.50000000E+00  1.20000000E+00  1.20000000E+00
  1.50000000E+00  1.20000000E+00  1.20000000E+00  1.50000000E+00  1.20000000E+00
  1.20000000E+00  1.50000000E+00  1.20000000E+00  1.20000000E+00  1.50000000E+00
  1.20000000E+00  1.20000000E+00  1.50000000E+00  1.20000000E+00  1.20000000E+00
  1.50000000E+00  1.20000000E+00  1.20000000E+00  1.50000000E+00  1.20000000E+00
  1.20000000E+00  1.50000000E+00  1.20000000E+00  1.20000000E+00  1.50000000E+00
  1.20000000E+00  1.20000000E+00  1.50000000E+00  1.20000000E+00  1.20000000E+00
  1.50000000E+00  1.20000000E+00  1.20000000E+00  1.50000000E+00  1.20000000E+00
  1.20000000E+00  1.50000000E+00  1.20000000E+00  1.20000000E+00  1.50000000E+00
  1.20000000E+00  1.20000000E+00  1.50000000E+00  1.20000000E+00  1.20000000E+00
  1.50000000E+00  1.20000000E+00  1.20000000E+00  1.50000000E+00  1.20000000E+00
  1.20000000E+00  1.50000000E+00  1.20000000E+00  1.20000000E+00  1.50000000E+00
  1.20000000E+00  1.20000000E+00  1.50000000E+00  1.20000000E+00  1.20000000E+00
  1.50000000E+00  1.20000000E+00  1.20000000E+00  1.50000000E+00  1.20000000E+00
  1.20000000E+00  1.50000000E+00  1.20000000E+00  1.20000000E+00  1.50000000E+00
  1.20000000E+00  1.20000000E+00  1.50000000E+00  1.20000000E+00  1.20000000E+00
  1.50000000E+00  1.20000000E+00  1.20000000E+00  1.50000000E+00  1.20000000E+00
  1.20000000E+00  1.50000000E+00  1.20000000E+00  1.20000000E+00  1.50000000E+00
  1.20000000E+00  1.20000000E+00  1.50000000E+00  1.20000000E+00  1.20000000E+00
  1.50000000E+00  1.20000000E+00  1.20000000E+00  1.50000000E+00  1.20000000E+00
  1.20000000E+00  1.50000000E+00  1.20000000E+00  1.20000000E+00  1.50000000E+00
  1.20000000E+00  1.20000000E+00  1.50000000E+00  1.20000000E+00  1.20000000E+00
  1.50000000E+00  1.20000000E+00  1.20000000E+00  1.50000000E+00  1.20000000E+00
  1.20000000E+00  1.50000000E+00  1.20000000E+00  1.20000000E+00  1.50000000E+00
  1.20000000E+00  1.20000000E+00  1.50000000E+00  1.20000000E+00  1.20000000E+00
  1.50000000E+00  1.20000000E+00  1.20000000E+00  1.50000000E+00  1.20000000E+00
  1.20000000E+00  1.50000000E+00  1.20000000E+00  1.20000000E+00  1.50000000E+00
  1.20000000E+00  1.20000000E+00  1.50000000E+00  1.20000000E+00  1.20000000E+00
  1.50000000E+00  1.20000000E+00  1.20000000E+00  1.50000000E+00  1.20000000E+00
  1.20000000E+00  1.50000000E+00  1.20000000E+00  1.20000000E+00  1.50000000E+00
  1.20000000E+00  1.20000000E+00  1.50000000E+00  1.20000000E+00  1.20000000E+00
  1.50000000E+00  1.20000000E+00  1.20000000E+00  1.50000000E+00  1.20000000E+00
  1.20000000E+00  1.50000000E+00  1.20000000E+00  1.20000000E+00  1.50000000E+00
  1.20000000E+00  1.20000000E+00  1.50000000E+00  1.20000000E+00  1.20000000E+00
  1.50000000E+00  1.20000000E+00  1.20000000E+00  1.50000000E+00  1.20000000E+00
  1.20000000E+00  1.50000000E+00  1.20000000E+00  1.20000000E+00  1.50000000E+00
  1.20000000E+00  1.20000000E+00  1.50000000E+00  1.20000000E+00  1.20000000E+00
  1.50000000E+00  1.20000000E+00  1.20000000E+00  1.50000000E+00  1.20000000E+00
  1.20000000E+00  1.50000000E+00  1.20000000E+00  1.20000000E+00  1.50000000E+00
  1.20000000E+00  1.20000000E+00  1.50000000E+00  1.20000000E+00  1.20000000E+00
  1.50000000E+00  1.20000000E+00  1.20000000E+00  1.50000000E+00  1.20000000E+00
  1.20000000E+00  1.50000000E+00  1.20000000E+00  1.20000000E+00  1.50000000E+00
  1.20000000E+00  1.20000000E+00  1.50000000E+00  1.20000000E+00  1.20000000E+00
  1.50000000E+00  1.20000000E+00  1.20000000E+00  1.50000000E+00  1.20000000E+00
  1.20000000E+00  1.50000000E+00  1.20000000E+00  1.20000000E+00  1.50000000E+00
  1.20000000E+00  1.20000000E+00  1.50000000E+00  1.20000000E+00  1.20000000E+00
  1.50000000E+00  1.20000000E+00  1.20000000E+00  1.50000000E+00  1.20000000E+00
  1.20000000E+00  1.50000000E+00  1.20000000E+00  1.20000000E+00  1.50000000E+00
  1.20000000E+00  1.20000000E+00  1.50000000E+00  1.20000000E+00  1.20000000E+00
  1.50000000E+00  1.20000000E+00  1.20000000E+00  1.50000000E+00  1.20000000E+00
  1.20000000E+00  1.50000000E+00  1.20000000E+00  1.20000000E+00  1.50000000E+00
  1.20000000E+00  1.20000000E+00  1.50000000E+00  1.20000000E+00  1.20000000E+00
  1.50000000E+00  1.20000000E+00  1.20000000E+00  1.50000000E+00  1.20000000E+00
  1.20000000E+00  1.50000000E+00  1.20000000E+00  1.20000000E+00  1.50000000E+00
  1.20000000E+00  1.20000000E+00  1.50000000E+00  1.20000000E+00  1.20000000E+00
  1.50000000E+00  1.20000000E+00  1.20000000E+00  1.50000000E+00  1.20000000E+00
  1.20000000E+00  1.50000000E+00  1.20000000E+00  1.20000000E+00  1.50000000E+00
  1.20000000E+00  1.20000000E+00  1.50000000E+00  1.20000000E+00  1.20000000E+00
  1.50000000E+00  1.20000000E+00  1.20000000E+00  1.50000000E+00  1.20000000E+00
  1.20000000E+00  1.50000000E+00  1.20000000E+00  1.20000000E+00  1.50000000E+00
  1.20000000E+00  1.20000000E+00  1.50000000E+00  1.20000000E+00  1.20000000E+00
  1.50000000E+00  1.20000000E+00  1.20000000E+00  1.50000000E+00  1.20000000E+00
  1.20000000E+00  1.50000000E+00  1.20000000E+00  1.20000000E+00  1.50000000E+00
  1.20000000E+00  1.20000000E+00  1.50000000E+00  1.20000000E+00  1.20000000E+00
  1.50000000E+00  1.20000000E+00  1.20000000E+00  1.50000000E+00  1.20000000E+00
  1.20000000E+00  1.50000000E+00  1.20000000E+00  1.20000000E+00  1.50000000E+00
  1.20000000E+00  1.20000000E+00  1.50000000E+00  1.20000000E+00  1.20000000E+00
  1.50000000E+00  1.20000000E+00  1.20000000E+00  1.50000000E+00  1.20000000E+00
  1.20000000E+00  1.50000000E+00  1.20000000E+00  1.20000000E+00  1.50000000E+00
  1.20000000E+00  1.20000000E+00  1.50000000E+00  1.20000000E+00  1.20000000E+00
  1.50000000E+00  1.20000000E+00  1.20000000E+00  1.50000000E+00  1.20000000E+00
  1.20000000E+00  1.50000000E+00  1.20000000E+00  1.20000000E+00  1.50000000E+00
  1.20000000E+00  1.20000000E+00  1.50000000E+00  1.20000000E+00  1.20000000E+00
  1.50000000E+00  1.20000000E+00  1.20000000E+00  1.50000000E+00  1.20000000E+00
  1.20000000E+00  1.50000000E+00  1.20000000E+00  1.20000000E+00  1.50000000E+00
  1.20000000E+00  1.20000000E+00  1.50000000E+00  1.20000000E+00  1.20000000E+00
  1.50000000E+00  1.20000000E+00  1.20000000E+00  1.50000000E+00  1.20000000E+00
  1.20000000E+00  1.50000000E+00  1.20000000E+00  1.20000000E+00  1.50000000E+00
  1.20000000E+00  1.20000000E+00  1.50000000E+00  1.20000000E+00  1.20000000E+00
  1.50000000E+00  1.20000000E+00  1.20000000E+00  1.50000000E+00  1.20000000E+00
  1.20000000E+00  1.50000000E+00  1.20000000E+00  1.20000000E+00  1.50000000E+00
  1.20000000E+00  1.20000000E+00  1.50000000E+00  1.20000000E+00  1.20000000E+00
  1.50000000E+00  1.20000000E+00  1.20000000E+00  1.50000000E+00  1.20000000E+00
  1.20000000E+00  1.50000000E+00  1.20000000E+00  1.20000000E+00  1.50000000E+00
  1.20000000E+00  1.20000000E+00  1.50000000E+00  1.20000000E+00  1.20000000E+00
  1.50000000E+00  1.20000000E+00  1.20000000E+00  1.50000000E+00  1.20000000E+00
  1.20000000E+00  1.50000000E+00  1.20000000E+00  1.20000000E+00  1.50000000E+00
  1.20000000E+00  1.20000000E+00  1.50000000E+00  1.20000000E+00  1.20000000E+00
  1.50000000E+00  1.20000000E+00  1.20000000E+00  1.50000000E+00  1.20000000E+00
  1.20000000E+00  1.50000000E+00  1.20000000E+00  1.20000000E+00  1.50000000E+00
  1.20000000E+00  1.20000000E+00  1.50000000E+00  1.20000000E+00  1.20000000E+00
  1.50000000E+00  1.20000000E+00  1.20000000E+00  1.50000000E+00  1.20000000E+00
  1.20000000E+00  1.50000000E+00  1.20000000E+00  1.20000000E+00  1.50000000E+00
  1.20000000E+00  1.20000000E+00  1.50000000E+00  1.20000000E+00  1.20000000E+00
  1.50000000E+00  1.20000000E+00  1.20000000E+00  1.50000000E+00  1.20000000E+00
  1.20000000E+00  1.50000000E+00  1.20000000E+00  1.20000000E+00  1.50000000E+00
  1.20000000E+00  1.20000000E+00  1.50000000E+00  1.20000000E+00  1.20000000E+00
  1.50000000E+00  1.20000000E+00  1.20000000E+00  1.50000000E+00  1.20000000E+00
  1.20000000E+00  1.50000000E+00  1.20000000E+00  1.20000000E+00  1.50000000E+00
  1.20000000E+00  1.20000000E+00  1.50000000E+00  1.20000000E+00  1.20000000E+00
  1.50000000E+00  1.20000000E+00  1.20000000E+00  1.50000000E+00  1.20000000E+00
  1.20000000E+00  1.50000000E+00  1.20000000E+00  1.20000000E+00  1.50000000E+00
  1.20000000E+00  1.20000000E+00  1.50000000E+00  1.20000000E+00  1.20000000E+00
  1.50000000E+00  1.20000000E+00  1.20000000E+00  1.50000000E+00  1.20000000E+00
  1.20000000E+00  1.50000000E+00  1.20000000E+00  1.20000000E+00  1.50000000E+00
  1.20000000E+00  1.20000000E+00  1.50000000E+00  1.20000000E+00  1.20000000E+00
  1.50000000E+00  1.20000000E+00  1.20000000E+00  1.50000000E+00  1.20000000E+00
  1.20000000E+00  1.50000000E+00  1.20000000E+00  1.20000000E+00  1.50000000E+00
  1.20000000E+00  1.20000000E+00  1.50000000E+00  1.20000000E+00  1.20000000E+00
  1.50000000E+00  1.20000000E+00  1.20000000E+00  1.50000000E+00  1.20000000E+00
  1.20000000E+00  1.50000000E+00  1.20000000E+00  1.20000000E+00  1.50000000E+00
  1.20000000E+00  1.20000000E+00  1.50000000E+00  1.20000000E+00  1.20000000E+00
  1.50000000E+00  1.20000000E+00  1.20000000E+00  1.50000000E+00  1.20000000E+00
  1.20000000E+00  1.50000000E+00  1.20000000E+00  1.20000000E+00  1.50000000E+00
  1.20000000E+00  1.20000000E+00  1.50000000E+00  1.20000000E+00  1.20000000E+00
  1.50000000E+00  1.20000000E+00  1.20000000E+00  1.50000000E+00  1.20000000E+00
  1.20000000E+00  1.50000000E+00  1.20000000E+00  1.20000000E+00  1.50000000E+00
  1.20000000E+00  1.20000000E+00  1.50000000E+00  1.20000000E+00  1.20000000E+00
  1.50000000E+00  1.20000000E+00  1.20000000E+00  1.50000000E+00  1.20000000E+00
  1.20000000E+00  1.50000000E+00  1.20000000E+00  1.20000000E+00  1.50000000E+00
  1.20000000E+00  1.20000000E+00  1.50000000E+00  1.20000000E+00  1.20000000E+00
  1.50000000E+00  1.20000000E+00  1.20000000E+00  1.50000000E+00  1.20000000E+00
  1.20000000E+00  1.50000000E+00  1.20000000E+00  1.20000000E+00  1.50000000E+00
  1.20000000E+00  1.20000000E+00  1.50000000E+00  1.20000000E+00  1.20000000E+00
  1.50000000E+00  1.20000000E+00  1.20000000E+00  1.50000000E+00  1.20000000E+00
  1.20000000E+00  1.50000000E+00  1.20000000E+00  1.20000000E+00  1.50000000E+00
  1.20000000E+00  1.20000000E+00  1.50000000E+00  1.20000000E+00  1.20000000E+00
  1.50000000E+00  1.20000000E+00  1.20000000E+00  1.50000000E+00  1.20000000E+00
  1.20000000E+00  1.50000000E+00  1.20000000E+00  1.20000000E+00  1.50000000E+00
  1.20000000E+00  1.20000000E+00  1.50000000E+00  1.20000000E+00  1.20000000E+00
  1.50000000E+00  1.20000000E+00  1.20000000E+00  1.50000000E+00  1.20000000E+00
  1.20000000E+00  1.50000000E+00  1.20000000E+00  1.20000000E+00  1.50000000E+00
  1.20000000E+00  1.20000000E+00  1.50000000E+00  1.20000000E+00  1.20000000E+00
  1.50000000E+00  1.20000000E+00  1.20000000E+00  1.50000000E+00  1.20000000E+00
  1.20000000E+00  1.50000000E+00  1.20000000E+00  1.20000000E+00  1.50000000E+00
  1.20000000E+00  1.20000000E+00  1.50000000E+00  1.20000000E+00  1.20000000E+00
  1.50000000E+00  1.20000000E+00  1.20000000E+00  1.50000000E+00  1.20000000E+00
  1.20000000E+00  1.50000000E+00  1.20000000E+00  1.20000000E+00  1.50000000E+00
  1.20000000E+00  1.20000000E+00  1.50000000E+00  1.20000000E+00  1.20000000E+00
  1.50000000E+00  1.20000000E+00  1.20000000E+00  1.50000000E+00  1.20000000E+00
  1.20000000E+00  1.50000000E+00  1.20000000E+00  1.20000000E+00  1.50000000E+00
  1.20000000E+00  1.20000000E+00  1.50000000E+00  1.20000000E+00  1.20000000E+00
  1.50000000E+00  1.20000000E+00  1.20000000E+00  1.50000000E+00  1.20000000E+00
  1.20000000E+00  1.50000000E+00  1.20000000E+00  1.20000000E+00  1.50000000E+00
  1.20000000E+00  1.20000000E+00  1.50000000E+00  1.20000000E+00  1.20000000E+00
  1.50000000E+00  1.20000000E+00  1.20000000E+00  1.50000000E+00  1.20000000E+00
  1.20000000E+00  1.50000000E+00  1.20000000E+00  1.20000000E+00  1.50000000E+00
  1.20000000E+00  1.20000000E+00  1.50000000E+00  1.20000000E+00  1.20000000E+00
  1.50000000E+00  1.20000000E+00  1.20000000E+00  1.50000000E+00  1.20000000E+00
  1.20000000E+00  1.50000000E+00  1.20000000E+00  1.20000000E+00  1.50000000E+00
  1.20000000E+00  1.20000000E+00  1.50000000E+00  1.20000000E+00  1.20000000E+00
  1.50000000E+00  1.20000000E+00  1.20000000E+00  1.50000000E+00  1.20000000E+00
  1.20000000E+00  1.50000000E+00  1.20000000E+00  1.20000000E+00  1.50000000E+00
  1.20000000E+00  1.20000000E+00  1.50000000E+00  1.20000000E+00  1.20000000E+00
  1.50000000E+00  1.20000000E+00  1.20000000E+00  1.50000000E+00  1.20000000E+00
  1.20000000E+00  1.50000000E+00  1.20000000E+00  1.20000000E+00  1.50000000E+00
  1.20000000E+00  1.20000000E+00  1.50000000E+00  1.20000000E+00  1.20000000E+00
  1.50000000E+00  1.20000000E+00  1.20000000E+00  1.50000000E+00  1.20000000E+00
  1.20000000E+00  1.50000000E+00  1.20000000E+00  1.20000000E+00  1.50000000E+00
  1.20000000E+00  1.20000000E+00  1.50000000E+00  1.20000000E+00  1.20000000E+00
  1.50000000E+00  1.20000000E+00  1.20000000E+00  1.50000000E+00  1.20000000E+00
  1.20000000E+00  1.50000000E+00  1.20000000E+00  1.20000000E+00  1.50000000E+00
  1.20000000E+00  1.20000000E+00  1.50000000E+00  1.20000000E+00  1.20000000E+00
  1.50000000E+00  1.20000000E+00  1.20000000E+00  1.50000000E+00  1.20000000E+00
  1.20000000E+00  1.50000000E+00  1.20000000E+00  1.20000000E+00  1.50000000E+00
  1.20000000E+00  1.20000000E+00  1.50000000E+00  1.20000000E+00  1.20000000E+00
  1.50000000E+00  1.20000000E+00  1.20000000E+00  1.50000000E+00  1.20000000E+00
  1.20000000E+00  1.50000000E+00  1.20000000E+00  1.20000000E+00  1.50000000E+00
  1.20000000E+00  1.20000000E+00  1.50000000E+00  1.20000000E+00  1.20000000E+00
  1.50000000E+00  1.20000000E+00  1.20000000E+00  1.50000000E+00  1.20000000E+00
  1.20000000E+00  1.50000000E+00  1.20000000E+00  1.20000000E+00  1.50000000E+00
  1.20000000E+00  1.20000000E+00  1.50000000E+00  1.20000000E+00  1.20000000E+00
  1.50000000E+00  1.20000000E+00  1.20000000E+00  1.50000000E+00  1.20000000E+00
  1.20000000E+00  1.50000000E+00  1.20000000E+00  1.20000000E+00  1.50000000E+00
  1.20000000E+00  1.20000000E+00  1.50000000E+00  1.20000000E+00  1.20000000E+00
  1.50000000E+00  1.20000000E+00  1.20000000E+00  1.50000000E+00  1.20000000E+00
  1.20000000E+00  1.50000000E+00  1.20000000E+00  1.20000000E+00  1.50000000E+00
  1.20000000E+00  1.20000000E+00  1.50000000E+00  1.20000000E+00  1.20000000E+00
  1.50000000E+00  1.20000000E+00  1.20000000E+00  1.50000000E+00  1.20000000E+00
  1.20000000E+00  1.50000000E+00  1.20000000E+00  1.20000000E+00  1.50000000E+00
  1.20000000E+00  1.20000000E+00  1.50000000E+00  1.20000000E+00  1.20000000E+00
  1.50000000E+00  1.20000000E+00  1.20000000E+00  1.50000000E+00  1.20000000E+00
  1.20000000E+00  1.50000000E+00  1.20000000E+00  1.20000000E+00  1.50000000E+00
  1.20000000E+00  1.20000000E+00  1.50000000E+00  1.20000000E+00  1.20000000E+00
  1.50000000E+00  1.20000000E+00  1.20000000E+00  1.50000000E+00  1.20000000E+00
  1.20000000E+00  1.50000000E+00  1.20000000E+00  1.20000000E+00  1.50000000E+00
  1.20000000E+00  1.20000000E+00  1.50000000E+00  1.20000000E+00  1.20000000E+00
  1.50000000E+00  1.20000000E+00  1.20000000E+00  1.50000000E+00  1.20000000E+00
  1.20000000E+00  1.50000000E+00  1.20000000E+00  1.20000000E+00  1.50000000E+00
  1.20000000E+00  1.20000000E+00  1.50000000E+00  1.20000000E+00  1.20000000E+00
  1.50000000E+00  1.20000000E+00  1.20000000E+00  1.50000000E+00  1.20000000E+00
  1.20000000E+00  1.50000000E+00  1.20000000E+00  1.20000000E+00  1.50000000E+00
  1.20000000E+00  1.20000000E+00  1.50000000E+00  1.20000000E+00  1.20000000E+00
  1.50000000E+00  1.20000000E+00  1.20000000E+00  1.50000000E+00  1.20000000E+00
  1.20000000E+00  1.50000000E+00  1.20000000E+00  1.20000000E+00  1.50000000E+00
  1.20000000E+00  1.20000000E+00  1.50000000E+00  1.20000000E+00  1.20000000E+00
  1.50000000E+00  1.20000000E+00  1.20000000E+00  1.50000000E+00  1.20000000E+00
  1.20000000E+00  1.50000000E+00  1.20000000E+00  1.20000000E+00  1.50000000E+00
  1.20000000E+00  1.20000000E+00  1.50000000E+00  1.20000000E+00  1.20000000E+00
  1.50000000E+00  1.20000000E+00  1.20000000E+00  1.50000000E+00  1.20000000E+00
  1.20000000E+00  1.50000000E+00  1.20000000E+00  1.20000000E+00  1.50000000E+00
  1.20000000E+00  1.20000000E+00  1.50000000E+00  1.20000000E+00  1.20000000E+00
  1.50000000E+00  1.20000000E+00  1.20000000E+00  1.50000000E+00  1.20000000E+00
  1.20000000E+00  1.50000000E+00  1.20000000E+00  1.20000000E+00  1.50000000E+00
  1.20000000E+00  1.20000000E+00  1.50000000E+00  1.20000000E+00  1.20000000E+00
  1.50000000E+00  1.20000000E+00  1.20000000E+00  1.50000000E+00  1.20000000E+00
  1.20000000E+00  1.50000000E+00  1.20000000E+00  1.20000000E+00  1.50000000E+00
  1.20000000E+00  1.20000000E+00  1.50000000E+00  1.20000000E+00  1.20000000E+00
  1.50000000E+00  1.20000000E+00  1.20000000E+00  1.50000000E+00  1.20000000E+00
  1.20000000E+00  1.50000000E+00  1.20000000E+00  1.20000000E+00  1.50000000E+00
  1.20000000E+00  1.20000000E+00  1.50000000E+00  1.20000000E+00  1.20000000E+00
  1.50000000E+00  1.20000000E+00  1.20000000E+00  1.50000000E+00  1.20000000E+00
  1.20000000E+00  1.50000000E+00  1.20000000E+00  1.20000000E+00  1.50000000E+00
  1.20000000E+00  1.20000000E+00  1.50000000E+00  1.20000000E+00  1.20000000E+00
  1.50000000E+00  1.20000000E+00  1.20000000E+00  1.50000000E+00  1.20000000E+00
  1.20000000E+00  1.50000000E+00  1.20000000E+00  1.20000000E+00  1.50000000E+00
  1.20000000E+00  1.20000000E+00  1.50000000E+00  1.20000000E+00  1.20000000E+00
  1.50000000E+00  1.20000000E+00  1.20000000E+00  1.50000000E+00  1.20000000E+00
  1.20000000E+00  1.50000000E+00  1.20000000E+00  1.20000000E+00  1.50000000E+00
  1.20000000E+00  1.20000000E+00  1.50000000E+00  1.20000000E+00  1.20000000E+00
  1.50000000E+00  1.20000000E+00  1.20000000E+00  1.50000000E+00  1.20000000E+00
  1.20000000E+00  1.50000000E+00  1.20000000E+00  1.20000000E+00  1.50000000E+00
  1.20000000E+00  1.20000000E+00  1.50000000E+00  1.20000000E+00  1.20000000E+00
  1.50000000E+00  1.20000000E+00  1.20000000E+00  1.50000000E+00  1.20000000E+00
  1.20000000E+00  1.50000000E+00  1.20000000E+00  1.20000000E+00  1.50000000E+00
  1.20000000E+00  1.20000000E+00  1.50000000E+00  1.20000000E+00  1.20000000E+00
  1.50000000E+00  1.20000000E+00  1.20000000E+00  1.50000000E+00  1.20000000E+00
  1.20000000E+00  1.50000000E+00  1.20000000E+00  1.20000000E+00  1.50000000E+00
  1.20000000E+00  1.20000000E+00  1.50000000E+00  1.20000000E+00  1.20000000E+00
  1.50000000E+00  1.20000000E+00  1.20000000E+00  1.50000000E+00  1.20000000E+00
  1.20000000E+00  1.50000000E+00  1.20000000E+00  1.20000000E+00  1.50000000E+00
  1.20000000E+00  1.20000000E+00  1.50000000E+00  1.20000000E+00  1.20000000E+00
  1.50000000E+00  1.20000000E+00  1.20000000E+00  1.50000000E+00  1.20000000E+00
  1.20000000E+00  1.50000000E+00  1.20000000E+00  1.20000000E+00  1.50000000E+00
  1.20000000E+00  1.20000000E+00  1.50000000E+00  1.20000000E+00  1.20000000E+00
  1.50000000E+00  1.20000000E+00  1.20000000E+00  1.50000000E+00  1.20000000E+00
  1.20000000E+00  1.50000000E+00  1.20000000E+00  1.20000000E+00  1.50000000E+00
  1.20000000E+00  1.20000000E+00  1.50000000E+00  1.20000000E+00  1.20000000E+00
  1.50000000E+00  1.20000000E+00  1.20000000E+00  1.50000000E+00  1.20000000E+00
  1.20000000E+00  1.50000000E+00  1.20000000E+00  1.20000000E+00  1.50000000E+00
  1.20000000E+00  1.20000000E+00  1.50000000E+00  1.20000000E+00  1.20000000E+00
  1.50000000E+00  1.20000000E+00  1.20000000E+00  1.50000000E+00  1.20000000E+00
  1.20000000E+00  1.50000000E+00  1.20000000E+00  1.20000000E+00  1.50000000E+00
  1.20000000E+00  1.20000000E+00  1.50000000E+00  1.20000000E+00  1.20000000E+00
  1.50000000E+00  1.20000000E+00  1.20000000E+00  1.50000000E+00  1.20000000E+00
  1.20000000E+00  1.50000000E+00  1.20000000E+00  1.20000000E+00  1.50000000E+00
  1.20000000E+00  1.20000000E+00  1.50000000E+00  1.20000000E+00  1.20000000E+00
  1.50000000E+00  1.20000000E+00  1.20000000E+00  1.50000000E+00  1.20000000E+00
  1.20000000E+00  1.50000000E+00  1.20000000E+00  1.20000000E+00  1.50000000E+00
  1.20000000E+00  1.20000000E+00  1.50000000E+00  1.20000000E+00  1.20000000E+00
  1.50000000E+00  1.20000000E+00  1.20000000E+00  1.50000000E+00  1.20000000E+00
  1.20000000E+00  1.50000000E+00  1.20000000E+00  1.20000000E+00  1.50000000E+00
  1.20000000E+00  1.20000000E+00  1.50000000E+00  1.20000000E+00  1.20000000E+00
  1.50000000E+00  1.20000000E+00  1.20000000E+00  1.50000000E+00  1.20000000E+00
  1.20000000E+00  1.50000000E+00  1.20000000E+00  1.20000000E+00  1.50000000E+00
  1.20000000E+00  1.20000000E+00  1.50000000E+00  1.20000000E+00  1.20000000E+00
  1.50000000E+00  1.20000000E+00  1.20000000E+00  1.50000000E+00  1.20000000E+00
  1.20000000E+00  1.50000000E+00  1.20000000E+00  1.20000000E+00  1.50000000E+00
  1.20000000E+00  1.20000000E+00  1.50000000E+00  1.20000000E+00  1.20000000E+00
  1.50000000E+00  1.20000000E+00  1.20000000E+00  1.50000000E+00  1.20000000E+00
  1.20000000E+00  1.50000000E+00  1.20000000E+00  1.20000000E+00  1.50000000E+00
  1.20000000E+00  1.20000000E+00  1.50000000E+00  1.20000000E+00  1.20000000E+00
  1.50000000E+00  1.20000000E+00  1.20000000E+00  1.50000000E+00  1.20000000E+00
  1.20000000E+00  1.50000000E+00  1.20000000E+00  1.20000000E+00  1.50000000E+00
  1.20000000E+00  1.20000000E+00  1.50000000E+00  1.20000000E+00  1.20000000E+00
  1.50000000E+00  1.20000000E+00  1.20000000E+00  1.50000000E+00  1.20000000E+00
  1.20000000E+00  1.50000000E+00  1.20000000E+00  1.20000000E+00  1.50000000E+00
  1.20000000E+00  1.20000000E+00  1.50000000E+00  1.20000000E+00  1.20000000E+00
  1.50000000E+00  1.20000000E+00  1.20000000E+00  1.50000000E+00  1.20000000E+00
  1.20000000E+00  1.50000000E+00  1.20000000E+00  1.20000000E+00  1.50000000E+00
  1.20000000E+00  1.20000000E+00  1.50000000E+00  1.20000000E+00  1.20000000E+00
  1.50000000E+00  1.20000000E+00  1.20000000E+00  1.50000000E+00  1.20000000E+00
  1.20000000E+00  1.50000000E+00  1.20000000E+00  1.20000000E+00  1.50000000E+00
  1.20000000E+00  1.20000000E+00  1.50000000E+00  1.20000000E+00  1.20000000E+00
  1.50000000E+00  1.20000000E+00  1.20000000E+00  1.50000000E+00  1.20000000E+00
  1.20000000E+00  1.50000000E+00  1.20000000E+00  1.20000000E+00  1.50000000E+00
  1.20000000E+00  1.20000000E+00  1.50000000E+00  1.20000000E+00  1.20000000E+00
  1.50000000E+00  1.20000000E+00  1.20000000E+00  1.50000000E+00  1.20000000E+00
  1.20000000E+00  1.50000000E+00  1.20000000E+00  1.20000000E+00  1.50000000E+00
  1.20000000E+00  1.20000000E+00  1.50000000E+00  1.20000000E+00  1.20000000E+00
  1.50000000E+00  1.20000000E+00  1.20000000E+00  1.50000000E+00  1.20000000E+00
  1.20000000E+00  1.50000000E+00  1.20000000E+00  1.20000000E+00  1.50000000E+00
  1.20000000E+00  1.20000000E+00  1.50000000E+00  1.20000000E+00  1.20000000E+00
  1.50000000E+00  1.20000000E+00  1.20000000E+00  1.50000000E+00  1.20000000E+00
  1.20000000E+00  1.50000000E+00  1.20000000E+00  1.20000000E+00  1.50000000E+00
  1.20000000E+00  1.20000000E+00  1.50000000E+00  1.20000000E+00  1.20000000E+00
  1.50000000E+00  1.20000000E+00  1.20000000E+00  1.50000000E+00  1.20000000E+00
  1.20000000E+00  1.50000000E+00  1.20000000E+00  1.20000000E+00  1.50000000E+00
  1.20000000E+00  1.20000000E+00  1.50000000E+00  1.20000000E+00  1.20000000E+00
  1.50000000E+00  1.20000000E+00  1.20000000E+00  1.50000000E+00  1.20000000E+00
  1.20000000E+00  1.50000000E+00  1.20000000E+00  1.20000000E+00  1.50000000E+00
  1.20000000E+00  1.20000000E+00  1.50000000E+00  1.20000000E+00  1.20000000E+00
  1.50000000E+00  1.20000000E+00  1.20000000E+00  1.50000000E+00  1.20000000E+00
  1.20000000E+00  1.50000000E+00  1.20000000E+00  1.20000000E+00  1.50000000E+00
  1.20000000E+00  1.20000000E+00  1.50000000E+00  1.20000000E+00  1.20000000E+00
  1.50000000E+00  1.20000000E+00  1.20000000E+00  1.50000000E+00  1.20000000E+00
  1.20000000E+00  1.50000000E+00  1.20000000E+00  1.20000000E+00  1.50000000E+00
  1.20000000E+00  1.20000000E+00  1.50000000E+00  1.20000000E+00  1.20000000E+00
  1.50000000E+00  1.20000000E+00  1.20000000E+00  1.50000000E+00  1.20000000E+00
  1.20000000E+00  1.50000000E+00  1.20000000E+00  1.20000000E+00  1.50000000E+00
  1.20000000E+00  1.20000000E+00  1.50000000E+00  1.20000000E+00  1.20000000E+00
  1.50000000E+00  1.20000000E+00  1.20000000E+00  1.50000000E+00  1.20000000E+00
  1.20000000E+00  1.50000000E+00  1.20000000E+00  1.20000000E+00  1.50000000E+00
  1.20000000E+00  1.20000000E+00  1.50000000E+00  1.20000000E+00  1.20000000E+00
  1.50000000E+00  1.20000000E+00  1.20000000E+00  1.50000000E+00  1.20000000E+00
  1.20000000E+00  1.50000000E+00  1.20000000E+00  1.20000000E+00  1.50000000E+00
  1.20000000E+00  1.20000000E+00  1.50000000E+00  1.20000000E+00  1.20000000E+00
  1.50000000E+00  1.20000000E+00  1.20000000E+00  1.50000000E+00  1.20000000E+00
  1.20000000E+00  1.50000000E+00  1.20000000E+00  1.20000000E+00  1.50000000E+00
  1.20000000E+00  1.20000000E+00  1.50000000E+00  1.20000000E+00  1.20000000E+00
  1.50000000E+00  1.20000000E+00  1.20000000E+00  1.50000000E+00  1.20000000E+00
  1.20000000E+00  1.50000000E+00  1.20000000E+00  1.20000000E+00  1.50000000E+00
  1.20000000E+00  1.20000000E+00  1.50000000E+00  1.20000000E+00  1.20000000E+00
  1.50000000E+00  1.20000000E+00  1.20000000E+00  1.50000000E+00  1.20000000E+00
  1.20000000E+00  1.50000000E+00  1.20000000E+00  1.20000000E+00  1.50000000E+00
  1.20000000E+00  1.20000000E+00  1.50000000E+00  1.20000000E+00  1.20000000E+00
  1.50000000E+00  1.20000000E+00  1.20000000E+00  1.50000000E+00  1.20000000E+00
  1.20000000E+00  1.50000000E+00  1.20000000E+00  1.20000000E+00  1.50000000E+00
  1.20000000E+00  1.20000000E+00  1.50000000E+00  1.20000000E+00  1.20000000E+00
  1.50000000E+00  1.20000000E+00  1.20000000E+00  1.50000000E+00  1.20000000E+00
  1.20000000E+00  1.50000000E+00  1.20000000E+00  1.20000000E+00  1.50000000E+00
  1.20000000E+00  1.20000000E+00  1.50000000E+00  1.20000000E+00  1.20000000E+00
  1.50000000E+00  1.20000000E+00  1.20000000E+00  1.50000000E+00  1.20000000E+00
  1.20000000E+00  1.50000000E+00  1.20000000E+00  1.20000000E+00  1.50000000E+00
  1.20000000E+00  1.20000000E+00  1.50000000E+00  1.20000000E+00  1.20000000E+00
  1.50000000E+00  1.20000000E+00  1.20000000E+00  1.50000000E+00  1.20000000E+00
  1.20000000E+00  1.50000000E+00  1.20000000E+00  1.20000000E+00  1.50000000E+00
  1.20000000E+00  1.20000000E+00  1.50000000E+00  1.20000000E+00  1.20000000E+00
  1.50000000E+00  1.20000000E+00  1.20000000E+00  1.50000000E+00  1.20000000E+00
  1.20000000E+00  1.50000000E+00  1.20000000E+00  1.20000000E+00  1.50000000E+00
  1.20000000E+00  1.20000000E+00  1.50000000E+00  1.20000000E+00  1.20000000E+00
  1.50000000E+00  1.20000000E+00  1.20000000E+00  1.50000000E+00  1.20000000E+00
  1.20000000E+00  1.50000000E+00  1.20000000E+00  1.20000000E+00  1.50000000E+00
  1.20000000E+00  1.20000000E+00  1.50000000E+00  1.20000000E+00  1.20000000E+00
  1.50000000E+00  1.20000000E+00  1.20000000E+00  1.50000000E+00  1.20000000E+00
  1.20000000E+00  1.50000000E+00  1.20000000E+00  1.20000000E+00  1.50000000E+00
  1.20000000E+00  1.20000000E+00  1.50000000E+00  1.20000000E+00  1.20000000E+00
  1.50000000E+00  1.20000000E+00  1.20000000E+00  1.50000000E+00  1.20000000E+00
  1.20000000E+00  1.50000000E+00  1.20000000E+00  1.20000000E+00  1.50000000E+00
  1.20000000E+00  1.20000000E+00  1.50000000E+00  1.20000000E+00  1.20000000E+00
  1.50000000E+00  1.20000000E+00  1.20000000E+00  1.50000000E+00  1.20000000E+00
  1.20000000E+00  1.50000000E+00  1.20000000E+00  1.20000000E+00  1.50000000E+00
  1.20000000E+00  1.20000000E+00  1.50000000E+00  1.20000000E+00  1.20000000E+00
  1.50000000E+00  1.20000000E+00  1.20000000E+00  1.50000000E+00  1.20000000E+00
  1.20000000E+00  1.50000000E+00  1.20000000E+00  1.20000000E+00  1.50000000E+00
  1.20000000E+00  1.20000000E+00  1.50000000E+00  1.20000000E+00  1.20000000E+00
  1.50000000E+00  1.20000000E+00  1.20000000E+00  1.50000000E+00  1.20000000E+00
  1.20000000E+00  1.50000000E+00  1.20000000E+00  1.20000000E+00  1.50000000E+00
  1.20000000E+00  1.20000000E+00  1.50000000E+00  1.20000000E+00  1.20000000E+00
  1.50000000E+00  1.20000000E+00  1.20000000E+00  1.50000000E+00  1.20000000E+00
  1.20000000E+00  1.50000000E+00  1.20000000E+00  1.20000000E+00  1.50000000E+00
  1.20000000E+00  1.20000000E+00  1.50000000E+00  1.20000000E+00  1.20000000E+00
  1.50000000E+00  1.20000000E+00  1.20000000E+00  1.50000000E+00  1.20000000E+00
  1.20000000E+00  1.50000000E+00  1.20000000E+00  1.20000000E+00  1.50000000E+00
  1.20000000E+00  1.20000000E+00  1.50000000E+00  1.20000000E+00  1.20000000E+00
  1.50000000E+00  1.20000000E+00  1.20000000E+00  1.50000000E+00  1.20000000E+00
  1.20000000E+00  1.50000000E+00  1.20000000E+00  1.20000000E+00  1.50000000E+00
  1.20000000E+00  1.20000000E+00  1.50000000E+00  1.20000000E+00  1.20000000E+00
  1.50000000E+00  1.20000000E+00  1.20000000E+00  1.50000000E+00  1.20000000E+00
  1.20000000E+00  1.50000000E+00  1.20000000E+00  1.20000000E+00  1.50000000E+00
  1.20000000E+00  1.20000000E+00  1.50000000E+00  1.20000000E+00  1.20000000E+00
  1.50000000E+00  1.20000000E+00  1.20000000E+00  1.50000000E+00  1.20000000E+00
  1.20000000E+00  1.50000000E+00  1.20000000E+00  1.20000000E+00  1.50000000E+00
  1.20000000E+00  1.20000000E+00  1.50000000E+00  1.20000000E+00  1.20000000E+00
  1.50000000E+00  1.20000000E+00  1.20000000E+00  1.50000000E+00  1.20000000E+00
  1.20000000E+00  1.50000000E+00  1.20000000E+00  1.20000000E+00  1.50000000E+00
  1.20000000E+00  1.20000000E+00  1.50000000E+00  1.20000000E+00  1.20000000E+00
  1.50000000E+00  1.20000000E+00  1.20000000E+00  1.50000000E+00  1.20000000E+00
  1.20000000E+00  1.50000000E+00  1.20000000E+00  1.20000000E+00  1.50000000E+00
  1.20000000E+00  1.20000000E+00  1.50000000E+00  1.20000000E+00  1.20000000E+00
  1.50000000E+00  1.20000000E+00  1.20000000E+00  1.50000000E+00  1.20000000E+00
  1.20000000E+00  1.50000000E+00  1.20000000E+00  1.20000000E+00  1.50000000E+00
  1.20000000E+00  1.20000000E+00  1.50000000E+00  1.20000000E+00  1.20000000E+00
  1.50000000E+00  1.20000000E+00  1.20000000E+00  1.50000000E+00  1.20000000E+00
  1.20000000E+00  1.50000000E+00  1.20000000E+00  1.20000000E+00  1.50000000E+00
  1.20000000E+00  1.20000000E+00  1.50000000E+00  1.20000000E+00  1.20000000E+00
  1.50000000E+00  1.20000000E+00  1.20000000E+00  1.50000000E+00  1.20000000E+00
  1.20000000E+00  1.50000000E+00  1.20000000E+00  1.20000000E+00  1.50000000E+00
  1.20000000E+00  1.20000000E+00  1.50000000E+00  1.20000000E+00  1.20000000E+00
  1.50000000E+00  1.20000000E+00  1.20000000E+00  1.50000000E+00  1.20000000E+00
  1.20000000E+00  1.50000000E+00  1.20000000E+00  1.20000000E+00  1.50000000E+00
  1.20000000E+00  1.20000000E+00  1.50000000E+00  1.20000000E+00  1.20000000E+00
  1.50000000E+00  1.20000000E+00  1.20000000E+00  1.50000000E+00  1.20000000E+00
  1.20000000E+00  1.50000000E+00  1.20000000E+00  1.20000000E+00  1.50000000E+00
  1.20000000E+00  1.20000000E+00  1.50000000E+00  1.20000000E+00  1.20000000E+00
  1.50000000E+00  1.20000000E+00  1.20000000E+00  1.50000000E+00  1.20000000E+00
  1.20000000E+00  1.50000000E+00  1.20000000E+00  1.20000000E+00  1.50000000E+00
  1.20000000E+00  1.20000000E+00  1.50000000E+00  1.20000000E+00  1.20000000E+00
  1.50000000E+00  1.20000000E+00  1.20000000E+00  1.50000000E+00  1.20000000E+00
  1.20000000E+00  1.50000000E+00  1.20000000E+00  1.20000000E+00  1.50000000E+00
  1.20000000E+00  1.20000000E+00  1.50000000E+00  1.20000000E+00  1.20000000E+00
  1.50000000E+00  1.20000000E+00  1.20000000E+00  1.50000000E+00  1.20000000E+00
  1.20000000E+00  1.50000000E+00  1.20000000E+00  1.20000000E+00  1.50000000E+00
  1.20000000E+00  1.20000000E+00  1.50000000E+00  1.20000000E+00  1.20000000E+00
  1.50000000E+00  1.20000000E+00  1.20000000E+00  1.50000000E+00  1.20000000E+00
  1.20000000E+00  1.50000000E+00  1.20000000E+00  1.20000000E+00  1.50000000E+00
  1.20000000E+00  1.20000000E+00  1.50000000E+00  1.20000000E+00  1.20000000E+00
  1.50000000E+00  1.20000000E+00  1.20000000E+00  1.50000000E+00  1.20000000E+00
  1.20000000E+00  1.50000000E+00  1.20000000E+00  1.20000000E+00  1.50000000E+00
  1.20000000E+00  1.20000000E+00  1.50000000E+00  1.20000000E+00  1.20000000E+00
  1.50000000E+00  1.20000000E+00  1.20000000E+00  1.50000000E+00  1.20000000E+00
  1.20000000E+00  1.50000000E+00  1.20000000E+00  1.20000000E+00  1.50000000E+00
  1.20000000E+00  1.20000000E+00  1.50000000E+00  1.20000000E+00  1.20000000E+00
  1.50000000E+00  1.20000000E+00  1.20000000E+00  1.50000000E+00  1.20000000E+00
  1.20000000E+00  1.50000000E+00  1.20000000E+00  1.20000000E+00  1.50000000E+00
  1.20000000E+00  1.20000000E+00  1.50000000E+00  1.20000000E+00  1.20000000E+00
  1.50000000E+00  1.20000000E+00  1.20000000E+00  1.50000000E+00  1.20000000E+00
  1.20000000E+00  1.50000000E+00  1.20000000E+00  1.20000000E+00  1.50000000E+00
  1.20000000E+00  1.20000000E+00  1.50000000E+00  1.20000000E+00  1.20000000E+00
  1.50000000E+00  1.20000000E+00  1.20000000E+00  1.50000000E+00  1.20000000E+00
  1.20000000E+00  1.50000000E+00  1.20000000E+00  1.20000000E+00  1.50000000E+00
  1.20000000E+00  1.20000000E+00  1.50000000E+00  1.20000000E+00  1.20000000E+00
  1.50000000E+00  1.20000000E+00  1.20000000E+00  1.50000000E+00  1.20000000E+00
  1.20000000E+00  1.50000000E+00  1.20000000E+00  1.20000000E+00  1.50000000E+00
  1.20000000E+00  1.20000000E+00  1.50000000E+00  1.20000000E+00  1.20000000E+00
  1.50000000E+00  1.20000000E+00  1.20000000E+00  1.50000000E+00  1.20000000E+00
  1.20000000E+00  1.50000000E+00  1.20000000E+00  1.20000000E+00  1.50000000E+00
  1.20000000E+00  1.20000000E+00  1.50000000E+00  1.20000000E+00  1.20000000E+00
  1.50000000E+00  1.20000000E+00  1.20000000E+00  1.50000000E+00  1.20000000E+00
  1.20000000E+00  1.50000000E+00  1.20000000E+00  1.20000000E+00  1.50000000E+00
  1.20000000E+00  1.20000000E+00  1.50000000E+00  1.20000000E+00  1.20000000E+00
  1.50000000E+00  1.20000000E+00  1.20000000E+00  1.50000000E+00  1.20000000E+00
  1.20000000E+00  1.50000000E+00  1.20000000E+00  1.20000000E+00  1.50000000E+00
  1.20000000E+00  1.20000000E+00  1.50000000E+00  1.20000000E+00  1.20000000E+00
  1.50000000E+00  1.20000000E+00  1.20000000E+00  1.50000000E+00  1.20000000E+00
  1.20000000E+00  1.50000000E+00  1.20000000E+00  1.20000000E+00  1.50000000E+00
  1.20000000E+00  1.20000000E+00  1.50000000E+00  1.20000000E+00  1.20000000E+00
  1.50000000E+00  1.20000000E+00  1.20000000E+00  1.50000000E+00  1.20000000E+00
  1.20000000E+00  1.50000000E+00  1.20000000E+00  1.20000000E+00  1.50000000E+00
  1.20000000E+00  1.20000000E+00  1.50000000E+00  1.20000000E+00  1.20000000E+00
  1.50000000E+00  1.20000000E+00  1.20000000E+00  1.50000000E+00  1.20000000E+00
  1.20000000E+00  1.50000000E+00  1.20000000E+00  1.20000000E+00  1.50000000E+00
  1.20000000E+00  1.20000000E+00  1.50000000E+00  1.20000000E+00  1.20000000E+00
  1.50000000E+00  1.20000000E+00  1.20000000E+00  1.50000000E+00  1.20000000E+00
  1.20000000E+00  1.50000000E+00  1.20000000E+00  1.20000000E+00  1.50000000E+00
  1.20000000E+00  1.20000000E+00  1.50000000E+00  1.20000000E+00  1.20000000E+00
  1.50000000E+00  1.20000000E+00  1.20000000E+00  1.50000000E+00  1.20000000E+00
  1.20000000E+00  1.50000000E+00  1.20000000E+00  1.20000000E+00  1.50000000E+00
  1.20000000E+00  1.20000000E+00  1.50000000E+00  1.20000000E+00  1.20000000E+00
  1.50000000E+00  1.20000000E+00  1.20000000E+00  1.50000000E+00  1.20000000E+00
  1.20000000E+00  1.50000000E+00  1.20000000E+00  1.20000000E+00  1.50000000E+00
  1.20000000E+00  1.20000000E+00  1.50000000E+00  1.20000000E+00  1.20000000E+00
  1.50000000E+00  1.20000000E+00  1.20000000E+00  1.50000000E+00  1.20000000E+00
  1.20000000E+00  1.50000000E+00  1.20000000E+00  1.20000000E+00  1.50000000E+00
  1.20000000E+00  1.20000000E+00  1.50000000E+00  1.20000000E+00  1.20000000E+00
  1.50000000E+00  1.20000000E+00  1.20000000E+00  1.50000000E+00  1.20000000E+00
  1.20000000E+00  1.50000000E+00  1.20000000E+00  1.20000000E+00  1.50000000E+00
  1.20000000E+00  1.20000000E+00  1.50000000E+00  1.20000000E+00  1.20000000E+00
  1.50000000E+00  1.20000000E+00  1.20000000E+00  1.50000000E+00  1.20000000E+00
  1.20000000E+00  1.50000000E+00  1.20000000E+00  1.20000000E+00  1.50000000E+00
  1.20000000E+00  1.20000000E+00  1.50000000E+00  1.20000000E+00  1.20000000E+00
  1.50000000E+00  1.20000000E+00  1.20000000E+00  1.50000000E+00  1.20000000E+00
  1.20000000E+00  1.50000000E+00  1.20000000E+00  1.20000000E+00  1.50000000E+00
  1.20000000E+00  1.20000000E+00  1.50000000E+00  1.20000000E+00  1.20000000E+00
  1.50000000E+00  1.20000000E+00  1.20000000E+00  1.50000000E+00  1.20000000E+00
  1.20000000E+00  1.50000000E+00  1.20000000E+00  1.20000000E+00  1.50000000E+00
  1.20000000E+00  1.20000000E+00  1.50000000E+00  1.20000000E+00  1.20000000E+00
  1.50000000E+00  1.20000000E+00  1.20000000E+00  1.50000000E+00  1.20000000E+00
  1.20000000E+00  1.50000000E+00  1.20000000E+00  1.20000000E+00  1.50000000E+00
  1.20000000E+00  1.20000000E+00  1.50000000E+00  1.20000000E+00  1.20000000E+00
  1.50000000E+00  1.20000000E+00  1.20000000E+00  1.50000000E+00  1.20000000E+00
  1.20000000E+00  1.50000000E+00  1.20000000E+00  1.20000000E+00  1.50000000E+00
  1.20000000E+00  1.20000000E+00  1.50000000E+00  1.20000000E+00  1.20000000E+00
  1.50000000E+00  1.20000000E+00  1.20000000E+00  1.50000000E+00  1.20000000E+00
  1.20000000E+00  1.50000000E+00  1.20000000E+00  1.20000000E+00  1.50000000E+00
  1.20000000E+00  1.20000000E+00  1.50000000E+00  1.20000000E+00  1.20000000E+00
  1.50000000E+00  1.20000000E+00  1.20000000E+00  1.50000000E+00  1.20000000E+00
  1.20000000E+00  1.50000000E+00  1.20000000E+00  1.20000000E+00  1.50000000E+00
  1.20000000E+00  1.20000000E+00  1.50000000E+00  1.20000000E+00  1.20000000E+00
  1.50000000E+00  1.20000000E+00  1.20000000E+00  1.50000000E+00  1.20000000E+00
  1.20000000E+00  1.50000000E+00  1.20000000E+00  1.20000000E+00  1.50000000E+00
  1.20000000E+00  1.20000000E+00  1.50000000E+00  1.20000000E+00  1.20000000E+00
  1.50000000E+00  1.20000000E+00  1.20000000E+00  1.50000000E+00  1.20000000E+00
  1.20000000E+00  1.50000000E+00  1.20000000E+00  1.20000000E+00  1.50000000E+00
  1.20000000E+00  1.20000000E+00  1.50000000E+00  1.20000000E+00  1.20000000E+00
  1.50000000E+00  1.20000000E+00  1.20000000E+00  1.50000000E+00  1.20000000E+00
  1.20000000E+00  1.50000000E+00  1.20000000E+00  1.20000000E+00  1.50000000E+00
  1.20000000E+00  1.20000000E+00  1.50000000E+00  1.20000000E+00  1.20000000E+00
  1.50000000E+00  1.20000000E+00  1.20000000E+00  1.50000000E+00  1.20000000E+00
  1.20000000E+00  1.50000000E+00  1.20000000E+00  1.20000000E+00  1.50000000E+00
  1.20000000E+00  1.20000000E+00  1.50000000E+00  1.20000000E+00  1.20000000E+00
  1.50000000E+00  1.20000000E+00  1.20000000E+00  1.50000000E+00  1.20000000E+00
  1.20000000E+00  1.50000000E+00  1.20000000E+00  1.20000000E+00  1.50000000E+00
  1.20000000E+00  1.20000000E+00  1.50000000E+00  1.20000000E+00  1.20000000E+00
  1.50000000E+00  1.20000000E+00  1.20000000E+00  1.50000000E+00  1.20000000E+00
  1.20000000E+00  1.50000000E+00  1.20000000E+00  1.20000000E+00  1.50000000E+00
  1.20000000E+00  1.20000000E+00  1.50000000E+00  1.20000000E+00  1.20000000E+00
  1.50000000E+00  1.20000000E+00  1.20000000E+00  1.50000000E+00  1.20000000E+00
  1.20000000E+00  1.50000000E+00  1.20000000E+00  1.20000000E+00  1.50000000E+00
  1.20000000E+00  1.20000000E+00  1.50000000E+00  1.20000000E+00  1.20000000E+00
  1.50000000E+00  1.20000000E+00  1.20000000E+00  1.50000000E+00  1.20000000E+00
  1.20000000E+00  1.50000000E+00  1.20000000E+00  1.20000000E+00  1.50000000E+00
  1.20000000E+00  1.20000000E+00  1.50000000E+00  1.20000000E+00  1.20000000E+00
  1.50000000E+00  1.20000000E+00  1.20000000E+00  1.50000000E+00  1.20000000E+00
  1.20000000E+00  1.50000000E+00  1.20000000E+00  1.20000000E+00  1.50000000E+00
  1.20000000E+00  1.20000000E+00  1.50000000E+00  1.20000000E+00  1.20000000E+00
  1.50000000E+00  1.20000000E+00  1.20000000E+00  1.50000000E+00  1.20000000E+00
  1.20000000E+00  1.50000000E+00  1.20000000E+00  1.20000000E+00  1.50000000E+00
  1.20000000E+00  1.20000000E+00  1.50000000E+00  1.20000000E+00  1.20000000E+00
  1.50000000E+00  1.20000000E+00  1.20000000E+00  1.50000000E+00  1.20000000E+00
  1.20000000E+00  1.50000000E+00  1.20000000E+00  1.20000000E+00  1.50000000E+00
  1.20000000E+00  1.20000000E+00  1.50000000E+00  1.20000000E+00  1.20000000E+00
  1.50000000E+00  1.20000000E+00  1.20000000E+00  1.50000000E+00  1.20000000E+00
  1.20000000E+00  1.50000000E+00  1.20000000E+00  1.20000000E+00  1.50000000E+00
  1.20000000E+00  1.20000000E+00  1.50000000E+00  1.20000000E+00  1.20000000E+00
  1.50000000E+00  1.20000000E+00  1.20000000E+00  1.50000000E+00  1.20000000E+00
  1.20000000E+00  1.50000000E+00  1.20000000E+00  1.20000000E+00  1.50000000E+00
  1.20000000E+00  1.20000000E+00  1.50000000E+00  1.20000000E+00  1.20000000E+00
  1.50000000E+00  1.20000000E+00  1.20000000E+00  1.50000000E+00  1.20000000E+00
  1.20000000E+00  1.50000000E+00  1.20000000E+00  1.20000000E+00  1.50000000E+00
  1.20000000E+00  1.20000000E+00  1.50000000E+00  1.20000000E+00  1.20000000E+00
  1.50000000E+00  1.20000000E+00  1.20000000E+00  1.50000000E+00  1.20000000E+00
  1.20000000E+00  1.50000000E+00  1.20000000E+00  1.20000000E+00  1.50000000E+00
  1.20000000E+00  1.20000000E+00  1.50000000E+00  1.20000000E+00  1.20000000E+00
  1.50000000E+00  1.20000000E+00  1.20000000E+00  1.50000000E+00  1.20000000E+00
  1.20000000E+00  1.50000000E+00  1.20000000E+00  1.20000000E+00  1.50000000E+00
  1.20000000E+00  1.20000000E+00  1.50000000E+00  1.20000000E+00  1.20000000E+00
  1.50000000E+00  1.20000000E+00  1.20000000E+00  1.50000000E+00  1.20000000E+00
  1.20000000E+00  1.50000000E+00  1.20000000E+00  1.20000000E+00  1.50000000E+00
  1.20000000E+00  1.20000000E+00  1.50000000E+00  1.20000000E+00  1.20000000E+00
  1.50000000E+00  1.20000000E+00  1.20000000E+00  1.50000000E+00  1.20000000E+00
  1.20000000E+00  1.50000000E+00  1.20000000E+00  1.20000000E+00  1.50000000E+00
  1.20000000E+00  1.20000000E+00  1.50000000E+00  1.20000000E+00  1.20000000E+00
  1.50000000E+00  1.20000000E+00  1.20000000E+00  1.50000000E+00  1.20000000E+00
  1.20000000E+00  1.50000000E+00  1.20000000E+00  1.20000000E+00  1.50000000E+00
  1.20000000E+00  1.20000000E+00  1.50000000E+00  1.20000000E+00  1.20000000E+00
  1.50000000E+00  1.20000000E+00  1.20000000E+00  1.50000000E+00  1.20000000E+00
  1.20000000E+00  1.50000000E+00  1.20000000E+00  1.20000000E+00  1.50000000E+00
  1.20000000E+00  1.20000000E+00  1.50000000E+00  1.20000000E+00  1.20000000E+00
  1.50000000E+00  1.20000000E+00  1.20000000E+00  1.50000000E+00  1.20000000E+00
  1.20000000E+00  1.50000000E+00  1.20000000E+00  1.20000000E+00  1.50000000E+00
  1.20000000E+00  1.20000000E+00  1.50000000E+00  1.20000000E+00  1.20000000E+00
  1.50000000E+00  1.20000000E+00  1.20000000E+00  1.50000000E+00  1.20000000E+00
  1.20000000E+00  1.50000000E+00  1.20000000E+00  1.20000000E+00  1.50000000E+00
  1.20000000E+00  1.20000000E+00  1.50000000E+00  1.20000000E+00  1.20000000E+00
  1.50000000E+00  1.20000000E+00  1.20000000E+00  1.50000000E+00  1.20000000E+00
  1.20000000E+00  1.50000000E+00  1.20000000E+00  1.20000000E+00  1.50000000E+00
  1.20000000E+00  1.20000000E+00  1.50000000E+00  1.20000000E+00  1.20000000E+00
  1.50000000E+00  1.20000000E+00  1.20000000E+00  1.50000000E+00  1.20000000E+00
  1.20000000E+00  1.50000000E+00  1.20000000E+00  1.20000000E+00  1.50000000E+00
  1.20000000E+00  1.20000000E+00  1.50000000E+00  1.20000000E+00  1.20000000E+00
  1.50000000E+00  1.20000000E+00  1.20000000E+00  1.50000000E+00  1.20000000E+00
  1.20000000E+00  1.50000000E+00  1.20000000E+00  1.20000000E+00  1.50000000E+00
  1.20000000E+00  1.20000000E+00  1.50000000E+00  1.20000000E+00  1.20000000E+00
  1.50000000E+00  1.20000000E+00  1.20000000E+00  1.50000000E+00  1.20000000E+00
  1.20000000E+00  1.50000000E+00  1.20000000E+00  1.20000000E+00  1.50000000E+00
  1.20000000E+00  1.20000000E+00  1.50000000E+00  1.20000000E+00  1.20000000E+00
  1.50000000E+00  1.20000000E+00  1.20000000E+00  1.50000000E+00  1.20000000E+00
  1.20000000E+00  1.50000000E+00  1.20000000E+00  1.20000000E+00  1.50000000E+00
  1.20000000E+00  1.20000000E+00  1.50000000E+00  1.20000000E+00  1.20000000E+00
  1.50000000E+00  1.20000000E+00  1.20000000E+00  1.50000000E+00  1.20000000E+00
  1.20000000E+00  1.50000000E+00  1.20000000E+00  1.20000000E+00  1.50000000E+00
  1.20000000E+00  1.20000000E+00  1.50000000E+00  1.20000000E+00  1.20000000E+00
  1.50000000E+00  1.20000000E+00  1.20000000E+00  1.50000000E+00  1.20000000E+00
  1.20000000E+00  1.50000000E+00  1.20000000E+00  1.20000000E+00  1.50000000E+00
  1.20000000E+00  1.20000000E+00  1.50000000E+00  1.20000000E+00  1.20000000E+00
  1.50000000E+00  1.20000000E+00  1.20000000E+00  1.50000000E+00  1.20000000E+00
  1.20000000E+00  1.50000000E+00  1.20000000E+00  1.20000000E+00  1.50000000E+00
  1.20000000E+00  1.20000000E+00  1.50000000E+00  1.20000000E+00  1.20000000E+00
  1.50000000E+00  1.20000000E+00  1.20000000E+00  1.50000000E+00  1.20000000E+00
  1.20000000E+00  1.50000000E+00  1.20000000E+00  1.20000000E+00  1.50000000E+00
  1.20000000E+00  1.20000000E+00  1.50000000E+00  1.20000000E+00  1.20000000E+00
  1.50000000E+00  1.20000000E+00  1.20000000E+00  1.50000000E+00  1.20000000E+00
  1.20000000E+00  1.50000000E+00  1.20000000E+00  1.20000000E+00  1.50000000E+00
  1.20000000E+00  1.20000000E+00  1.50000000E+00  1.20000000E+00  1.20000000E+00
  1.50000000E+00  1.20000000E+00  1.20000000E+00  1.50000000E+00  1.20000000E+00
  1.20000000E+00  1.50000000E+00  1.20000000E+00  1.20000000E+00  1.50000000E+00
  1.20000000E+00  1.20000000E+00  1.50000000E+00  1.20000000E+00  1.20000000E+00
  1.50000000E+00  1.20000000E+00  1.20000000E+00  1.50000000E+00  1.20000000E+00
  1.20000000E+00  1.50000000E+00  1.20000000E+00  1.20000000E+00  1.50000000E+00
  1.20000000E+00  1.20000000E+00  1.50000000E+00  1.20000000E+00  1.20000000E+00
  1.50000000E+00  1.20000000E+00  1.20000000E+00  1.50000000E+00  1.20000000E+00
  1.20000000E+00  1.50000000E+00  1.20000000E+00  1.20000000E+00  1.50000000E+00
  1.20000000E+00  1.20000000E+00  1.50000000E+00  1.20000000E+00  1.20000000E+00
  1.50000000E+00  1.20000000E+00  1.20000000E+00  1.50000000E+00  1.20000000E+00
  1.20000000E+00  1.50000000E+00  1.20000000E+00  1.20000000E+00  1.50000000E+00
  1.20000000E+00  1.20000000E+00  1.50000000E+00  1.20000000E+00  1.20000000E+00
  1.50000000E+00  1.20000000E+00  1.20000000E+00  1.50000000E+00  1.20000000E+00
  1.20000000E+00  1.50000000E+00  1.20000000E+00  1.20000000E+00  1.50000000E+00
  1.20000000E+00  1.20000000E+00  1.50000000E+00  1.20000000E+00  1.20000000E+00
  1.50000000E+00  1.20000000E+00  1.20000000E+00  1.50000000E+00  1.20000000E+00
  1.20000000E+00  1.50000000E+00  1.20000000E+00  1.20000000E+00  1.50000000E+00
  1.20000000E+00  1.20000000E+00  1.50000000E+00  1.20000000E+00  1.20000000E+00
  1.50000000E+00  1.20000000E+00  1.20000000E+00  1.50000000E+00  1.20000000E+00
  1.20000000E+00  1.50000000E+00  1.20000000E+00  1.20000000E+00  1.50000000E+00
  1.20000000E+00  1.20000000E+00  1.50000000E+00  1.20000000E+00  1.20000000E+00
  1.50000000E+00  1.20000000E+00  1.20000000E+00  1.50000000E+00  1.20000000E+00
  1.20000000E+00  1.50000000E+00  1.20000000E+00  1.20000000E+00  1.50000000E+00
  1.20000000E+00  1.20000000E+00  1.50000000E+00  1.20000000E+00  1.20000000E+00
  1.50000000E+00  1.20000000E+00  1.20000000E+00  1.50000000E+00  1.20000000E+00
  1.20000000E+00  1.50000000E+00  1.20000000E+00  1.20000000E+00  1.50000000E+00
  1.20000000E+00  1.20000000E+00  1.50000000E+00  1.20000000E+00  1.20000000E+00
  1.50000000E+00  1.20000000E+00  1.20000000E+00  1.50000000E+00  1.20000000E+00
  1.20000000E+00  1.50000000E+00  1.20000000E+00  1.20000000E+00  1.50000000E+00
  1.20000000E+00  1.20000000E+00  1.50000000E+00  1.20000000E+00  1.20000000E+00
  1.50000000E+00  1.20000000E+00  1.20000000E+00  1.50000000E+00  1.20000000E+00
  1.20000000E+00  1.50000000E+00  1.20000000E+00  1.20000000E+00  1.50000000E+00
  1.20000000E+00  1.20000000E+00  1.50000000E+00  1.20000000E+00  1.20000000E+00
  1.50000000E+00  1.20000000E+00  1.20000000E+00  1.50000000E+00  1.20000000E+00
  1.20000000E+00  1.50000000E+00  1.20000000E+00  1.20000000E+00  1.50000000E+00
  1.20000000E+00  1.20000000E+00  1.50000000E+00  1.20000000E+00  1.20000000E+00
  1.50000000E+00  1.20000000E+00  1.20000000E+00  1.50000000E+00  1.20000000E+00
  1.20000000E+00  1.50000000E+00  1.20000000E+00  1.20000000E+00  1.50000000E+00
  1.20000000E+00  1.20000000E+00  1.50000000E+00  1.20000000E+00  1.20000000E+00
  1.50000000E+00  1.20000000E+00  1.20000000E+00  1.50000000E+00  1.20000000E+00
  1.20000000E+00  1.50000000E+00  1.20000000E+00  1.20000000E+00  1.50000000E+00
  1.20000000E+00  1.20000000E+00  1.50000000E+00  1.20000000E+00  1.20000000E+00
  1.50000000E+00  1.20000000E+00  1.20000000E+00  1.50000000E+00  1.20000000E+00
  1.20000000E+00  1.50000000E+00  1.20000000E+00  1.20000000E+00  1.50000000E+00
  1.20000000E+00  1.20000000E+00  1.50000000E+00  1.20000000E+00  1.20000000E+00
  1.50000000E+00  1.20000000E+00  1.20000000E+00  1.50000000E+00  1.20000000E+00
  1.20000000E+00  1.50000000E+00  1.20000000E+00  1.20000000E+00  1.50000000E+00
  1.20000000E+00  1.20000000E+00  1.50000000E+00  1.20000000E+00  1.20000000E+00
  1.50000000E+00  1.20000000E+00  1.20000000E+00  1.50000000E+00  1.20000000E+00
  1.20000000E+00  1.50000000E+00  1.20000000E+00  1.20000000E+00  1.50000000E+00
  1.20000000E+00  1.20000000E+00  1.50000000E+00  1.20000000E+00  1.20000000E+00
  1.50000000E+00  1.20000000E+00  1.20000000E+00  1.50000000E+00  1.20000000E+00
  1.20000000E+00  1.50000000E+00  1.20000000E+00  1.20000000E+00  1.50000000E+00
  1.20000000E+00  1.20000000E+00  1.50000000E+00  1.20000000E+00  1.20000000E+00
  1.50000000E+00  1.20000000E+00  1.20000000E+00  1.50000000E+00  1.20000000E+00
  1.20000000E+00  1.50000000E+00  1.20000000E+00  1.20000000E+00  1.50000000E+00
  1.20000000E+00  1.20000000E+00  1.50000000E+00  1.20000000E+00  1.20000000E+00
  1.50000000E+00  1.20000000E+00  1.20000000E+00  1.50000000E+00  1.20000000E+00
  1.20000000E+00  1.50000000E+00  1.20000000E+00  1.20000000E+00  1.50000000E+00
  1.20000000E+00  1.20000000E+00  1.50000000E+00  1.20000000E+00  1.20000000E+00
  1.50000000E+00  1.20000000E+00  1.20000000E+00  1.50000000E+00  1.20000000E+00
  1.20000000E+00  1.50000000E+00  1.20000000E+00  1.20000000E+00  1.50000000E+00
  1.20000000E+00  1.20000000E+00  1.50000000E+00  1.20000000E+00  1.20000000E+00
  1.50000000E+00  1.20000000E+00  1.20000000E+00  1.50000000E+00  1.20000000E+00
  1.20000000E+00  1.50000000E+00  1.20000000E+00  1.20000000E+00  1.50000000E+00
  1.20000000E+00  1.20000000E+00  1.50000000E+00  1.20000000E+00  1.20000000E+00
  1.50000000E+00  1.20000000E+00  1.20000000E+00  1.50000000E+00  1.20000000E+00
  1.20000000E+00  1.50000000E+00  1.20000000E+00  1.20000000E+00  1.50000000E+00
  1.20000000E+00  1.20000000E+00  1.50000000E+00  1.20000000E+00  1.20000000E+00
  1.50000000E+00  1.20000000E+00  1.20000000E+00  1.50000000E+00  1.20000000E+00
  1.20000000E+00  1.50000000E+00  1.20000000E+00  1.20000000E+00  1.50000000E+00
  1.20000000E+00  1.20000000E+00  1.50000000E+00  1.20000000E+00  1.20000000E+00
  1.50000000E+00  1.20000000E+00  1.20000000E+00  1.50000000E+00  1.20000000E+00
  1.20000000E+00  1.50000000E+00  1.20000000E+00  1.20000000E+00  1.50000000E+00
  1.20000000E+00  1.20000000E+00  1.50000000E+00  1.20000000E+00  1.20000000E+00
  1.50000000E+00  1.20000000E+00  1.20000000E+00  1.50000000E+00  1.20000000E+00
  1.20000000E+00  1.50000000E+00  1.20000000E+00  1.20000000E+00  1.50000000E+00
  1.20000000E+00  1.20000000E+00  1.50000000E+00  1.20000000E+00  1.20000000E+00
  1.50000000E+00  1.20000000E+00  1.20000000E+00  1.50000000E+00  1.20000000E+00
  1.20000000E+00  1.50000000E+00  1.20000000E+00  1.20000000E+00  1.50000000E+00
  1.20000000E+00  1.20000000E+00  1.50000000E+00  1.20000000E+00  1.20000000E+00
  1.50000000E+00  1.20000000E+00  1.20000000E+00  1.50000000E+00  1.20000000E+00
  1.20000000E+00  1.50000000E+00  1.20000000E+00  1.20000000E+00  1.50000000E+00
  1.20000000E+00  1.20000000E+00  1.50000000E+00  1.20000000E+00  1.20000000E+00
  1.50000000E+00  1.20000000E+00  1.20000000E+00  1.50000000E+00  1.20000000E+00
  1.20000000E+00  1.50000000E+00  1.20000000E+00  1.20000000E+00  1.50000000E+00
  1.20000000E+00  1.20000000E+00  1.50000000E+00  1.20000000E+00  1.20000000E+00
  1.50000000E+00  1.20000000E+00  1.20000000E+00  1.50000000E+00  1.20000000E+00
  1.20000000E+00  1.50000000E+00  1.20000000E+00  1.20000000E+00  1.50000000E+00
  1.20000000E+00  1.20000000E+00  1.50000000E+00  1.20000000E+00  1.20000000E+00
  1.50000000E+00  1.20000000E+00  1.20000000E+00  1.50000000E+00  1.20000000E+00
  1.20000000E+00  1.50000000E+00  1.20000000E+00  1.20000000E+00  1.50000000E+00
  1.20000000E+00  1.20000000E+00  1.50000000E+00  1.20000000E+00  1.20000000E+00
  1.50000000E+00  1.20000000E+00  1.20000000E+00  1.50000000E+00  1.20000000E+00
  1.20000000E+00  1.50000000E+00  1.20000000E+00  1.20000000E+00  1.50000000E+00
  1.20000000E+00  1.20000000E+00  1.50000000E+00  1.20000000E+00  1.20000000E+00
  1.50000000E+00  1.20000000E+00  1.20000000E+00  1.50000000E+00  1.20000000E+00
  1.20000000E+00  1.50000000E+00  1.20000000E+00  1.20000000E+00  1.50000000E+00
  1.20000000E+00  1.20000000E+00  1.50000000E+00  1.20000000E+00  1.20000000E+00
  1.50000000E+00  1.20000000E+00  1.20000000E+00  1.50000000E+00  1.20000000E+00
  1.20000000E+00  1.50000000E+00  1.20000000E+00  1.20000000E+00  1.50000000E+00
  1.20000000E+00  1.20000000E+00  1.50000000E+00  1.20000000E+00  1.20000000E+00
  1.50000000E+00  1.20000000E+00  1.20000000E+00  1.50000000E+00  1.20000000E+00
  1.20000000E+00  1.50000000E+00  1.20000000E+00  1.20000000E+00  1.50000000E+00
  1.20000000E+00  1.20000000E+00  1.50000000E+00  1.20000000E+00  1.20000000E+00
  1.50000000E+00  1.20000000E+00  1.20000000E+00  1.50000000E+00  1.20000000E+00
  1.20000000E+00  1.50000000E+00  1.20000000E+00  1.20000000E+00  1.50000000E+00
  1.20000000E+00  1.20000000E+00  1.50000000E+00  1.20000000E+00  1.20000000E+00
  1.50000000E+00  1.20000000E+00  1.20000000E+00  1.50000000E+00  1.20000000E+00
  1.20000000E+00  1.50000000E+00  1.20000000E+00  1.20000000E+00  1.50000000E+00
  1.20000000E+00  1.20000000E+00  1.50000000E+00  1.20000000E+00  1.20000000E+00
  1.50000000E+00  1.20000000E+00  1.20000000E+00  1.50000000E+00  1.20000000E+00
  1.20000000E+00  1.50000000E+00  1.20000000E+00  1.20000000E+00  1.50000000E+00
  1.20000000E+00  1.20000000E+00  1.50000000E+00  1.20000000E+00  1.20000000E+00
  1.50000000E+00  1.20000000E+00  1.20000000E+00  1.50000000E+00  1.20000000E+00
  1.20000000E+00  1.50000000E+00  1.20000000E+00  1.20000000E+00  1.50000000E+00
  1.20000000E+00  1.20000000E+00  1.50000000E+00  1.20000000E+00  1.20000000E+00
  1.50000000E+00  1.20000000E+00  1.20000000E+00  1.50000000E+00  1.20000000E+00
  1.20000000E+00  1.50000000E+00  1.20000000E+00  1.20000000E+00  1.50000000E+00
  1.20000000E+00  1.20000000E+00  1.50000000E+00  1.20000000E+00  1.20000000E+00
  1.50000000E+00  1.20000000E+00  1.20000000E+00  1.50000000E+00  1.20000000E+00
  1.20000000E+00  1.50000000E+00  1.20000000E+00  1.20000000E+00  1.50000000E+00
  1.20000000E+00  1.20000000E+00  1.50000000E+00  1.20000000E+00  1.20000000E+00
  1.50000000E+00  1.20000000E+00  1.20000000E+00  1.50000000E+00  1.20000000E+00
  1.20000000E+00  1.50000000E+00  1.20000000E+00  1.20000000E+00  1.50000000E+00
  1.20000000E+00  1.20000000E+00  1.50000000E+00  1.20000000E+00  1.20000000E+00
  1.50000000E+00  1.20000000E+00  1.20000000E+00  1.50000000E+00  1.20000000E+00
  1.20000000E+00  1.50000000E+00  1.20000000E+00  1.20000000E+00  1.50000000E+00
  1.20000000E+00  1.20000000E+00  1.50000000E+00  1.20000000E+00  1.20000000E+00
  1.50000000E+00  1.20000000E+00  1.20000000E+00  1.50000000E+00  1.20000000E+00
  1.20000000E+00  1.50000000E+00  1.20000000E+00  1.20000000E+00  1.50000000E+00
  1.20000000E+00  1.20000000E+00  1.50000000E+00  1.20000000E+00  1.20000000E+00
  1.50000000E+00  1.20000000E+00  1.20000000E+00  1.50000000E+00  1.20000000E+00
  1.20000000E+00  1.50000000E+00  1.20000000E+00  1.20000000E+00  1.50000000E+00
  1.20000000E+00  1.20000000E+00  1.50000000E+00  1.20000000E+00  1.20000000E+00
  1.50000000E+00  1.20000000E+00  1.20000000E+00  1.50000000E+00  1.20000000E+00
  1.20000000E+00  1.50000000E+00  1.20000000E+00  1.20000000E+00  1.50000000E+00
  1.20000000E+00  1.20000000E+00  1.50000000E+00  1.20000000E+00  1.20000000E+00
  1.50000000E+00  1.20000000E+00  1.20000000E+00  1.50000000E+00  1.20000000E+00
  1.20000000E+00  1.50000000E+00  1.20000000E+00  1.20000000E+00  1.50000000E+00
  1.20000000E+00  1.20000000E+00  1.50000000E+00  1.20000000E+00  1.20000000E+00
  1.50000000E+00  1.20000000E+00  1.20000000E+00  1.50000000E+00  1.20000000E+00
  1.20000000E+00  1.50000000E+00  1.20000000E+00  1.20000000E+00  1.50000000E+00
  1.20000000E+00  1.20000000E+00  1.50000000E+00  1.20000000E+00  1.20000000E+00
  1.50000000E+00  1.20000000E+00  1.20000000E+00  1.50000000E+00  1.20000000E+00
  1.20000000E+00  1.50000000E+00  1.20000000E+00  1.20000000E+00  1.50000000E+00
  1.20000000E+00  1.20000000E+00  1.50000000E+00  1.20000000E+00  1.20000000E+00
  1.50000000E+00  1.20000000E+00  1.20000000E+00  1.50000000E+00  1.20000000E+00
  1.20000000E+00  1.50000000E+00  1.20000000E+00  1.20000000E+00  1.50000000E+00
  1.20000000E+00  1.20000000E+00  1.50000000E+00  1.20000000E+00  1.20000000E+00
  1.50000000E+00  1.20000000E+00  1.20000000E+00  1.50000000E+00  1.20000000E+00
  1.20000000E+00  1.50000000E+00  1.20000000E+00  1.20000000E+00  1.50000000E+00
  1.20000000E+00  1.20000000E+00  1.50000000E+00  1.20000000E+00  1.20000000E+00
  1.50000000E+00  1.20000000E+00  1.20000000E+00  1.50000000E+00  1.20000000E+00
  1.20000000E+00  1.50000000E+00  1.20000000E+00  1.20000000E+00  1.50000000E+00
  1.20000000E+00  1.20000000E+00  1.50000000E+00  1.20000000E+00  1.20000000E+00
  1.50000000E+00  1.20000000E+00  1.20000000E+00  1.50000000E+00  1.20000000E+00
  1.20000000E+00  1.50000000E+00  1.20000000E+00  1.20000000E+00  1.50000000E+00
  1.20000000E+00  1.20000000E+00  1.50000000E+00  1.20000000E+00  1.20000000E+00
  1.50000000E+00  1.20000000E+00  1.20000000E+00  1.50000000E+00  1.20000000E+00
  1.20000000E+00  1.50000000E+00  1.20000000E+00  1.20000000E+00  1.50000000E+00
  1.20000000E+00  1.20000000E+00  1.50000000E+00  1.20000000E+00  1.20000000E+00
  1.50000000E+00  1.20000000E+00  1.20000000E+00  1.50000000E+00  1.20000000E+00
  1.20000000E+00  1.50000000E+00  1.20000000E+00  1.20000000E+00  1.50000000E+00
  1.20000000E+00  1.20000000E+00  1.50000000E+00  1.20000000E+00  1.20000000E+00
  1.50000000E+00  1.20000000E+00  1.20000000E+00  1.50000000E+00  1.20000000E+00
  1.20000000E+00  1.50000000E+00  1.20000000E+00  1.20000000E+00  1.50000000E+00
  1.20000000E+00  1.20000000E+00  1.50000000E+00  1.20000000E+00  1.20000000E+00
  1.50000000E+00  1.20000000E+00  1.20000000E+00  1.50000000E+00  1.20000000E+00
  1.20000000E+00  1.50000000E+00  1.20000000E+00  1.20000000E+00  1.50000000E+00
  1.20000000E+00  1.20000000E+00  1.50000000E+00  1.20000000E+00  1.20000000E+00
  1.50000000E+00  1.20000000E+00  1.20000000E+00  1.50000000E+00  1.20000000E+00
  1.20000000E+00  1.50000000E+00  1.20000000E+00  1.20000000E+00  1.50000000E+00
  1.20000000E+00  1.20000000E+00  1.50000000E+00  1.20000000E+00  1.20000000E+00
  1.50000000E+00  1.20000000E+00  1.20000000E+00  1.50000000E+00  1.20000000E+00
  1.20000000E+00  1.50000000E+00  1.20000000E+00  1.20000000E+00  1.50000000E+00
  1.20000000E+00  1.20000000E+00  1.50000000E+00  1.20000000E+00  1.20000000E+00
  1.50000000E+00  1.20000000E+00  1.20000000E+00  1.50000000E+00  1.20000000E+00
  1.20000000E+00  1.50000000E+00  1.20000000E+00  1.20000000E+00  1.50000000E+00
  1.20000000E+00  1.20000000E+00  1.50000000E+00  1.20000000E+00  1.20000000E+00
  1.50000000E+00  1.20000000E+00  1.20000000E+00  1.50000000E+00  1.20000000E+00
  1.20000000E+00  1.50000000E+00  1.20000000E+00  1.20000000E+00  1.50000000E+00
  1.20000000E+00  1.20000000E+00  1.50000000E+00  1.20000000E+00  1.20000000E+00
  1.50000000E+00  1.20000000E+00  1.20000000E+00  1.50000000E+00  1.20000000E+00
  1.20000000E+00  1.50000000E+00  1.20000000E+00  1.20000000E+00  1.50000000E+00
  1.20000000E+00  1.20000000E+00  1.50000000E+00  1.20000000E+00  1.20000000E+00
  1.50000000E+00  1.20000000E+00  1.20000000E+00  1.50000000E+00  1.20000000E+00
  1.20000000E+00  1.50000000E+00  1.20000000E+00  1.20000000E+00  1.50000000E+00
  1.20000000E+00  1.20000000E+00  1.50000000E+00  1.20000000E+00  1.20000000E+00
  1.50000000E+00  1.20000000E+00  1.20000000E+00  1.50000000E+00  1.20000000E+00
  1.20000000E+00  1.50000000E+00  1.20000000E+00  1.20000000E+00  1.50000000E+00
  1.20000000E+00  1.20000000E+00  1.50000000E+00  1.20000000E+00  1.20000000E+00
  1.50000000E+00  1.20000000E+00  1.20000000E+00  1.50000000E+00  1.20000000E+00
  1.20000000E+00  1.50000000E+00  1.20000000E+00  1.20000000E+00  1.50000000E+00
  1.20000000E+00  1.20000000E+00  1.50000000E+00  1.20000000E+00  1.20000000E+00
  1.50000000E+00  1.20000000E+00  1.20000000E+00  1.50000000E+00  1.20000000E+00
  1.20000000E+00  1.50000000E+00  1.20000000E+00  1.20000000E+00  1.50000000E+00
  1.20000000E+00  1.20000000E+00  1.50000000E+00  1.20000000E+00  1.20000000E+00
  1.50000000E+00  1.20000000E+00  1.20000000E+00  1.50000000E+00  1.20000000E+00
  1.20000000E+00  1.50000000E+00  1.20000000E+00  1.20000000E+00  1.50000000E+00
  1.20000000E+00  1.20000000E+00  1.50000000E+00  1.20000000E+00  1.20000000E+00
  1.50000000E+00  1.20000000E+00  1.20000000E+00  1.50000000E+00  1.20000000E+00
  1.20000000E+00  1.50000000E+00  1.20000000E+00  1.20000000E+00  1.50000000E+00
  1.20000000E+00  1.20000000E+00  1.50000000E+00  1.20000000E+00  1.20000000E+00
  1.50000000E+00  1.20000000E+00  1.20000000E+00  1.50000000E+00  1.20000000E+00
  1.20000000E+00  1.50000000E+00  1.20000000E+00  1.20000000E+00  1.50000000E+00
  1.20000000E+00  1.20000000E+00  1.50000000E+00  1.20000000E+00  1.20000000E+00
  1.50000000E+00  1.20000000E+00  1.20000000E+00  1.50000000E+00  1.20000000E+00
  1.20000000E+00  1.50000000E+00  1.20000000E+00  1.20000000E+00  1.50000000E+00
  1.20000000E+00  1.20000000E+00  1.50000000E+00  1.20000000E+00  1.20000000E+00
  1.50000000E+00  1.20000000E+00  1.20000000E+00  1.50000000E+00  1.20000000E+00
  1.20000000E+00  1.50000000E+00  1.20000000E+00  1.20000000E+00  1.50000000E+00
  1.20000000E+00  1.20000000E+00  1.50000000E+00  1.20000000E+00  1.20000000E+00
  1.50000000E+00  1.20000000E+00  1.20000000E+00  1.50000000E+00  1.20000000E+00
  1.20000000E+00  1.50000000E+00  1.20000000E+00  1.20000000E+00  1.50000000E+00
  1.20000000E+00  1.20000000E+00  1.50000000E+00  1.20000000E+00  1.20000000E+00
  1.50000000E+00  1.20000000E+00  1.20000000E+00  1.50000000E+00  1.20000000E+00
  1.20000000E+00  1.50000000E+00  1.20000000E+00  1.20000000E+00  1.50000000E+00
  1.20000000E+00  1.20000000E+00  1.50000000E+00  1.20000000E+00  1.20000000E+00
  1.50000000E+00  1.20000000E+00  1.20000000E+00  1.50000000E+00  1.20000000E+00
  1.20000000E+00  1.50000000E+00  1.20000000E+00  1.20000000E+00  1.50000000E+00
  1.20000000E+00  1.20000000E+00  1.50000000E+00  1.20000000E+00  1.20000000E+00
  1.50000000E+00  1.20000000E+00  1.20000000E+00  1.50000000E+00  1.20000000E+00
  1.20000000E+00  1.50000000E+00  1.20000000E+00  1.20000000E+00  1.50000000E+00
  1.20000000E+00  1.20000000E+00  1.50000000E+00  1.20000000E+00  1.20000000E+00
  1.50000000E+00  1.20000000E+00  1.20000000E+00  1.50000000E+00  1.20000000E+00
  1.20000000E+00  1.50000000E+00  1.20000000E+00  1.20000000E+00  1.50000000E+00
  1.20000000E+00  1.20000000E+00  1.50000000E+00  1.20000000E+00  1.20000000E+00
  1.50000000E+00  1.20000000E+00  1.20000000E+00  1.50000000E+00  1.20000000E+00
  1.20000000E+00  1.50000000E+00  1.20000000E+00  1.20000000E+00  1.50000000E+00
  1.20000000E+00  1.20000000E+00  1.50000000E+00  1.20000000E+00  1.20000000E+00
  1.50000000E+00  1.20000000E+00  1.20000000E+00  1.50000000E+00  1.20000000E+00
  1.20000000E+00  1.50000000E+00  1.20000000E+00  1.20000000E+00  1.50000000E+00
  1.20000000E+00  1.20000000E+00  1.50000000E+00  1.20000000E+00  1.20000000E+00
  1.50000000E+00  1.20000000E+00  1.20000000E+00  1.50000000E+00  1.20000000E+00
  1.20000000E+00  1.50000000E+00  1.20000000E+00  1.20000000E+00  1.50000000E+00
  1.20000000E+00  1.20000000E+00  1.50000000E+00  1.20000000E+00  1.20000000E+00
  1.50000000E+00  1.20000000E+00  1.20000000E+00  1.50000000E+00  1.20000000E+00
  1.20000000E+00  1.50000000E+00  1.20000000E+00  1.20000000E+00  1.50000000E+00
  1.20000000E+00  1.20000000E+00  1.50000000E+00  1.20000000E+00  1.20000000E+00
  1.50000000E+00  1.20000000E+00  1.20000000E+00  1.50000000E+00  1.20000000E+00
  1.20000000E+00  1.50000000E+00  1.20000000E+00  1.20000000E+00  1.50000000E+00
  1.20000000E+00  1.20000000E+00  1.50000000E+00  1.20000000E+00  1.20000000E+00
  1.50000000E+00  1.20000000E+00  1.20000000E+00  1.50000000E+00  1.20000000E+00
  1.20000000E+00  1.50000000E+00  1.20000000E+00  1.20000000E+00  1.50000000E+00
  1.20000000E+00  1.20000000E+00  1.50000000E+00  1.20000000E+00  1.20000000E+00
  1.50000000E+00  1.20000000E+00  1.20000000E+00  1.50000000E+00  1.20000000E+00
  1.20000000E+00  1.50000000E+00  1.20000000E+00  1.20000000E+00  1.50000000E+00
  1.20000000E+00  1.20000000E+00  1.50000000E+00  1.20000000E+00  1.20000000E+00
  1.50000000E+00  1.20000000E+00  1.20000000E+00  1.50000000E+00  1.20000000E+00
  1.20000000E+00  1.50000000E+00  1.20000000E+00  1.20000000E+00  1.50000000E+00
  1.20000000E+00  1.20000000E+00  1.50000000E+00  1.20000000E+00  1.20000000E+00
  1.50000000E+00  1.20000000E+00  1.20000000E+00  1.50000000E+00  1.20000000E+00
  1.20000000E+00  1.50000000E+00  1.20000000E+00  1.20000000E+00  1.50000000E+00
  1.20000000E+00  1.20000000E+00  1.50000000E+00  1.20000000E+00  1.20000000E+00
  1.50000000E+00  1.20000000E+00  1.20000000E+00  1.50000000E+00  1.20000000E+00
  1.20000000E+00  1.50000000E+00  1.20000000E+00  1.20000000E+00  1.50000000E+00
  1.20000000E+00  1.20000000E+00  1.50000000E+00  1.20000000E+00  1.20000000E+00
  1.50000000E+00  1.20000000E+00  1.20000000E+00  1.50000000E+00  1.20000000E+00
  1.20000000E+00  1.50000000E+00  1.20000000E+00  1.20000000E+00  1.50000000E+00
  1.20000000E+00  1.20000000E+00  1.50000000E+00  1.20000000E+00  1.20000000E+00
  1.50000000E+00  1.20000000E+00  1.20000000E+00  1.50000000E+00  1.20000000E+00
  1.20000000E+00  1.50000000E+00  1.20000000E+00  1.20000000E+00  1.50000000E+00
  1.20000000E+00  1.20000000E+00  1.50000000E+00  1.20000000E+00  1.20000000E+00
  1.50000000E+00  1.20000000E+00  1.20000000E+00  1.50000000E+00  1.20000000E+00
  1.20000000E+00  1.50000000E+00  1.20000000E+00  1.20000000E+00  1.50000000E+00
  1.20000000E+00  1.20000000E+00  1.50000000E+00  1.20000000E+00  1.20000000E+00
  1.50000000E+00  1.20000000E+00  1.20000000E+00  1.50000000E+00  1.20000000E+00
  1.20000000E+00  1.50000000E+00  1.20000000E+00  1.20000000E+00  1.50000000E+00
  1.20000000E+00  1.20000000E+00  1.50000000E+00  1.20000000E+00  1.20000000E+00
  1.50000000E+00  1.20000000E+00  1.20000000E+00  1.50000000E+00  1.20000000E+00
  1.20000000E+00  1.50000000E+00  1.20000000E+00  1.20000000E+00  1.50000000E+00
  1.20000000E+00  1.20000000E+00  1.50000000E+00  1.20000000E+00  1.20000000E+00
  1.50000000E+00  1.20000000E+00  1.20000000E+00  1.50000000E+00  1.20000000E+00
  1.20000000E+00  1.50000000E+00  1.20000000E+00  1.20000000E+00  1.50000000E+00
  1.20000000E+00  1.20000000E+00  1.50000000E+00  1.20000000E+00  1.20000000E+00
  1.50000000E+00  1.20000000E+00  1.20000000E+00  1.50000000E+00  1.20000000E+00
  1.20000000E+00  1.50000000E+00  1.20000000E+00  1.20000000E+00  1.50000000E+00
  1.20000000E+00  1.20000000E+00  1.50000000E+00  1.20000000E+00  1.20000000E+00
  1.50000000E+00  1.20000000E+00  1.20000000E+00  1.50000000E+00  1.20000000E+00
  1.20000000E+00  1.50000000E+00  1.20000000E+00  1.20000000E+00  1.50000000E+00
  1.20000000E+00  1.20000000E+00  1.50000000E+00  1.20000000E+00  1.20000000E+00
  1.50000000E+00  1.20000000E+00  1.20000000E+00  1.50000000E+00  1.20000000E+00
  1.20000000E+00  1.50000000E+00  1.20000000E+00  1.20000000E+00  1.50000000E+00
  1.20000000E+00  1.20000000E+00  1.50000000E+00  1.20000000E+00  1.20000000E+00
  1.50000000E+00  1.20000000E+00  1.20000000E+00  1.50000000E+00  1.20000000E+00
  1.20000000E+00  1.50000000E+00  1.20000000E+00  1.20000000E+00  1.50000000E+00
  1.20000000E+00  1.20000000E+00  1.50000000E+00  1.20000000E+00  1.20000000E+00
  1.50000000E+00  1.20000000E+00  1.20000000E+00  1.50000000E+00  1.20000000E+00
  1.20000000E+00  1.50000000E+00  1.20000000E+00  1.20000000E+00  1.50000000E+00
  1.20000000E+00  1.20000000E+00  1.50000000E+00  1.20000000E+00  1.20000000E+00
  1.50000000E+00  1.20000000E+00  1.20000000E+00  1.50000000E+00  1.20000000E+00
  1.20000000E+00  1.50000000E+00  1.20000000E+00  1.20000000E+00  1.50000000E+00
  1.20000000E+00  1.20000000E+00  1.50000000E+00  1.20000000E+00  1.20000000E+00
  1.50000000E+00  1.20000000E+00  1.20000000E+00  1.50000000E+00  1.20000000E+00
  1.20000000E+00  1.50000000E+00  1.20000000E+00  1.20000000E+00  1.50000000E+00
  1.20000000E+00  1.20000000E+00  1.50000000E+00  1.20000000E+00  1.20000000E+00
  1.50000000E+00  1.20000000E+00  1.20000000E+00  1.50000000E+00  1.20000000E+00
  1.20000000E+00  1.50000000E+00  1.20000000E+00  1.20000000E+00  1.50000000E+00
  1.20000000E+00  1.20000000E+00  1.50000000E+00  1.20000000E+00  1.20000000E+00
  1.50000000E+00  1.20000000E+00  1.20000000E+00  1.50000000E+00  1.20000000E+00
  1.20000000E+00  1.50000000E+00  1.20000000E+00  1.20000000E+00  1.50000000E+00
  1.20000000E+00  1.20000000E+00  1.50000000E+00  1.20000000E+00  1.20000000E+00
  1.50000000E+00  1.20000000E+00  1.20000000E+00  1.50000000E+00  1.20000000E+00
  1.20000000E+00  1.50000000E+00  1.20000000E+00  1.20000000E+00  1.50000000E+00
  1.20000000E+00  1.20000000E+00  1.50000000E+00  1.20000000E+00  1.20000000E+00
  1.50000000E+00  1.20000000E+00  1.20000000E+00  1.50000000E+00  1.20000000E+00
  1.20000000E+00  1.50000000E+00  1.20000000E+00  1.20000000E+00  1.50000000E+00
  1.20000000E+00  1.20000000E+00  1.50000000E+00  1.20000000E+00  1.20000000E+00
  1.50000000E+00  1.20000000E+00  1.20000000E+00  1.50000000E+00  1.20000000E+00
  1.20000000E+00  1.50000000E+00  1.20000000E+00  1.20000000E+00  1.50000000E+00
  1.20000000E+00  1.20000000E+00  1.50000000E+00  1.20000000E+00  1.20000000E+00
  1.50000000E+00  1.20000000E+00  1.20000000E+00  1.50000000E+00  1.20000000E+00
  1.20000000E+00  1.50000000E+00  1.20000000E+00  1.20000000E+00  1.50000000E+00
  1.20000000E+00  1.20000000E+00  1.50000000E+00  1.20000000E+00  1.20000000E+00
  1.50000000E+00  1.20000000E+00  1.20000000E+00  1.50000000E+00  1.20000000E+00
  1.20000000E+00  1.50000000E+00  1.20000000E+00  1.20000000E+00  1.50000000E+00
  1.20000000E+00  1.20000000E+00  1.50000000E+00  1.20000000E+00  1.20000000E+00
  1.50000000E+00  1.20000000E+00  1.20000000E+00  1.50000000E+00  1.20000000E+00
  1.20000000E+00  1.50000000E+00  1.20000000E+00  1.20000000E+00  1.50000000E+00
  1.20000000E+00  1.20000000E+00  1.50000000E+00  1.20000000E+00  1.20000000E+00
  1.50000000E+00  1.20000000E+00  1.20000000E+00  1.50000000E+00  1.20000000E+00
  1.20000000E+00  1.50000000E+00  1.20000000E+00  1.20000000E+00  1.50000000E+00
  1.20000000E+00  1.20000000E+00  1.50000000E+00  1.20000000E+00  1.20000000E+00
  1.50000000E+00  1.20000000E+00  1.20000000E+00  1.50000000E+00  1.20000000E+00
  1.20000000E+00  1.50000000E+00  1.20000000E+00  1.20000000E+00  1.50000000E+00
  1.20000000E+00  1.20000000E+00  1.50000000E+00  1.20000000E+00  1.20000000E+00
  1.50000000E+00  1.20000000E+00  1.20000000E+00  1.50000000E+00  1.20000000E+00
  1.20000000E+00  1.50000000E+00  1.20000000E+00  1.20000000E+00  1.50000000E+00
  1.20000000E+00  1.20000000E+00  1.50000000E+00  1.20000000E+00  1.20000000E+00
  1.50000000E+00  1.20000000E+00  1.20000000E+00  1.50000000E+00  1.20000000E+00
  1.20000000E+00  1.50000000E+00  1.20000000E+00  1.20000000E+00  1.50000000E+00
  1.20000000E+00  1.20000000E+00  1.50000000E+00  1.20000000E+00  1.20000000E+00
  1.50000000E+00  1.20000000E+00  1.20000000E+00  1.50000000E+00  1.20000000E+00
  1.20000000E+00  1.50000000E+00  1.20000000E+00  1.20000000E+00  1.50000000E+00
  1.20000000E+00  1.20000000E+00  1.50000000E+00  1.20000000E+00  1.20000000E+00
  1.50000000E+00  1.20000000E+00  1.20000000E+00  1.50000000E+00  1.20000000E+00
  1.20000000E+00  1.50000000E+00  1.20000000E+00  1.20000000E+00  1.50000000E+00
  1.20000000E+00  1.20000000E+00  1.50000000E+00  1.20000000E+00  1.20000000E+00
  1.50000000E+00  1.20000000E+00  1.20000000E+00  1.50000000E+00  1.20000000E+00
  1.20000000E+00  1.50000000E+00  1.20000000E+00  1.20000000E+00  1.50000000E+00
  1.20000000E+00  1.20000000E+00  1.50000000E+00  1.20000000E+00  1.20000000E+00
  1.50000000E+00  1.20000000E+00  1.20000000E+00  1.50000000E+00  1.20000000E+00
  1.20000000E+00  1.50000000E+00  1.20000000E+00  1.20000000E+00  1.50000000E+00
  1.20000000E+00  1.20000000E+00  1.50000000E+00  1.20000000E+00  1.20000000E+00
  1.50000000E+00  1.20000000E+00  1.20000000E+00  1.50000000E+00  1.20000000E+00
  1.20000000E+00  1.50000000E+00  1.20000000E+00  1.20000000E+00  1.50000000E+00
  1.20000000E+00  1.20000000E+00  1.50000000E+00  1.20000000E+00  1.20000000E+00
  1.50000000E+00  1.20000000E+00  1.20000000E+00  1.50000000E+00  1.20000000E+00
  1.20000000E+00  1.50000000E+00  1.20000000E+00  1.20000000E+00  1.50000000E+00
  1.20000000E+00  1.20000000E+00  1.50000000E+00  1.20000000E+00  1.20000000E+00
  1.50000000E+00  1.20000000E+00  1.20000000E+00  1.50000000E+00  1.20000000E+00
  1.20000000E+00  1.50000000E+00  1.20000000E+00  1.20000000E+00  1.50000000E+00
  1.20000000E+00  1.20000000E+00  1.50000000E+00  1.20000000E+00  1.20000000E+00
  1.50000000E+00  1.20000000E+00  1.20000000E+00  1.50000000E+00  1.20000000E+00
  1.20000000E+00  1.50000000E+00  1.20000000E+00  1.20000000E+00  1.50000000E+00
  1.20000000E+00  1.20000000E+00  1.50000000E+00  1.20000000E+00  1.20000000E+00
  1.50000000E+00  1.20000000E+00  1.20000000E+00  1.50000000E+00  1.20000000E+00
  1.20000000E+00  1.50000000E+00  1.20000000E+00  1.20000000E+00  1.50000000E+00
  1.20000000E+00  1.20000000E+00  1.50000000E+00  1.20000000E+00  1.20000000E+00
  1.50000000E+00  1.20000000E+00  1.20000000E+00  1.50000000E+00  1.20000000E+00
  1.20000000E+00  1.50000000E+00  1.20000000E+00  1.20000000E+00  1.50000000E+00
  1.20000000E+00  1.20000000E+00  1.50000000E+00  1.20000000E+00  1.20000000E+00
  1.50000000E+00  1.20000000E+00  1.20000000E+00  1.50000000E+00  1.20000000E+00
  1.20000000E+00  1.50000000E+00  1.20000000E+00  1.20000000E+00  1.50000000E+00
  1.20000000E+00  1.20000000E+00  1.50000000E+00  1.20000000E+00  1.20000000E+00
  1.50000000E+00  1.20000000E+00  1.20000000E+00  1.50000000E+00  1.20000000E+00
  1.20000000E+00  1.50000000E+00  1.20000000E+00  1.20000000E+00  1.50000000E+00
  1.20000000E+00  1.20000000E+00  1.50000000E+00  1.20000000E+00  1.20000000E+00
  1.50000000E+00  1.20000000E+00  1.20000000E+00  1.50000000E+00  1.20000000E+00
  1.20000000E+00  1.50000000E+00  1.20000000E+00  1.20000000E+00  1.50000000E+00
  1.20000000E+00  1.20000000E+00  1.50000000E+00  1.20000000E+00  1.20000000E+00
  1.50000000E+00  1.20000000E+00  1.20000000E+00  1.50000000E+00  1.20000000E+00
  1.20000000E+00  1.50000000E+00  1.20000000E+00  1.20000000E+00  1.50000000E+00
  1.20000000E+00  1.20000000E+00  1.50000000E+00  1.20000000E+00  1.20000000E+00
  1.50000000E+00  1.20000000E+00  1.20000000E+00  1.50000000E+00  1.20000000E+00
  1.20000000E+00  1.50000000E+00  1.20000000E+00  1.20000000E+00  1.50000000E+00
  1.20000000E+00  1.20000000E+00  1.50000000E+00  1.20000000E+00  1.20000000E+00
  1.50000000E+00  1.20000000E+00  1.20000000E+00  1.50000000E+00  1.20000000E+00
  1.20000000E+00  1.50000000E+00  1.20000000E+00  1.20000000E+00  1.50000000E+00
  1.20000000E+00  1.20000000E+00  1.50000000E+00  1.20000000E+00  1.20000000E+00
  1.50000000E+00  1.20000000E+00  1.20000000E+00  1.50000000E+00  1.20000000E+00
  1.20000000E+00  1.50000000E+00  1.20000000E+00  1.20000000E+00  1.50000000E+00
  1.20000000E+00  1.20000000E+00  1.50000000E+00  1.20000000E+00  1.20000000E+00
  1.50000000E+00  1.20000000E+00  1.20000000E+00  1.50000000E+00  1.20000000E+00
  1.20000000E+00  1.50000000E+00  1.20000000E+00  1.20000000E+00  1.50000000E+00
  1.20000000E+00  1.20000000E+00  1.50000000E+00  1.20000000E+00  1.20000000E+00
  1.50000000E+00  1.20000000E+00  1.20000000E+00  1.50000000E+00  1.20000000E+00
  1.20000000E+00  1.50000000E+00  1.20000000E+00  1.20000000E+00  1.50000000E+00
  1.20000000E+00  1.20000000E+00  1.50000000E+00  1.20000000E+00  1.20000000E+00
  1.50000000E+00  1.20000000E+00  1.20000000E+00  1.50000000E+00  1.20000000E+00
  1.20000000E+00  1.50000000E+00  1.20000000E+00  1.20000000E+00  1.50000000E+00
  1.20000000E+00  1.20000000E+00  1.50000000E+00  1.20000000E+00  1.20000000E+00
  1.50000000E+00  1.20000000E+00  1.20000000E+00  1.50000000E+00  1.20000000E+00
  1.20000000E+00  1.50000000E+00  1.20000000E+00  1.20000000E+00  1.50000000E+00
  1.20000000E+00  1.20000000E+00  1.50000000E+00  1.20000000E+00  1.20000000E+00
  1.50000000E+00  1.20000000E+00  1.20000000E+00  1.50000000E+00  1.20000000E+00
  1.20000000E+00  1.50000000E+00  1.20000000E+00  1.20000000E+00  1.50000000E+00
  1.20000000E+00  1.20000000E+00  1.50000000E+00  1.20000000E+00  1.20000000E+00
  1.50000000E+00  1.20000000E+00  1.20000000E+00  1.50000000E+00  1.20000000E+00
  1.20000000E+00  1.50000000E+00  1.20000000E+00  1.20000000E+00  1.50000000E+00
  1.20000000E+00  1.20000000E+00  1.50000000E+00  1.20000000E+00  1.20000000E+00
  1.50000000E+00  1.20000000E+00  1.20000000E+00  1.50000000E+00  1.20000000E+00
  1.20000000E+00  1.50000000E+00  1.20000000E+00  1.20000000E+00  1.50000000E+00
  1.20000000E+00  1.20000000E+00  1.50000000E+00  1.20000000E+00  1.20000000E+00
  1.50000000E+00  1.20000000E+00  1.20000000E+00  1.50000000E+00  1.20000000E+00
  1.20000000E+00  1.50000000E+00  1.20000000E+00  1.20000000E+00  1.50000000E+00
  1.20000000E+00  1.20000000E+00  1.50000000E+00  1.20000000E+00  1.20000000E+00
  1.50000000E+00  1.20000000E+00  1.20000000E+00  1.50000000E+00  1.20000000E+00
  1.20000000E+00  1.50000000E+00  1.20000000E+00  1.20000000E+00  1.50000000E+00
  1.20000000E+00  1.20000000E+00  1.50000000E+00  1.20000000E+00  1.20000000E+00
  1.50000000E+00  1.20000000E+00  1.20000000E+00  1.50000000E+00  1.20000000E+00
  1.20000000E+00  1.50000000E+00  1.20000000E+00  1.20000000E+00  1.50000000E+00
  1.20000000E+00  1.20000000E+00  1.50000000E+00  1.20000000E+00  1.20000000E+00
  1.50000000E+00  1.20000000E+00  1.20000000E+00  1.50000000E+00  1.20000000E+00
  1.20000000E+00  1.50000000E+00  1.20000000E+00  1.20000000E+00  1.50000000E+00
  1.20000000E+00  1.20000000E+00  1.50000000E+00  1.20000000E+00  1.20000000E+00
  1.50000000E+00  1.20000000E+00  1.20000000E+00  1.50000000E+00  1.20000000E+00
  1.20000000E+00  1.50000000E+00  1.20000000E+00  1.20000000E+00  1.50000000E+00
  1.20000000E+00  1.20000000E+00  1.50000000E+00  1.20000000E+00  1.20000000E+00
  1.50000000E+00  1.20000000E+00  1.20000000E+00  1.50000000E+00  1.20000000E+00
  1.20000000E+00  1.50000000E+00  1.20000000E+00  1.20000000E+00  1.50000000E+00
  1.20000000E+00  1.20000000E+00  1.50000000E+00  1.20000000E+00  1.20000000E+00
  1.50000000E+00  1.20000000E+00  1.20000000E+00  1.50000000E+00  1.20000000E+00
  1.20000000E+00  1.50000000E+00  1.20000000E+00  1.20000000E+00  1.50000000E+00
  1.20000000E+00  1.20000000E+00  1.50000000E+00  1.20000000E+00  1.20000000E+00
  1.50000000E+00  1.20000000E+00  1.20000000E+00  1.50000000E+00  1.20000000E+00
  1.20000000E+00  1.50000000E+00  1.20000000E+00  1.20000000E+00  1.50000000E+00
  1.20000000E+00  1.20000000E+00  1.50000000E+00  1.20000000E+00  1.20000000E+00
  1.50000000E+00  1.20000000E+00  1.20000000E+00  1.50000000E+00  1.20000000E+00
  1.20000000E+00  1.50000000E+00  1.20000000E+00  1.20000000E+00  1.50000000E+00
  1.20000000E+00  1.20000000E+00  1.50000000E+00  1.20000000E+00  1.20000000E+00
  1.50000000E+00  1.20000000E+00  1.20000000E+00  1.50000000E+00  1.20000000E+00
  1.20000000E+00  1.50000000E+00  1.20000000E+00  1.20000000E+00  1.50000000E+00
  1.20000000E+00  1.20000000E+00  1.50000000E+00  1.20000000E+00  1.20000000E+00
  1.50000000E+00  1.20000000E+00  1.20000000E+00  1.50000000E+00  1.20000000E+00
  1.20000000E+00  1.50000000E+00  1.20000000E+00  1.20000000E+00  1.50000000E+00
  1.20000000E+00  1.20000000E+00  1.50000000E+00  1.20000000E+00  1.20000000E+00
  1.50000000E+00  1.20000000E+00  1.20000000E+00  1.50000000E+00  1.20000000E+00
  1.20000000E+00  1.50000000E+00  1.20000000E+00  1.20000000E+00  1.50000000E+00
  1.20000000E+00  1.20000000E+00  1.50000000E+00  1.20000000E+00  1.20000000E+00
  1.50000000E+00  1.20000000E+00  1.20000000E+00  1.50000000E+00  1.20000000E+00
  1.20000000E+00  1.50000000E+00  1.20000000E+00  1.20000000E+00  1.50000000E+00
  1.20000000E+00  1.20000000E+00  1.50000000E+00  1.20000000E+00  1.20000000E+00
  1.50000000E+00  1.20000000E+00  1.20000000E+00  1.50000000E+00  1.20000000E+00
  1.20000000E+00  1.50000000E+00  1.20000000E+00  1.20000000E+00  1.50000000E+00
  1.20000000E+00  1.20000000E+00  1.50000000E+00  1.20000000E+00  1.20000000E+00
  1.50000000E+00  1.20000000E+00  1.20000000E+00  1.50000000E+00  1.20000000E+00
  1.20000000E+00  1.50000000E+00  1.20000000E+00  1.20000000E+00  1.50000000E+00
  1.20000000E+00  1.20000000E+00  1.50000000E+00  1.20000000E+00  1.20000000E+00
  1.50000000E+00  1.20000000E+00  1.20000000E+00  1.50000000E+00  1.20000000E+00
  1.20000000E+00  1.50000000E+00  1.20000000E+00  1.20000000E+00  1.50000000E+00
  1.20000000E+00  1.20000000E+00  1.50000000E+00  1.20000000E+00  1.20000000E+00
  1.50000000E+00  1.20000000E+00  1.20000000E+00  1.50000000E+00  1.20000000E+00
  1.20000000E+00  1.50000000E+00  1.20000000E+00  1.20000000E+00  1.50000000E+00
  1.20000000E+00  1.20000000E+00  1.50000000E+00  1.20000000E+00  1.20000000E+00
  1.50000000E+00  1.20000000E+00  1.20000000E+00  1.50000000E+00  1.20000000E+00
  1.20000000E+00  1.50000000E+00  1.20000000E+00  1.20000000E+00  1.50000000E+00
  1.20000000E+00  1.20000000E+00  1.50000000E+00  1.20000000E+00  1.20000000E+00
  1.50000000E+00  1.20000000E+00  1.20000000E+00  1.50000000E+00  1.20000000E+00
  1.20000000E+00  1.50000000E+00  1.20000000E+00  1.20000000E+00  1.50000000E+00
  1.20000000E+00  1.20000000E+00  1.50000000E+00  1.20000000E+00  1.20000000E+00
  1.50000000E+00  1.20000000E+00  1.20000000E+00  1.50000000E+00  1.20000000E+00
  1.20000000E+00  1.50000000E+00  1.20000000E+00  1.20000000E+00  1.50000000E+00
  1.20000000E+00  1.20000000E+00  1.50000000E+00  1.20000000E+00  1.20000000E+00
  1.50000000E+00  1.20000000E+00  1.20000000E+00  1.50000000E+00  1.20000000E+00
  1.20000000E+00  1.50000000E+00  1.20000000E+00  1.20000000E+00  1.50000000E+00
  1.20000000E+00  1.20000000E+00  1.50000000E+00  1.20000000E+00  1.20000000E+00
  1.50000000E+00  1.20000000E+00  1.20000000E+00  1.50000000E+00  1.20000000E+00
  1.20000000E+00  1.50000000E+00  1.20000000E+00  1.20000000E+00  1.50000000E+00
  1.20000000E+00  1.20000000E+00  1.50000000E+00  1.20000000E+00  1.20000000E+00
  1.50000000E+00  1.20000000E+00  1.20000000E+00  1.50000000E+00  1.20000000E+00
  1.20000000E+00  1.50000000E+00  1.20000000E+00  1.20000000E+00  1.50000000E+00
  1.20000000E+00  1.20000000E+00  1.50000000E+00  1.20000000E+00  1.20000000E+00
  1.50000000E+00  1.20000000E+00  1.20000000E+00  1.50000000E+00  1.20000000E+00
  1.20000000E+00  1.50000000E+00  1.20000000E+00  1.20000000E+00  1.50000000E+00
  1.20000000E+00  1.20000000E+00  1.50000000E+00  1.20000000E+00  1.20000000E+00
  1.50000000E+00  1.20000000E+00  1.20000000E+00  1.50000000E+00  1.20000000E+00
  1.20000000E+00  1.50000000E+00  1.20000000E+00  1.20000000E+00  1.50000000E+00
  1.20000000E+00  1.20000000E+00  1.50000000E+00  1.20000000E+00  1.20000000E+00
  1.50000000E+00  1.20000000E+00  1.20000000E+00  1.50000000E+00  1.20000000E+00
  1.20000000E+00  1.50000000E+00  1.20000000E+00  1.20000000E+00  1.50000000E+00
  1.20000000E+00  1.20000000E+00  1.50000000E+00  1.20000000E+00  1.20000000E+00
  1.50000000E+00  1.20000000E+00  1.20000000E+00  1.50000000E+00  1.20000000E+00
  1.20000000E+00  1.50000000E+00  1.20000000E+00  1.20000000E+00  1.50000000E+00
  1.20000000E+00  1.20000000E+00  1.50000000E+00  1.20000000E+00  1.20000000E+00
  1.50000000E+00  1.20000000E+00  1.20000000E+00  1.50000000E+00  1.20000000E+00
  1.20000000E+00  1.50000000E+00  1.20000000E+00  1.20000000E+00  1.50000000E+00
  1.20000000E+00  1.20000000E+00  1.50000000E+00  1.20000000E+00  1.20000000E+00
  1.50000000E+00  1.20000000E+00  1.20000000E+00  1.50000000E+00  1.20000000E+00
  1.20000000E+00  1.50000000E+00  1.20000000E+00  1.20000000E+00  1.50000000E+00
  1.20000000E+00  1.20000000E+00  1.50000000E+00  1.20000000E+00  1.20000000E+00
  1.50000000E+00  1.20000000E+00  1.20000000E+00  1.50000000E+00  1.20000000E+00
  1.20000000E+00  1.50000000E+00  1.20000000E+00  1.20000000E+00  1.50000000E+00
  1.20000000E+00  1.20000000E+00  1.50000000E+00  1.20000000E+00  1.20000000E+00
  1.50000000E+00  1.20000000E+00  1.20000000E+00  1.50000000E+00  1.20000000E+00
  1.20000000E+00  1.50000000E+00  1.20000000E+00  1.20000000E+00  1.50000000E+00
  1.20000000E+00  1.20000000E+00  1.50000000E+00  1.20000000E+00  1.20000000E+00
  1.50000000E+00  1.20000000E+00  1.20000000E+00  1.50000000E+00  1.20000000E+00
  1.20000000E+00  1.50000000E+00  1.20000000E+00  1.20000000E+00  1.50000000E+00
  1.20000000E+00  1.20000000E+00  1.50000000E+00  1.20000000E+00  1.20000000E+00
  1.50000000E+00  1.20000000E+00  1.20000000E+00  1.50000000E+00  1.20000000E+00
  1.20000000E+00  1.50000000E+00  1.20000000E+00  1.20000000E+00  1.50000000E+00
  1.20000000E+00  1.20000000E+00  1.50000000E+00  1.20000000E+00  1.20000000E+00
  1.50000000E+00  1.20000000E+00  1.20000000E+00  1.50000000E+00  1.20000000E+00
  1.20000000E+00  1.50000000E+00  1.20000000E+00  1.20000000E+00  1.50000000E+00
  1.20000000E+00  1.20000000E+00  1.50000000E+00  1.20000000E+00  1.20000000E+00
  1.50000000E+00  1.20000000E+00  1.20000000E+00  1.50000000E+00  1.20000000E+00
  1.20000000E+00  1.50000000E+00  1.20000000E+00  1.20000000E+00  1.50000000E+00
  1.20000000E+00  1.20000000E+00  1.50000000E+00  1.20000000E+00  1.20000000E+00
  1.50000000E+00  1.20000000E+00  1.20000000E+00  1.50000000E+00  1.20000000E+00
  1.20000000E+00  1.50000000E+00  1.20000000E+00  1.20000000E+00  1.50000000E+00
  1.20000000E+00  1.20000000E+00  1.50000000E+00  1.20000000E+00  1.20000000E+00
  1.50000000E+00  1.20000000E+00  1.20000000E+00  1.50000000E+00  1.20000000E+00
  1.20000000E+00  1.50000000E+00  1.20000000E+00  1.20000000E+00  1.50000000E+00
  1.20000000E+00  1.20000000E+00  1.50000000E+00  1.20000000E+00  1.20000000E+00
  1.50000000E+00  1.20000000E+00  1.20000000E+00  1.50000000E+00  1.20000000E+00
  1.20000000E+00  1.50000000E+00  1.20000000E+00  1.20000000E+00  1.50000000E+00
  1.20000000E+00  1.20000000E+00  1.50000000E+00  1.20000000E+00  1.20000000E+00
  1.50000000E+00  1.20000000E+00  1.20000000E+00  1.50000000E+00  1.20000000E+00
  1.20000000E+00  1.50000000E+00  1.20000000E+00  1.20000000E+00  1.50000000E+00
  1.20000000E+00  1.20000000E+00  1.50000000E+00  1.20000000E+00  1.20000000E+00
  1.50000000E+00  1.20000000E+00  1.20000000E+00  1.50000000E+00  1.20000000E+00
  1.20000000E+00  1.50000000E+00  1.20000000E+00  1.20000000E+00  1.50000000E+00
  1.20000000E+00  1.20000000E+00  1.50000000E+00  1.20000000E+00  1.20000000E+00
  1.50000000E+00  1.20000000E+00  1.20000000E+00  1.50000000E+00  1.20000000E+00
  1.20000000E+00  1.50000000E+00  1.20000000E+00  1.20000000E+00  1.50000000E+00
  1.20000000E+00  1.20000000E+00  1.50000000E+00  1.20000000E+00  1.20000000E+00
  1.50000000E+00  1.20000000E+00  1.20000000E+00  1.50000000E+00  1.20000000E+00
  1.20000000E+00  1.50000000E+00  1.20000000E+00  1.20000000E+00  1.50000000E+00
  1.20000000E+00  1.20000000E+00  1.50000000E+00  1.20000000E+00  1.20000000E+00
  1.50000000E+00  1.20000000E+00  1.20000000E+00  1.50000000E+00  1.20000000E+00
  1.20000000E+00  1.50000000E+00  1.20000000E+00  1.20000000E+00  1.50000000E+00
  1.20000000E+00  1.20000000E+00  1.50000000E+00  1.20000000E+00  1.20000000E+00
  1.50000000E+00  1.20000000E+00  1.20000000E+00  1.50000000E+00  1.20000000E+00
  1.20000000E+00  1.50000000E+00  1.20000000E+00  1.20000000E+00  1.50000000E+00
  1.20000000E+00  1.20000000E+00  1.50000000E+00  1.20000000E+00  1.20000000E+00
  1.50000000E+00  1.20000000E+00  1.20000000E+00  1.50000000E+00  1.20000000E+00
  1.20000000E+00  1.50000000E+00  1.20000000E+00  1.20000000E+00  1.50000000E+00
  1.20000000E+00  1.20000000E+00  1.50000000E+00  1.20000000E+00  1.20000000E+00
  1.50000000E+00  1.20000000E+00  1.20000000E+00  1.50000000E+00  1.20000000E+00
  1.20000000E+00  1.50000000E+00  1.20000000E+00  1.20000000E+00  1.50000000E+00
  1.20000000E+00  1.20000000E+00  1.50000000E+00  1.20000000E+00  1.20000000E+00
  1.50000000E+00  1.20000000E+00  1.20000000E+00  1.50000000E+00  1.20000000E+00
  1.20000000E+00  1.50000000E+00  1.20000000E+00  1.20000000E+00  1.50000000E+00
  1.20000000E+00  1.20000000E+00  1.50000000E+00  1.20000000E+00  1.20000000E+00
  1.50000000E+00  1.20000000E+00  1.20000000E+00  1.50000000E+00  1.20000000E+00
  1.20000000E+00  1.50000000E+00  1.20000000E+00  1.20000000E+00  1.50000000E+00
  1.20000000E+00  1.20000000E+00  1.50000000E+00  1.20000000E+00  1.20000000E+00
  1.50000000E+00  1.20000000E+00  1.20000000E+00  1.50000000E+00  1.20000000E+00
  1.20000000E+00  1.50000000E+00  1.20000000E+00  1.20000000E+00  1.50000000E+00
  1.20000000E+00  1.20000000E+00  1.50000000E+00  1.20000000E+00  1.20000000E+00
  1.50000000E+00  1.20000000E+00  1.20000000E+00  1.50000000E+00  1.20000000E+00
  1.20000000E+00  1.50000000E+00  1.20000000E+00  1.20000000E+00  1.50000000E+00
  1.20000000E+00  1.20000000E+00  1.50000000E+00  1.20000000E+00  1.20000000E+00
  1.50000000E+00  1.20000000E+00  1.20000000E+00  1.50000000E+00  1.20000000E+00
  1.20000000E+00  1.50000000E+00  1.20000000E+00  1.20000000E+00  1.50000000E+00
  1.20000000E+00  1.20000000E+00  1.50000000E+00  1.20000000E+00  1.20000000E+00
  1.50000000E+00  1.20000000E+00  1.20000000E+00  1.50000000E+00  1.20000000E+00
  1.20000000E+00  1.50000000E+00  1.20000000E+00  1.20000000E+00  1.50000000E+00
  1.20000000E+00  1.20000000E+00  1.50000000E+00  1.20000000E+00  1.20000000E+00
  1.50000000E+00  1.20000000E+00  1.20000000E+00  1.50000000E+00  1.20000000E+00
  1.20000000E+00  1.50000000E+00  1.20000000E+00  1.20000000E+00  1.50000000E+00
  1.20000000E+00  1.20000000E+00  1.50000000E+00  1.20000000E+00  1.20000000E+00
  1.50000000E+00  1.20000000E+00  1.20000000E+00  1.50000000E+00  1.20000000E+00
  1.20000000E+00  1.50000000E+00  1.20000000E+00  1.20000000E+00  1.50000000E+00
  1.20000000E+00  1.20000000E+00  1.50000000E+00  1.20000000E+00  1.20000000E+00
  1.50000000E+00  1.20000000E+00  1.20000000E+00  1.50000000E+00  1.20000000E+00
  1.20000000E+00  1.50000000E+00  1.20000000E+00  1.20000000E+00  1.50000000E+00
  1.20000000E+00  1.20000000E+00  1.50000000E+00  1.20000000E+00  1.20000000E+00
  1.50000000E+00  1.20000000E+00  1.20000000E+00  1.50000000E+00  1.20000000E+00
  1.20000000E+00  1.50000000E+00  1.20000000E+00  1.20000000E+00  1.50000000E+00
  1.20000000E+00  1.20000000E+00  1.50000000E+00  1.20000000E+00  1.20000000E+00
  1.50000000E+00  1.20000000E+00  1.20000000E+00  1.50000000E+00  1.20000000E+00
  1.20000000E+00  1.50000000E+00  1.20000000E+00  1.20000000E+00  1.50000000E+00
  1.20000000E+00  1.20000000E+00  1.50000000E+00  1.20000000E+00  1.20000000E+00
  1.50000000E+00  1.20000000E+00  1.20000000E+00  1.50000000E+00  1.20000000E+00
  1.20000000E+00  1.50000000E+00  1.20000000E+00  1.20000000E+00  1.50000000E+00
  1.20000000E+00  1.20000000E+00  1.50000000E+00  1.20000000E+00  1.20000000E+00
  1.50000000E+00  1.20000000E+00  1.20000000E+00  1.50000000E+00  1.20000000E+00
  1.20000000E+00  1.50000000E+00  1.20000000E+00  1.20000000E+00  1.50000000E+00
  1.20000000E+00  1.20000000E+00  1.50000000E+00  1.20000000E+00  1.20000000E+00
  1.50000000E+00  1.20000000E+00  1.20000000E+00  1.50000000E+00  1.20000000E+00
  1.20000000E+00  1.50000000E+00  1.20000000E+00  1.20000000E+00  1.50000000E+00
  1.20000000E+00  1.20000000E+00  1.50000000E+00  1.20000000E+00  1.20000000E+00
  1.50000000E+00  1.20000000E+00  1.20000000E+00  1.50000000E+00  1.20000000E+00
  1.20000000E+00  1.50000000E+00  1.20000000E+00  1.20000000E+00  1.50000000E+00
  1.20000000E+00  1.20000000E+00  1.50000000E+00  1.20000000E+00  1.20000000E+00
  1.50000000E+00  1.20000000E+00  1.20000000E+00  1.50000000E+00  1.20000000E+00
  1.20000000E+00  1.50000000E+00  1.20000000E+00  1.20000000E+00  1.50000000E+00
  1.20000000E+00  1.20000000E+00  1.50000000E+00  1.20000000E+00  1.20000000E+00
  1.50000000E+00  1.20000000E+00  1.20000000E+00  1.50000000E+00  1.20000000E+00
  1.20000000E+00  1.50000000E+00  1.20000000E+00  1.20000000E+00  1.50000000E+00
  1.20000000E+00  1.20000000E+00  1.50000000E+00  1.20000000E+00  1.20000000E+00
  1.50000000E+00  1.20000000E+00  1.20000000E+00  1.50000000E+00  1.20000000E+00
  1.20000000E+00  1.50000000E+00  1.20000000E+00  1.20000000E+00  1.50000000E+00
  1.20000000E+00  1.20000000E+00  1.50000000E+00  1.20000000E+00  1.20000000E+00
  1.50000000E+00  1.20000000E+00  1.20000000E+00  1.50000000E+00  1.20000000E+00
  1.20000000E+00  1.50000000E+00  1.20000000E+00  1.20000000E+00  1.50000000E+00
  1.20000000E+00  1.20000000E+00  1.50000000E+00  1.20000000E+00  1.20000000E+00
  1.50000000E+00  1.20000000E+00  1.20000000E+00  1.50000000E+00  1.20000000E+00
  1.20000000E+00  1.50000000E+00  1.20000000E+00  1.20000000E+00  1.50000000E+00
  1.20000000E+00  1.20000000E+00  1.50000000E+00  1.20000000E+00  1.20000000E+00
  1.50000000E+00  1.20000000E+00  1.20000000E+00  1.50000000E+00  1.20000000E+00
  1.20000000E+00  1.50000000E+00  1.20000000E+00  1.20000000E+00  1.50000000E+00
  1.20000000E+00  1.20000000E+00  1.50000000E+00  1.20000000E+00  1.20000000E+00
  1.50000000E+00  1.20000000E+00  1.20000000E+00  1.50000000E+00  1.20000000E+00
  1.20000000E+00  1.50000000E+00  1.20000000E+00  1.20000000E+00  1.50000000E+00
  1.20000000E+00  1.20000000E+00  1.50000000E+00  1.20000000E+00  1.20000000E+00
  1.50000000E+00  1.20000000E+00  1.20000000E+00  1.50000000E+00  1.20000000E+00
  1.20000000E+00  1.50000000E+00  1.20000000E+00  1.20000000E+00  1.50000000E+00
  1.20000000E+00  1.20000000E+00  1.50000000E+00  1.20000000E+00  1.20000000E+00
  1.50000000E+00  1.20000000E+00  1.20000000E+00  1.50000000E+00  1.20000000E+00
  1.20000000E+00  1.50000000E+00  1.20000000E+00  1.20000000E+00  1.50000000E+00
  1.20000000E+00  1.20000000E+00  1.50000000E+00  1.20000000E+00  1.20000000E+00
  1.50000000E+00  1.20000000E+00  1.20000000E+00  1.50000000E+00  1.20000000E+00
  1.20000000E+00  1.50000000E+00  1.20000000E+00  1.20000000E+00  1.50000000E+00
  1.20000000E+00  1.20000000E+00  1.50000000E+00  1.20000000E+00  1.20000000E+00
  1.50000000E+00  1.20000000E+00  1.20000000E+00  1.50000000E+00  1.20000000E+00
  1.20000000E+00  1.50000000E+00  1.20000000E+00  1.20000000E+00  1.50000000E+00
  1.20000000E+00  1.20000000E+00  1.50000000E+00  1.20000000E+00  1.20000000E+00
  1.50000000E+00  1.20000000E+00  1.20000000E+00  1.50000000E+00  1.20000000E+00
  1.20000000E+00  1.50000000E+00  1.20000000E+00  1.20000000E+00  1.50000000E+00
  1.20000000E+00  1.20000000E+00  1.50000000E+00  1.20000000E+00  1.20000000E+00
  1.50000000E+00  1.20000000E+00  1.20000000E+00  1.50000000E+00  1.20000000E+00
  1.20000000E+00  1.50000000E+00  1.20000000E+00  1.20000000E+00  1.50000000E+00
  1.20000000E+00  1.20000000E+00  1.50000000E+00  1.20000000E+00  1.20000000E+00
  1.50000000E+00  1.20000000E+00  1.20000000E+00  1.50000000E+00  1.20000000E+00
  1.20000000E+00  1.50000000E+00  1.20000000E+00  1.20000000E+00  1.50000000E+00
  1.20000000E+00  1.20000000E+00  1.50000000E+00  1.20000000E+00  1.20000000E+00
  1.50000000E+00  1.20000000E+00  1.20000000E+00  1.50000000E+00  1.20000000E+00
  1.20000000E+00  1.50000000E+00  1.20000000E+00  1.20000000E+00  1.50000000E+00
  1.20000000E+00  1.20000000E+00  1.50000000E+00  1.20000000E+00  1.20000000E+00
  1.50000000E+00  1.20000000E+00  1.20000000E+00  1.50000000E+00  1.20000000E+00
  1.20000000E+00  1.50000000E+00  1.20000000E+00  1.20000000E+00  1.50000000E+00
  1.20000000E+00  1.20000000E+00  1.50000000E+00  1.20000000E+00  1.20000000E+00
  1.50000000E+00  1.20000000E+00  1.20000000E+00  1.50000000E+00  1.20000000E+00
  1.20000000E+00  1.50000000E+00  1.20000000E+00  1.20000000E+00  1.50000000E+00
  1.20000000E+00  1.20000000E+00  1.50000000E+00  1.20000000E+00  1.20000000E+00
  1.50000000E+00  1.20000000E+00  1.20000000E+00  1.50000000E+00  1.20000000E+00
  1.20000000E+00  1.50000000E+00  1.20000000E+00  1.20000000E+00  1.50000000E+00
  1.20000000E+00  1.20000000E+00  1.50000000E+00  1.20000000E+00  1.20000000E+00
  1.50000000E+00  1.20000000E+00  1.20000000E+00  1.50000000E+00  1.20000000E+00
  1.20000000E+00  1.50000000E+00  1.20000000E+00  1.20000000E+00  1.50000000E+00
  1.20000000E+00  1.20000000E+00  1.50000000E+00  1.20000000E+00  1.20000000E+00
  1.50000000E+00  1.20000000E+00  1.20000000E+00  1.50000000E+00  1.20000000E+00
  1.20000000E+00  1.50000000E+00  1.20000000E+00  1.20000000E+00  1.50000000E+00
  1.20000000E+00  1.20000000E+00  1.50000000E+00  1.20000000E+00  1.20000000E+00
  1.50000000E+00  1.20000000E+00  1.20000000E+00  1.50000000E+00  1.20000000E+00
  1.20000000E+00  1.50000000E+00  1.20000000E+00  1.20000000E+00  1.50000000E+00
  1.20000000E+00  1.20000000E+00  1.50000000E+00  1.20000000E+00  1.20000000E+00
  1.50000000E+00  1.20000000E+00  1.20000000E+00  1.50000000E+00  1.20000000E+00
  1.20000000E+00  1.50000000E+00  1.20000000E+00  1.20000000E+00  1.50000000E+00
  1.20000000E+00  1.20000000E+00  1.50000000E+00  1.20000000E+00  1.20000000E+00
  1.50000000E+00  1.20000000E+00  1.20000000E+00  1.50000000E+00  1.20000000E+00
  1.20000000E+00  1.50000000E+00  1.20000000E+00  1.20000000E+00  1.50000000E+00
  1.20000000E+00  1.20000000E+00  1.50000000E+00  1.20000000E+00  1.20000000E+00
  1.50000000E+00  1.20000000E+00  1.20000000E+00  1.50000000E+00  1.20000000E+00
  1.20000000E+00  1.50000000E+00  1.20000000E+00  1.20000000E+00  1.50000000E+00
  1.20000000E+00  1.20000000E+00  1.50000000E+00  1.20000000E+00  1.20000000E+00
  1.50000000E+00  1.20000000E+00  1.20000000E+00  1.50000000E+00  1.20000000E+00
  1.20000000E+00  1.50000000E+00  1.20000000E+00  1.20000000E+00  1.50000000E+00
  1.20000000E+00  1.20000000E+00  1.50000000E+00  1.20000000E+00  1.20000000E+00
  1.50000000E+00  1.20000000E+00  1.20000000E+00  1.50000000E+00  1.20000000E+00
  1.20000000E+00  1.50000000E+00  1.20000000E+00  1.20000000E+00  1.50000000E+00
  1.20000000E+00  1.20000000E+00  1.50000000E+00  1.20000000E+00  1.20000000E+00
  1.50000000E+00  1.20000000E+00  1.20000000E+00  1.50000000E+00  1.20000000E+00
  1.20000000E+00  1.50000000E+00  1.20000000E+00  1.20000000E+00  1.50000000E+00
  1.20000000E+00  1.20000000E+00  1.50000000E+00  1.20000000E+00  1.20000000E+00
  1.50000000E+00  1.20000000E+00  1.20000000E+00  1.50000000E+00  1.20000000E+00
  1.20000000E+00  1.50000000E+00  1.20000000E+00  1.20000000E+00  1.50000000E+00
  1.20000000E+00  1.20000000E+00  1.50000000E+00  1.20000000E+00  1.20000000E+00
  1.50000000E+00  1.20000000E+00  1.20000000E+00  1.50000000E+00  1.20000000E+00
  1.20000000E+00  1.50000000E+00  1.20000000E+00  1.20000000E+00  1.50000000E+00
  1.20000000E+00  1.20000000E+00  1.50000000E+00  1.20000000E+00  1.20000000E+00
  1.50000000E+00  1.20000000E+00  1.20000000E+00  1.50000000E+00  1.20000000E+00
  1.20000000E+00  1.50000000E+00  1.20000000E+00  1.20000000E+00  1.50000000E+00
  1.20000000E+00  1.20000000E+00  1.50000000E+00  1.20000000E+00  1.20000000E+00
  1.50000000E+00  1.20000000E+00  1.20000000E+00  1.50000000E+00  1.20000000E+00
  1.20000000E+00  1.50000000E+00  1.20000000E+00  1.20000000E+00  1.50000000E+00
  1.20000000E+00  1.20000000E+00  1.50000000E+00  1.20000000E+00  1.20000000E+00
  1.50000000E+00  1.20000000E+00  1.20000000E+00  1.50000000E+00  1.20000000E+00
  1.20000000E+00  1.50000000E+00  1.20000000E+00  1.20000000E+00  1.50000000E+00
  1.20000000E+00  1.20000000E+00  1.50000000E+00  1.20000000E+00  1.20000000E+00
  1.50000000E+00  1.20000000E+00  1.20000000E+00  1.50000000E+00  1.20000000E+00
  1.20000000E+00  1.50000000E+00  1.20000000E+00  1.20000000E+00  1.50000000E+00
  1.20000000E+00  1.20000000E+00  1.50000000E+00  1.20000000E+00  1.20000000E+00
  1.50000000E+00  1.20000000E+00  1.20000000E+00  1.50000000E+00  1.20000000E+00
  1.20000000E+00  1.50000000E+00  1.20000000E+00  1.20000000E+00  1.50000000E+00
  1.20000000E+00  1.20000000E+00  1.50000000E+00  1.20000000E+00  1.20000000E+00
  1.50000000E+00  1.20000000E+00  1.20000000E+00  1.50000000E+00  1.20000000E+00
  1.20000000E+00  1.50000000E+00  1.20000000E+00  1.20000000E+00  1.50000000E+00
  1.20000000E+00  1.20000000E+00  1.50000000E+00  1.20000000E+00  1.20000000E+00
  1.50000000E+00  1.20000000E+00  1.20000000E+00  1.50000000E+00  1.20000000E+00
  1.20000000E+00  1.50000000E+00  1.20000000E+00  1.20000000E+00  1.50000000E+00
  1.20000000E+00  1.20000000E+00  1.50000000E+00  1.20000000E+00  1.20000000E+00
  1.50000000E+00  1.20000000E+00  1.20000000E+00  1.50000000E+00  1.20000000E+00
  1.20000000E+00  1.50000000E+00  1.20000000E+00  1.20000000E+00  1.50000000E+00
  1.20000000E+00  1.20000000E+00  1.50000000E+00  1.20000000E+00  1.20000000E+00
  1.50000000E+00  1.20000000E+00  1.20000000E+00  1.50000000E+00  1.20000000E+00
  1.20000000E+00  1.50000000E+00  1.20000000E+00  1.20000000E+00  1.50000000E+00
  1.20000000E+00  1.20000000E+00  1.50000000E+00  1.20000000E+00  1.20000000E+00
  1.50000000E+00  1.20000000E+00  1.20000000E+00  1.50000000E+00  1.20000000E+00
  1.20000000E+00  1.50000000E+00  1.20000000E+00  1.20000000E+00  1.50000000E+00
  1.20000000E+00  1.20000000E+00  1.50000000E+00  1.20000000E+00  1.20000000E+00
  1.50000000E+00  1.20000000E+00  1.20000000E+00  1.50000000E+00  1.20000000E+00
  1.20000000E+00  1.50000000E+00  1.20000000E+00  1.20000000E+00  1.50000000E+00
  1.20000000E+00  1.20000000E+00  1.50000000E+00  1.20000000E+00  1.20000000E+00
  1.50000000E+00  1.20000000E+00  1.20000000E+00  1.50000000E+00  1.20000000E+00
  1.20000000E+00  1.50000000E+00  1.20000000E+00  1.20000000E+00  1.50000000E+00
  1.20000000E+00  1.20000000E+00  1.50000000E+00  1.20000000E+00  1.20000000E+00
  1.50000000E+00  1.20000000E+00  1.20000000E+00  1.50000000E+00  1.20000000E+00
  1.20000000E+00  1.50000000E+00  1.20000000E+00  1.20000000E+00  1.50000000E+00
  1.20000000E+00  1.20000000E+00  1.50000000E+00  1.20000000E+00  1.20000000E+00
  1.50000000E+00  1.20000000E+00  1.20000000E+00  1.50000000E+00  1.20000000E+00
  1.20000000E+00  1.50000000E+00  1.20000000E+00  1.20000000E+00  1.50000000E+00
  1.20000000E+00  1.20000000E+00  1.50000000E+00  1.20000000E+00  1.20000000E+00
  1.50000000E+00  1.20000000E+00  1.20000000E+00  1.50000000E+00  1.20000000E+00
  1.20000000E+00  1.50000000E+00  1.20000000E+00  1.20000000E+00  1.50000000E+00
  1.20000000E+00  1.20000000E+00  1.50000000E+00  1.20000000E+00  1.20000000E+00
  1.50000000E+00  1.20000000E+00  1.20000000E+00  1.50000000E+00  1.20000000E+00
  1.20000000E+00  1.50000000E+00  1.20000000E+00  1.20000000E+00  1.50000000E+00
  1.20000000E+00  1.20000000E+00  1.50000000E+00  1.20000000E+00  1.20000000E+00
  1.50000000E+00  1.20000000E+00  1.20000000E+00  1.50000000E+00  1.20000000E+00
  1.20000000E+00  1.50000000E+00  1.20000000E+00  1.20000000E+00  1.50000000E+00
  1.20000000E+00  1.20000000E+00  1.50000000E+00  1.20000000E+00  1.20000000E+00
  1.50000000E+00  1.20000000E+00  1.20000000E+00  1.50000000E+00  1.20000000E+00
  1.20000000E+00  1.50000000E+00  1.20000000E+00  1.20000000E+00  1.50000000E+00
  1.20000000E+00  1.20000000E+00  1.50000000E+00  1.20000000E+00  1.20000000E+00
  1.50000000E+00  1.20000000E+00  1.20000000E+00  1.50000000E+00  1.20000000E+00
  1.20000000E+00  1.50000000E+00  1.20000000E+00  1.20000000E+00  1.50000000E+00
  1.20000000E+00  1.20000000E+00  1.50000000E+00  1.20000000E+00  1.20000000E+00
  1.50000000E+00  1.20000000E+00  1.20000000E+00  1.50000000E+00  1.20000000E+00
  1.20000000E+00  1.50000000E+00  1.20000000E+00  1.20000000E+00  1.50000000E+00
  1.20000000E+00  1.20000000E+00  1.50000000E+00  1.20000000E+00  1.20000000E+00
  1.50000000E+00  1.20000000E+00  1.20000000E+00  1.50000000E+00  1.20000000E+00
  1.20000000E+00  1.50000000E+00  1.20000000E+00  1.20000000E+00  1.50000000E+00
  1.20000000E+00  1.20000000E+00  1.50000000E+00  1.20000000E+00  1.20000000E+00
  1.50000000E+00  1.20000000E+00  1.20000000E+00  1.50000000E+00  1.20000000E+00
  1.20000000E+00  1.50000000E+00  1.20000000E+00  1.20000000E+00  1.50000000E+00
  1.20000000E+00  1.20000000E+00  1.50000000E+00  1.20000000E+00  1.20000000E+00
  1.50000000E+00  1.20000000E+00  1.20000000E+00  1.50000000E+00  1.20000000E+00
  1.20000000E+00  1.50000000E+00  1.20000000E+00  1.20000000E+00  1.50000000E+00
  1.20000000E+00  1.20000000E+00  1.50000000E+00  1.20000000E+00  1.20000000E+00
  1.50000000E+00  1.20000000E+00  1.20000000E+00  1.50000000E+00  1.20000000E+00
  1.20000000E+00  1.50000000E+00  1.20000000E+00  1.20000000E+00  1.50000000E+00
  1.20000000E+00  1.20000000E+00  1.50000000E+00  1.20000000E+00  1.20000000E+00
  1.50000000E+00  1.20000000E+00  1.20000000E+00  1.50000000E+00  1.20000000E+00
  1.20000000E+00  1.50000000E+00  1.20000000E+00  1.20000000E+00  1.50000000E+00
  1.20000000E+00  1.20000000E+00  1.50000000E+00  1.20000000E+00  1.20000000E+00
  1.50000000E+00  1.20000000E+00  1.20000000E+00  1.50000000E+00  1.20000000E+00
  1.20000000E+00  1.50000000E+00  1.20000000E+00  1.20000000E+00  1.50000000E+00
  1.20000000E+00  1.20000000E+00  1.50000000E+00  1.20000000E+00  1.20000000E+00
  1.50000000E+00  1.20000000E+00  1.20000000E+00  1.50000000E+00  1.20000000E+00
  1.20000000E+00  1.50000000E+00  1.20000000E+00  1.20000000E+00  1.50000000E+00
  1.20000000E+00  1.20000000E+00  1.50000000E+00  1.20000000E+00  1.20000000E+00
  1.50000000E+00  1.20000000E+00  1.20000000E+00  1.50000000E+00  1.20000000E+00
  1.20000000E+00  1.50000000E+00  1.20000000E+00  1.20000000E+00  1.50000000E+00
  1.20000000E+00  1.20000000E+00  1.50000000E+00  1.20000000E+00  1.20000000E+00
  1.50000000E+00  1.20000000E+00  1.20000000E+00  1.50000000E+00  1.20000000E+00
  1.20000000E+00  1.50000000E+00  1.20000000E+00  1.20000000E+00  1.50000000E+00
  1.20000000E+00  1.20000000E+00  1.50000000E+00  1.20000000E+00  1.20000000E+00
  1.50000000E+00  1.20000000E+00  1.20000000E+00  1.50000000E+00  1.20000000E+00
  1.20000000E+00  1.50000000E+00  1.20000000E+00  1.20000000E+00  1.50000000E+00
  1.20000000E+00  1.20000000E+00  1.50000000E+00  1.20000000E+00  1.20000000E+00
  1.50000000E+00  1.20000000E+00  1.20000000E+00  1.50000000E+00  1.20000000E+00
  1.20000000E+00  1.50000000E+00  1.20000000E+00  1.20000000E+00  1.50000000E+00
  1.20000000E+00  1.20000000E+00  1.50000000E+00  1.20000000E+00  1.20000000E+00
  1.50000000E+00  1.20000000E+00  1.20000000E+00  1.50000000E+00  1.20000000E+00
  1.20000000E+00  1.50000000E+00  1.20000000E+00  1.20000000E+00  1.50000000E+00
  1.20000000E+00  1.20000000E+00  1.50000000E+00  1.20000000E+00  1.20000000E+00
  1.50000000E+00  1.20000000E+00  1.20000000E+00  1.50000000E+00  1.20000000E+00
  1.20000000E+00  1.50000000E+00  1.20000000E+00  1.20000000E+00  1.50000000E+00
  1.20000000E+00  1.20000000E+00  1.50000000E+00  1.20000000E+00  1.20000000E+00
  1.50000000E+00  1.20000000E+00  1.20000000E+00  1.50000000E+00  1.20000000E+00
  1.20000000E+00  1.50000000E+00  1.20000000E+00  1.20000000E+00  1.50000000E+00
  1.20000000E+00  1.20000000E+00  1.50000000E+00  1.20000000E+00  1.20000000E+00
  1.50000000E+00  1.20000000E+00  1.20000000E+00  1.50000000E+00  1.20000000E+00
  1.20000000E+00  1.50000000E+00  1.20000000E+00  1.20000000E+00  1.50000000E+00
  1.20000000E+00  1.20000000E+00  1.50000000E+00  1.20000000E+00  1.20000000E+00
  1.50000000E+00  1.20000000E+00  1.20000000E+00  1.50000000E+00  1.20000000E+00
  1.20000000E+00  1.50000000E+00  1.20000000E+00  1.20000000E+00  1.50000000E+00
  1.20000000E+00  1.20000000E+00  1.50000000E+00  1.20000000E+00  1.20000000E+00
  1.50000000E+00  1.20000000E+00  1.20000000E+00  1.50000000E+00  1.20000000E+00
  1.20000000E+00  1.50000000E+00  1.20000000E+00  1.20000000E+00  1.50000000E+00
  1.20000000E+00  1.20000000E+00  1.50000000E+00  1.20000000E+00  1.20000000E+00
  1.50000000E+00  1.20000000E+00  1.20000000E+00  1.50000000E+00  1.20000000E+00
  1.20000000E+00  1.50000000E+00  1.20000000E+00  1.20000000E+00  1.50000000E+00
  1.20000000E+00  1.20000000E+00  1.50000000E+00  1.20000000E+00  1.20000000E+00
  1.50000000E+00  1.20000000E+00  1.20000000E+00  1.50000000E+00  1.20000000E+00
  1.20000000E+00  1.50000000E+00  1.20000000E+00  1.20000000E+00  1.50000000E+00
  1.20000000E+00  1.20000000E+00  1.50000000E+00  1.20000000E+00  1.20000000E+00
  1.50000000E+00  1.20000000E+00  1.20000000E+00  1.50000000E+00  1.20000000E+00
  1.20000000E+00  1.50000000E+00  1.20000000E+00  1.20000000E+00  1.50000000E+00
  1.20000000E+00  1.20000000E+00  1.50000000E+00  1.20000000E+00  1.20000000E+00
  1.50000000E+00  1.20000000E+00  1.20000000E+00  1.50000000E+00  1.20000000E+00
  1.20000000E+00  1.50000000E+00  1.20000000E+00  1.20000000E+00  1.50000000E+00
  1.20000000E+00  1.20000000E+00  1.50000000E+00  1.20000000E+00  1.20000000E+00
  1.50000000E+00  1.20000000E+00  1.20000000E+00  1.50000000E+00  1.20000000E+00
  1.20000000E+00  1.50000000E+00  1.20000000E+00  1.20000000E+00  1.50000000E+00
  1.20000000E+00  1.20000000E+00  1.50000000E+00  1.20000000E+00  1.20000000E+00
  1.50000000E+00  1.20000000E+00  1.20000000E+00  1.50000000E+00  1.20000000E+00
  1.20000000E+00  1.50000000E+00  1.20000000E+00  1.20000000E+00  1.50000000E+00
  1.20000000E+00  1.20000000E+00  1.50000000E+00  1.20000000E+00  1.20000000E+00
  1.50000000E+00  1.20000000E+00  1.20000000E+00  1.50000000E+00  1.20000000E+00
  1.20000000E+00  1.50000000E+00  1.20000000E+00  1.20000000E+00  1.50000000E+00
  1.20000000E+00  1.20000000E+00  1.50000000E+00  1.20000000E+00  1.20000000E+00
  1.50000000E+00  1.20000000E+00  1.20000000E+00  1.50000000E+00  1.20000000E+00
  1.20000000E+00  1.50000000E+00  1.20000000E+00  1.20000000E+00  1.50000000E+00
  1.20000000E+00  1.20000000E+00  1.50000000E+00  1.20000000E+00  1.20000000E+00
  1.50000000E+00  1.20000000E+00  1.20000000E+00  1.50000000E+00  1.20000000E+00
  1.20000000E+00  1.50000000E+00  1.20000000E+00  1.20000000E+00  1.50000000E+00
  1.20000000E+00  1.20000000E+00  1.50000000E+00  1.20000000E+00  1.20000000E+00
  1.50000000E+00  1.20000000E+00  1.20000000E+00  1.50000000E+00  1.20000000E+00
  1.20000000E+00  1.50000000E+00  1.20000000E+00  1.20000000E+00  1.50000000E+00
  1.20000000E+00  1.20000000E+00  1.50000000E+00  1.20000000E+00  1.20000000E+00
  1.50000000E+00  1.20000000E+00  1.20000000E+00  1.50000000E+00  1.20000000E+00
  1.20000000E+00  1.50000000E+00  1.20000000E+00  1.20000000E+00  1.50000000E+00
  1.20000000E+00  1.20000000E+00  1.50000000E+00  1.20000000E+00  1.20000000E+00
  1.50000000E+00  1.20000000E+00  1.20000000E+00  1.50000000E+00  1.20000000E+00
  1.20000000E+00  1.50000000E+00  1.20000000E+00  1.20000000E+00  1.50000000E+00
  1.20000000E+00  1.20000000E+00  1.50000000E+00  1.20000000E+00  1.20000000E+00
  1.50000000E+00  1.20000000E+00  1.20000000E+00  1.50000000E+00  1.20000000E+00
  1.20000000E+00  1.50000000E+00  1.20000000E+00  1.20000000E+00  1.50000000E+00
  1.20000000E+00  1.20000000E+00  1.50000000E+00  1.20000000E+00  1.20000000E+00
  1.50000000E+00  1.20000000E+00  1.20000000E+00  1.50000000E+00  1.20000000E+00
  1.20000000E+00  1.50000000E+00  1.20000000E+00  1.20000000E+00  1.50000000E+00
  1.20000000E+00  1.20000000E+00  1.50000000E+00  1.20000000E+00  1.20000000E+00
  1.50000000E+00  1.20000000E+00  1.20000000E+00  1.50000000E+00  1.20000000E+00
  1.20000000E+00  1.50000000E+00  1.20000000E+00  1.20000000E+00  1.50000000E+00
  1.20000000E+00  1.20000000E+00  1.50000000E+00  1.20000000E+00  1.20000000E+00
  1.50000000E+00  1.20000000E+00  1.20000000E+00  1.50000000E+00  1.20000000E+00
  1.20000000E+00  1.50000000E+00  1.20000000E+00  1.20000000E+00  1.50000000E+00
  1.20000000E+00  1.20000000E+00  1.50000000E+00  1.20000000E+00  1.20000000E+00
  1.50000000E+00  1.20000000E+00  1.20000000E+00  1.50000000E+00  1.20000000E+00
  1.20000000E+00  1.50000000E+00  1.20000000E+00  1.20000000E+00  1.50000000E+00
  1.20000000E+00  1.20000000E+00  1.50000000E+00  1.20000000E+00  1.20000000E+00
  1.50000000E+00  1.20000000E+00  1.20000000E+00  1.50000000E+00  1.20000000E+00
  1.20000000E+00  1.50000000E+00  1.20000000E+00  1.20000000E+00  1.50000000E+00
  1.20000000E+00  1.20000000E+00  1.50000000E+00  1.20000000E+00  1.20000000E+00
  1.50000000E+00  1.20000000E+00  1.20000000E+00  1.50000000E+00  1.20000000E+00
  1.20000000E+00  1.50000000E+00  1.20000000E+00  1.20000000E+00  1.50000000E+00
  1.20000000E+00  1.20000000E+00  1.50000000E+00  1.20000000E+00  1.20000000E+00
  1.50000000E+00  1.20000000E+00  1.20000000E+00  1.50000000E+00  1.20000000E+00
  1.20000000E+00  1.50000000E+00  1.20000000E+00  1.20000000E+00  1.50000000E+00
  1.20000000E+00  1.20000000E+00  1.50000000E+00  1.20000000E+00  1.20000000E+00
  1.50000000E+00  1.20000000E+00  1.20000000E+00  1.50000000E+00  1.20000000E+00
  1.20000000E+00  1.50000000E+00  1.20000000E+00  1.20000000E+00  1.50000000E+00
  1.20000000E+00  1.20000000E+00  1.50000000E+00  1.20000000E+00  1.20000000E+00
  1.50000000E+00  1.20000000E+00  1.20000000E+00  1.50000000E+00  1.20000000E+00
  1.20000000E+00  1.50000000E+00  1.20000000E+00  1.20000000E+00  1.50000000E+00
  1.20000000E+00  1.20000000E+00  1.50000000E+00  1.20000000E+00  1.20000000E+00
  1.50000000E+00  1.20000000E+00  1.20000000E+00  1.50000000E+00  1.20000000E+00
  1.20000000E+00  1.50000000E+00  1.20000000E+00  1.20000000E+00  1.50000000E+00
  1.20000000E+00  1.20000000E+00  1.50000000E+00  1.20000000E+00  1.20000000E+00
  1.50000000E+00  1.20000000E+00  1.20000000E+00  1.50000000E+00  1.20000000E+00
  1.20000000E+00  1.50000000E+00  1.20000000E+00  1.20000000E+00  1.50000000E+00
  1.20000000E+00  1.20000000E+00  1.50000000E+00  1.20000000E+00  1.20000000E+00
  1.50000000E+00  1.20000000E+00  1.20000000E+00  1.50000000E+00  1.20000000E+00
  1.20000000E+00  1.50000000E+00  1.20000000E+00  1.20000000E+00  1.50000000E+00
  1.20000000E+00  1.20000000E+00  1.50000000E+00  1.20000000E+00  1.20000000E+00
  1.50000000E+00  1.20000000E+00  1.20000000E+00  1.50000000E+00  1.20000000E+00
  1.20000000E+00  1.50000000E+00  1.20000000E+00  1.20000000E+00  1.50000000E+00
  1.20000000E+00  1.20000000E+00  1.50000000E+00  1.20000000E+00  1.20000000E+00
  1.50000000E+00  1.20000000E+00  1.20000000E+00  1.50000000E+00  1.20000000E+00
  1.20000000E+00  1.50000000E+00  1.20000000E+00  1.20000000E+00  1.50000000E+00
  1.20000000E+00  1.20000000E+00  1.50000000E+00  1.20000000E+00  1.20000000E+00
  1.50000000E+00  1.20000000E+00  1.20000000E+00  1.50000000E+00  1.20000000E+00
  1.20000000E+00  1.50000000E+00  1.20000000E+00  1.20000000E+00  1.50000000E+00
  1.20000000E+00  1.20000000E+00  1.50000000E+00  1.20000000E+00  1.20000000E+00
  1.50000000E+00  1.20000000E+00  1.20000000E+00  1.50000000E+00  1.20000000E+00
  1.20000000E+00  1.50000000E+00  1.20000000E+00  1.20000000E+00  1.50000000E+00
  1.20000000E+00  1.20000000E+00  1.50000000E+00  1.20000000E+00  1.20000000E+00
  1.50000000E+00  1.20000000E+00  1.20000000E+00  1.50000000E+00  1.20000000E+00
  1.20000000E+00  1.50000000E+00  1.20000000E+00  1.20000000E+00  1.50000000E+00
  1.20000000E+00  1.20000000E+00  1.50000000E+00  1.20000000E+00  1.20000000E+00
  1.50000000E+00  1.20000000E+00  1.20000000E+00  1.50000000E+00  1.20000000E+00
  1.20000000E+00  1.50000000E+00  1.20000000E+00  1.20000000E+00  1.50000000E+00
  1.20000000E+00  1.20000000E+00  1.50000000E+00  1.20000000E+00  1.20000000E+00
  1.50000000E+00  1.20000000E+00  1.20000000E+00  1.50000000E+00  1.20000000E+00
  1.20000000E+00  1.50000000E+00  1.20000000E+00  1.20000000E+00  1.50000000E+00
  1.20000000E+00  1.20000000E+00  1.50000000E+00  1.20000000E+00  1.20000000E+00
  1.50000000E+00  1.20000000E+00  1.20000000E+00  1.50000000E+00  1.20000000E+00
  1.20000000E+00  1.50000000E+00  1.20000000E+00  1.20000000E+00  1.50000000E+00
  1.20000000E+00  1.20000000E+00  1.50000000E+00  1.20000000E+00  1.20000000E+00
  1.50000000E+00  1.20000000E+00  1.20000000E+00  1.50000000E+00  1.20000000E+00
  1.20000000E+00  1.50000000E+00  1.20000000E+00  1.20000000E+00  1.50000000E+00
  1.20000000E+00  1.20000000E+00  1.50000000E+00  1.20000000E+00  1.20000000E+00
  1.50000000E+00  1.20000000E+00  1.20000000E+00  1.50000000E+00  1.20000000E+00
  1.20000000E+00  1.50000000E+00  1.20000000E+00  1.20000000E+00  1.50000000E+00
  1.20000000E+00  1.20000000E+00  1.50000000E+00  1.20000000E+00  1.20000000E+00
  1.50000000E+00  1.20000000E+00  1.20000000E+00  1.50000000E+00  1.20000000E+00
  1.20000000E+00  1.50000000E+00  1.20000000E+00  1.20000000E+00  1.50000000E+00
  1.20000000E+00  1.20000000E+00  1.50000000E+00  1.20000000E+00  1.20000000E+00
  1.50000000E+00  1.20000000E+00  1.20000000E+00  1.50000000E+00  1.20000000E+00
  1.20000000E+00  1.50000000E+00  1.20000000E+00  1.20000000E+00  1.50000000E+00
  1.20000000E+00  1.20000000E+00  1.50000000E+00  1.20000000E+00  1.20000000E+00
  1.50000000E+00  1.20000000E+00  1.20000000E+00  1.50000000E+00  1.20000000E+00
  1.20000000E+00  1.50000000E+00  1.20000000E+00  1.20000000E+00  1.50000000E+00
  1.20000000E+00  1.20000000E+00  1.50000000E+00  1.20000000E+00  1.20000000E+00
  1.50000000E+00  1.20000000E+00  1.20000000E+00  1.50000000E+00  1.20000000E+00
  1.20000000E+00  1.50000000E+00  1.20000000E+00  1.20000000E+00  1.50000000E+00
  1.20000000E+00  1.20000000E+00  1.50000000E+00  1.20000000E+00  1.20000000E+00
  1.50000000E+00  1.20000000E+00  1.20000000E+00  1.50000000E+00  1.20000000E+00
  1.20000000E+00  1.50000000E+00  1.20000000E+00  1.20000000E+00  1.50000000E+00
  1.20000000E+00  1.20000000E+00  1.50000000E+00  1.20000000E+00  1.20000000E+00
  1.50000000E+00  1.20000000E+00  1.20000000E+00  1.50000000E+00  1.20000000E+00
  1.20000000E+00  1.50000000E+00  1.20000000E+00  1.20000000E+00  1.50000000E+00
  1.20000000E+00  1.20000000E+00  1.50000000E+00  1.20000000E+00  1.20000000E+00
  1.50000000E+00  1.20000000E+00  1.20000000E+00  1.50000000E+00  1.20000000E+00
  1.20000000E+00  1.50000000E+00  1.20000000E+00  1.20000000E+00  1.50000000E+00
  1.20000000E+00  1.20000000E+00  1.50000000E+00  1.20000000E+00  1.20000000E+00
  1.50000000E+00  1.20000000E+00  1.20000000E+00  1.50000000E+00  1.20000000E+00
  1.20000000E+00  1.50000000E+00  1.20000000E+00  1.20000000E+00  1.50000000E+00
  1.20000000E+00  1.20000000E+00  1.50000000E+00  1.20000000E+00  1.20000000E+00
  1.50000000E+00  1.20000000E+00  1.20000000E+00  1.50000000E+00  1.20000000E+00
  1.20000000E+00  1.50000000E+00  1.20000000E+00  1.20000000E+00  1.50000000E+00
  1.20000000E+00  1.20000000E+00  1.50000000E+00  1.20000000E+00  1.20000000E+00
  1.50000000E+00  1.20000000E+00  1.20000000E+00  1.50000000E+00  1.20000000E+00
  1.20000000E+00  1.50000000E+00  1.20000000E+00  1.20000000E+00  1.50000000E+00
  1.20000000E+00  1.20000000E+00  1.50000000E+00  1.20000000E+00  1.20000000E+00
  1.50000000E+00  1.20000000E+00  1.20000000E+00  1.50000000E+00  1.20000000E+00
  1.20000000E+00  1.50000000E+00  1.20000000E+00  1.20000000E+00  1.50000000E+00
  1.20000000E+00  1.20000000E+00  1.50000000E+00  1.20000000E+00  1.20000000E+00
  1.50000000E+00  1.20000000E+00  1.20000000E+00  1.50000000E+00  1.20000000E+00
  1.20000000E+00  1.50000000E+00  1.20000000E+00  1.20000000E+00  1.50000000E+00
  1.20000000E+00  1.20000000E+00  1.50000000E+00  1.20000000E+00  1.20000000E+00
  1.50000000E+00  1.20000000E+00  1.20000000E+00  1.50000000E+00  1.20000000E+00
  1.20000000E+00  1.50000000E+00  1.20000000E+00  1.20000000E+00  1.50000000E+00
  1.20000000E+00  1.20000000E+00  1.50000000E+00  1.20000000E+00  1.20000000E+00
  1.50000000E+00  1.20000000E+00  1.20000000E+00  1.50000000E+00  1.20000000E+00
  1.20000000E+00  1.50000000E+00  1.20000000E+00  1.20000000E+00  1.50000000E+00
  1.20000000E+00  1.20000000E+00  1.50000000E+00  1.20000000E+00  1.20000000E+00
  1.50000000E+00  1.20000000E+00  1.20000000E+00  1.50000000E+00  1.20000000E+00
  1.20000000E+00  1.50000000E+00  1.20000000E+00  1.20000000E+00  1.50000000E+00
  1.20000000E+00  1.20000000E+00  1.50000000E+00  1.20000000E+00  1.20000000E+00
  1.50000000E+00  1.20000000E+00  1.20000000E+00  1.50000000E+00  1.20000000E+00
  1.20000000E+00  1.50000000E+00  1.20000000E+00  1.20000000E+00  1.50000000E+00
  1.20000000E+00  1.20000000E+00  1.50000000E+00  1.20000000E+00  1.20000000E+00
  1.50000000E+00  1.20000000E+00  1.20000000E+00  1.50000000E+00  1.20000000E+00
  1.20000000E+00  1.50000000E+00  1.20000000E+00  1.20000000E+00  1.50000000E+00
  1.20000000E+00  1.20000000E+00  1.50000000E+00  1.20000000E+00  1.20000000E+00
  1.50000000E+00  1.20000000E+00  1.20000000E+00  1.50000000E+00  1.20000000E+00
  1.20000000E+00  1.50000000E+00  1.20000000E+00  1.20000000E+00  1.50000000E+00
  1.20000000E+00  1.20000000E+00  1.50000000E+00  1.20000000E+00  1.20000000E+00
  1.50000000E+00  1.20000000E+00  1.20000000E+00  1.50000000E+00  1.20000000E+00
  1.20000000E+00  1.50000000E+00  1.20000000E+00  1.20000000E+00  1.50000000E+00
  1.20000000E+00  1.20000000E+00  1.50000000E+00  1.20000000E+00  1.20000000E+00
  1.50000000E+00  1.20000000E+00  1.20000000E+00  1.50000000E+00  1.20000000E+00
  1.20000000E+00  1.50000000E+00  1.20000000E+00  1.20000000E+00  1.50000000E+00
  1.20000000E+00  1.20000000E+00  1.50000000E+00  1.20000000E+00  1.20000000E+00
  1.50000000E+00  1.20000000E+00  1.20000000E+00  1.50000000E+00  1.20000000E+00
  1.20000000E+00  1.50000000E+00  1.20000000E+00  1.20000000E+00  1.50000000E+00
  1.20000000E+00  1.20000000E+00  1.50000000E+00  1.20000000E+00  1.20000000E+00
  1.50000000E+00  1.20000000E+00  1.20000000E+00  1.50000000E+00  1.20000000E+00
  1.20000000E+00  1.50000000E+00  1.20000000E+00  1.20000000E+00  1.50000000E+00
  1.20000000E+00  1.20000000E+00  1.50000000E+00  1.20000000E+00  1.20000000E+00
  1.50000000E+00  1.20000000E+00  1.20000000E+00  1.50000000E+00  1.20000000E+00
  1.20000000E+00  1.50000000E+00  1.20000000E+00  1.20000000E+00  1.50000000E+00
  1.20000000E+00  1.20000000E+00  1.50000000E+00  1.20000000E+00  1.20000000E+00
  1.50000000E+00  1.20000000E+00  1.20000000E+00  1.50000000E+00  1.20000000E+00
  1.20000000E+00  1.50000000E+00  1.20000000E+00  1.20000000E+00  1.50000000E+00
  1.20000000E+00  1.20000000E+00  1.50000000E+00  1.20000000E+00  1.20000000E+00
  1.50000000E+00  1.20000000E+00  1.20000000E+00  1.50000000E+00  1.20000000E+00
  1.20000000E+00  1.50000000E+00  1.20000000E+00  1.20000000E+00  1.50000000E+00
  1.20000000E+00  1.20000000E+00  1.50000000E+00  1.20000000E+00  1.20000000E+00
  1.50000000E+00  1.20000000E+00  1.20000000E+00  1.50000000E+00  1.20000000E+00
  1.20000000E+00  1.50000000E+00  1.20000000E+00  1.20000000E+00  1.50000000E+00
  1.20000000E+00  1.20000000E+00  1.50000000E+00  1.20000000E+00  1.20000000E+00
  1.50000000E+00  1.20000000E+00  1.20000000E+00  1.50000000E+00  1.20000000E+00
  1.20000000E+00  1.50000000E+00  1.20000000E+00  1.20000000E+00  1.50000000E+00
  1.20000000E+00  1.20000000E+00  1.50000000E+00  1.20000000E+00  1.20000000E+00
  1.50000000E+00  1.20000000E+00  1.20000000E+00  1.50000000E+00  1.20000000E+00
  1.20000000E+00  1.50000000E+00  1.20000000E+00  1.20000000E+00  1.50000000E+00
  1.20000000E+00  1.20000000E+00  1.50000000E+00  1.20000000E+00  1.20000000E+00
  1.50000000E+00  1.20000000E+00  1.20000000E+00  1.50000000E+00  1.20000000E+00
  1.20000000E+00  1.50000000E+00  1.20000000E+00  1.20000000E+00  1.50000000E+00
  1.20000000E+00  1.20000000E+00  1.50000000E+00  1.20000000E+00  1.20000000E+00
  1.50000000E+00  1.20000000E+00  1.20000000E+00  1.50000000E+00  1.20000000E+00
  1.20000000E+00  1.50000000E+00  1.20000000E+00  1.20000000E+00  1.50000000E+00
  1.20000000E+00  1.20000000E+00  1.50000000E+00  1.20000000E+00  1.20000000E+00
  1.50000000E+00  1.20000000E+00  1.20000000E+00  1.50000000E+00  1.20000000E+00
  1.20000000E+00  1.50000000E+00  1.20000000E+00  1.20000000E+00  1.50000000E+00
  1.20000000E+00  1.20000000E+00  1.50000000E+00  1.20000000E+00  1.20000000E+00
  1.50000000E+00  1.20000000E+00  1.20000000E+00  1.50000000E+00  1.20000000E+00
  1.20000000E+00  1.50000000E+00  1.20000000E+00  1.20000000E+00  1.50000000E+00
  1.20000000E+00  1.20000000E+00  1.50000000E+00  1.20000000E+00  1.20000000E+00
  1.50000000E+00  1.20000000E+00  1.20000000E+00  1.50000000E+00  1.20000000E+00
  1.20000000E+00  1.50000000E+00  1.20000000E+00  1.20000000E+00  1.50000000E+00
  1.20000000E+00  1.20000000E+00  1.50000000E+00  1.20000000E+00  1.20000000E+00
  1.50000000E+00  1.20000000E+00  1.20000000E+00  1.50000000E+00  1.20000000E+00
  1.20000000E+00  1.50000000E+00  1.20000000E+00  1.20000000E+00  1.50000000E+00
  1.20000000E+00  1.20000000E+00  1.50000000E+00  1.20000000E+00  1.20000000E+00
  1.50000000E+00  1.20000000E+00  1.20000000E+00  1.50000000E+00  1.20000000E+00
  1.20000000E+00  1.50000000E+00  1.20000000E+00  1.20000000E+00  1.50000000E+00
  1.20000000E+00  1.20000000E+00  1.50000000E+00  1.20000000E+00  1.20000000E+00
  1.50000000E+00  1.20000000E+00  1.20000000E+00  1.50000000E+00  1.20000000E+00
  1.20000000E+00  1.50000000E+00  1.20000000E+00  1.20000000E+00  1.50000000E+00
  1.20000000E+00  1.20000000E+00  1.50000000E+00  1.20000000E+00  1.20000000E+00
  1.50000000E+00  1.20000000E+00  1.20000000E+00  1.50000000E+00  1.20000000E+00
  1.20000000E+00  1.50000000E+00  1.20000000E+00  1.20000000E+00  1.50000000E+00
  1.20000000E+00  1.20000000E+00  1.50000000E+00  1.20000000E+00  1.20000000E+00
  1.50000000E+00  1.20000000E+00  1.20000000E+00  1.50000000E+00  1.20000000E+00
  1.20000000E+00  1.50000000E+00  1.20000000E+00  1.20000000E+00  1.50000000E+00
  1.20000000E+00  1.20000000E+00  1.50000000E+00  1.20000000E+00  1.20000000E+00
  1.50000000E+00  1.20000000E+00  1.20000000E+00  1.50000000E+00  1.20000000E+00
  1.20000000E+00  1.50000000E+00  1.20000000E+00  1.20000000E+00  1.50000000E+00
  1.20000000E+00  1.20000000E+00  1.50000000E+00  1.20000000E+00  1.20000000E+00
  1.50000000E+00  1.20000000E+00  1.20000000E+00  1.50000000E+00  1.20000000E+00
  1.20000000E+00  1.50000000E+00  1.20000000E+00  1.20000000E+00  1.50000000E+00
  1.20000000E+00  1.20000000E+00  1.50000000E+00  1.20000000E+00  1.20000000E+00
  1.50000000E+00  1.20000000E+00  1.20000000E+00  1.50000000E+00  1.20000000E+00
  1.20000000E+00  1.50000000E+00  1.20000000E+00  1.20000000E+00  1.50000000E+00
  1.20000000E+00  1.20000000E+00  1.50000000E+00  1.20000000E+00  1.20000000E+00
  1.50000000E+00  1.20000000E+00  1.20000000E+00  1.50000000E+00  1.20000000E+00
  1.20000000E+00  1.50000000E+00  1.20000000E+00  1.20000000E+00  1.50000000E+00
  1.20000000E+00  1.20000000E+00  1.50000000E+00  1.20000000E+00  1.20000000E+00
  1.50000000E+00  1.20000000E+00  1.20000000E+00  1.50000000E+00  1.20000000E+00
  1.20000000E+00  1.50000000E+00  1.20000000E+00  1.20000000E+00  1.50000000E+00
  1.20000000E+00  1.20000000E+00  1.50000000E+00  1.20000000E+00  1.20000000E+00
  1.50000000E+00  1.20000000E+00  1.20000000E+00  1.50000000E+00  1.20000000E+00
  1.20000000E+00  1.50000000E+00  1.20000000E+00  1.20000000E+00  1.50000000E+00
  1.20000000E+00  1.20000000E+00  1.50000000E+00  1.20000000E+00  1.20000000E+00
  1.50000000E+00  1.20000000E+00  1.20000000E+00  1.50000000E+00  1.20000000E+00
  1.20000000E+00  1.50000000E+00  1.20000000E+00  1.20000000E+00  1.50000000E+00
  1.20000000E+00  1.20000000E+00  1.50000000E+00  1.20000000E+00  1.20000000E+00
  1.50000000E+00  1.20000000E+00  1.20000000E+00  1.50000000E+00  1.20000000E+00
  1.20000000E+00  1.50000000E+00  1.20000000E+00  1.20000000E+00  1.50000000E+00
  1.20000000E+00  1.20000000E+00  1.50000000E+00  1.20000000E+00  1.20000000E+00
  1.50000000E+00  1.20000000E+00  1.20000000E+00  1.50000000E+00  1.20000000E+00
  1.20000000E+00  1.50000000E+00  1.20000000E+00  1.20000000E+00  1.50000000E+00
  1.20000000E+00  1.20000000E+00  1.50000000E+00  1.20000000E+00  1.20000000E+00
  1.50000000E+00  1.20000000E+00  1.20000000E+00  1.50000000E+00  1.20000000E+00
  1.20000000E+00  1.50000000E+00  1.20000000E+00  1.20000000E+00  1.50000000E+00
  1.20000000E+00  1.20000000E+00  1.50000000E+00  1.20000000E+00  1.20000000E+00
  1.50000000E+00  1.20000000E+00  1.20000000E+00  1.50000000E+00  1.20000000E+00
  1.20000000E+00  1.50000000E+00  1.20000000E+00  1.20000000E+00  1.50000000E+00
  1.20000000E+00  1.20000000E+00  1.50000000E+00  1.20000000E+00  1.20000000E+00
  1.50000000E+00  1.20000000E+00  1.20000000E+00  1.50000000E+00  1.20000000E+00
  1.20000000E+00  1.50000000E+00  1.20000000E+00  1.20000000E+00  1.50000000E+00
  1.20000000E+00  1.20000000E+00  1.50000000E+00  1.20000000E+00  1.20000000E+00
%FLAG SCREEN
%FORMAT(5E16.8)
  7.90000000E-01  8.50000000E-01  8.50000000E-01  8.50000000E-01  7.20000000E-01
  8.50000000E-01  8.50000000E-01  7.20000000E-01  8.50000000E-01  7.90000000E-01
  8.50000000E-01  7.20000000E-01  8.50000000E-01  7.20000000E-01  8.50000000E-01
  7.20000000E-01  8.50000000E-01  8.50000000E-01  8.50000000E-01  7.20000000E-01
  8.50000000E-01  8.50000000E-01  7.20000000E-01  8.50000000E-01  8.50000000E-01
  8.50000000E-01  7.20000000E-01  8.50000000E-01  7.90000000E-01  8.50000000E-01
  7.20000000E-01  8.50000000E-01  7.20000000E-01  8.50000000E-01  7.20000000E-01
  8.50000000E-01  8.50000000E-01  8.50000000E-01  7.20000000E-01  8.50000000E-01
  8.50000000E-01  8.50000000E-01  7.20000000E-01  8.50000000E-01  7.90000000E-01
  8.50000000E-01  7.20000000E-01  8.50000000E-01  7.20000000E-01  8.50000000E-01
  8.50000000E-01  7.20000000E-01  8.50000000E-01  8.50000000E-01  7.20000000E-01
  8.50000000E-01  8.50000000E-01  8.50000000E-01  7.20000000E-01  8.50000000E-01
  8.50000000E-01  8.50000000E-01  8.50000000E-01  7.90000000E-01  8.50000000E-01
  7.20000000E-01  8.50000000E-01  7.20000000E-01  8.50000000E-01  8.50000000E-01
  7.20000000E-01  8.50000000E-01  8.50000000E-01  7.20000000E-01  8.50000000E-01
  7.90000000E-01  8.50000000E-01  8.50000000E-01  7.20000000E-01  8.50000000E-01
  7.90000000E-01  8.50000000E-01  7.20000000E-01  8.50000000E-01  7.20000000E-01
  8.50000000E-01  8.50000000E-01  9.60000000E-01  7.20000000E-01  8.50000000E-01
  7.90000000E-01  8.50000000E-01  7.20000000E-01  8.50000000E-01  7.20000000E-01
  8.50000000E-01  8.50000000E-01  9.60000000E-01  7.20000000E-01  8.50000000E-01
  7.90000000E-01  8.50000000E-01  7.20000000E-01  8.50000000E-01  7.20000000E-01
  8.50000000E-01  7.20000000E-01  8.50000000E-01  8.50000000E-01  8.50000000E-01
  8.50000000E-01  8.50000000E-01  7.20000000E-01  8.50000000E-01  7.90000000E-01
  8.50000000E-01  7.20000000E-01  8.50000000E-01  7.20000000E-01  8.50000000E-01
  8.50000000E-01  8.50000000E-01  8.50000000E-01  7.20000000E-01  8.50000000E-01
  7.90000000E-01  8.50000000E-01  7.20000000E-01  8.50000000E-01  7.20000000E-01
  8.50000000E-01  7.20000000E-01  8.50000000E-01  8.50000000E-01  8.50000000E-01
  7.20000000E-01  8.50000000E-01  8.50000000E-01  7.20000000E-01  8.50000000E-01
  8.50000000E-01  8.50000000E-01  7.20000000E-01  8.50000000E-01  7.90000000E-01
  8.50000000E-01  7.20000000E-01  8.50000000E-01  7.20000000E-01  8.50000000E-01
  8.50000000E-01  9.60000000E-01  7.20000000E-01  8.50000000E-01  7.90000000E-01
  8.50000000E-01  7.20000000E-01  8.50000000E-01  7.20000000E-01  8.50000000E-01
  8.50000000E-01  8.50000000E-01  8.50000000E-01  7.20000000E-01  8.50000000E-01
  7.90000000E-01  8.50000000E-01  7.20000000E-01  8.50000000E-01  7.20000000E-01
  8.50000000E-01  8.50000000E-01  7.20000000E-01  8.50000000E-01  7.20000000E-01
  8.50000000E-01  8.50000000E-01  8.50000000E-01  7.20000000E-01  8.50000000E-01
  8.50000000E-01  8.50000000E-01  7.20000000E-01  8.50000000E-01  7.90000000E-01
  8.50000000E-01  7.20000000E-01  8.50000000E-01  7.20000000E-01  8.50000000E-01
  8.50000000E-01  7.20000000E-01  7.20000000E-01  8.50000000E-01  7.20000000E-01
  8.50000000E-01  7.20000000E-01  8.50000000E-01  8.50000000E-01  7.20000000E-01
  8.50000000E-01  7.20000000E-01  8.50000000E-01  7.20000000E-01  8.50000000E-01
  7.90000000E-01  8.50000000E-01  7.20000000E-01  8.50000000E-01  7.20000000E-01
  8.50000000E-01  8.50000000E-01  7.20000000E-01  8.50000000E-01  8.50000000E-01
  7.20000000E-01  8.50000000E-01  7.90000000E-01  8.50000000E-01  8.50000000E-01
  7.20000000E-01  8.50000000E-01  7.90000000E-01  8.50000000E-01  7.20000000E-01
  8.50000000E-01  7.20000000E-01  8.50000000E-01  8.50000000E-01  7.20000000E-01
  8.50000000E-01  7.20000000E-01  8.50000000E-01  8.50000000E-01  8.50000000E-01
  7.20000000E-01  8.50000000E-01  8.50000000E-01  8.50000000E-01  7.20000000E-01
  8.50000000E-01  7.90000000E-01  8.50000000E-01  7.20000000E-01  8.50000000E-01
  7.20000000E-01  8.50000000E-01  8.50000000E-01  7.20000000E-01  8.50000000E-01
  8.50000000E-01  7.20000000E-01  8.50000000E-01  8.50000000E-01  8.50000000E-01
  7.20000000E-01  8.50000000E-01  8.50000000E-01  8.50000000E-01  8.50000000E-01
  7.90000000E-01  8.50000000E-01  7.20000000E-01  8.50000000E-01  7.20000000E-01
  8.50000000E-01  8.50000000E-01  7.20000000E-01  8.50000000E-01  7.90000000E-01
  8.50000000E-01  8.50000000E-01  7.20000000E-01  8.50000000E-01  7.90000000E-01
  8.50000000E-01  7.20000000E-01  8.50000000E-01  7.20000000E-01  8.50000000E-01
  8.50000000E-01  7.20000000E-01  7.20000000E-01  8.50000000E-01  7.20000000E-01
  8.50000000E-01  7.20000000E-01  8.50000000E-01  8.50000000E-01  7.20000000E-01
  8.50000000E-01  7.20000000E-01  8.50000000E-01  7.20000000E-01  8.50000000E-01
  7.90000000E-01  8.50000000E-01  7.20000000E-01  8.50000000E-01  7.20000000E-01
  8.50000000E-01  8.50000000E-01  9.60000000E-01  7.20000000E-01  8.50000000E-01
  7.90000000E-01  8.50000000E-01  7.20000000E-01  8.50000000E-01  7.20000000E-01
  8.50000000E-01  8.50000000E-01  7.20000000E-01  8.50000000E-01  7.90000000E-01
  8.50000000E-01  8.50000000E-01  7.20000000E-01  8.50000000E-01  8.50000000E-01
  7.90000000E-01  8.50000000E-01  8.50000000E-01  8.50000000E-01  7.20000000E-01
  8.50000000E-01  7.20000000E-01  8.50000000E-01  8.50000000E-01  7.20000000E-01
  7.20000000E-01  8.50000000E-01  7.20000000E-01  8.50000000E-01  7.20000000E-01
  8.50000000E-01  7.20000000E-01  8.50000000E-01  7.20000000E-01  8.50000000E-01
  7.20000000E-01  8.50000000E-01  7.90000000E-01  8.50000000E-01  7.20000000E-01
  8.50000000E-01  7.20000000E-01  8.50000000E-01  7.20000000E-01  8.50000000E-01
  8.50000000E-01  8.50000000E-01  7.20000000E-01  8.50000000E-01  8.50000000E-01
  8.50000000E-01  7.20000000E-01  8.50000000E-01  7.90000000E-01  8.50000000E-01
  7.20000000E-01  8.50000000E-01  7.20000000E-01  8.50000000E-01  8.50000000E-01
  7.20000000E-01  8.50000000E-01  7.90000000E-01  8.50000000E-01  8.50000000E-01
  7.20000000E-01  8.50000000E-01  7.90000000E-01  8.50000000E-01  7.20000000E-01
  8.50000000E-01  7.20000000E-01  8.50000000E-01  8.50000000E-01  7.20000000E-01
  8.50000000E-01  8.50000000E-01  7.20000000E-01  8.50000000E-01  7.90000000E-01
  8.50000000E-01  8.50000000E-01  7.20000000E-01  8.50000000E-01  7.90000000E-01
  8.50000000E-01  7.20000000E-01  8.50000000E-01  7.20000000E-01  8.50000000E-01
  8.50000000E-01  7.20000000E-01  7.90000000E-01  8.50000000E-01  7.20000000E-01
  8.50000000E-01  7.90000000E-01  8.50000000E-01  7.20000000E-01  8.50000000E-01
  7.20000000E-01  8.50000000E-01  7.90000000E-01  8.50000000E-01  7.20000000E-01
  8.50000000E-01  7.20000000E-01  8.50000000E-01  8.50000000E-01  7.20000000E-01
  8.50000000E-01  7.20000000E-01  8.50000000E-01  8.50000000E-01  8.50000000E-01
  7.20000000E-01  8.50000000E-01  8.50000000E-01  8.50000000E-01  7.20000000E-01
  8.50000000E-01  7.90000000E-01  8.50000000E-01  7.20000000E-01  8.50000000E-01
  7.20000000E-01  8.50000000E-01  8.50000000E-01  9.60000000E-01  7.20000000E-01
  8.50000000E-01  7.90000000E-01  8.50000000E-01  7.20000000E-01  8.50000000E-01
  8.50000000E-01  7.20000000E-01  8.50000000E-01  7.90000000E-01  8.50000000E-01
  7.20000000E-01  8.50000000E-01  7.20000000E-01  8.50000000E-01  8.50000000E-01
  8.50000000E-01  8.50000000E-01  7.20000000E-01  8.50000000E-01  7.90000000E-01
  8.50000000E-01  7.20000000E-01  8.50000000E-01  7.20000000E-01  8.50000000E-01
  8.50000000E-01  7.20000000E-01  7.90000000E-01  8.50000000E-01  7.20000000E-01
  8.50000000E-01  7.90000000E-01  8.50000000E-01  7.20000000E-01  8.50000000E-01
  7.20000000E-01  8.50000000E-01  7.90000000E-01  8.50000000E-01  7.20000000E-01
  8.50000000E-01  7.20000000E-01  8.50000000E-01  8.50000000E-01  7.20000000E-01
  8.50000000E-01  7.20000000E-01  8.50000000E-01  8.50000000E-01  8.50000000E-01
  7.20000000E-01  8.50000000E-01  8.50000000E-01  8.50000000E-01  7.20000000E-01
  8.50000000E-01  7.90000000E-01  8.50000000E-01  7.20000000E-01  8.50000000E-01
  7.20000000E-01  8.50000000E-01  7.20000000E-01  8.50000000E-01  8.50000000E-01
  8.50000000E-01  7.20000000E-01  8.50000000E-01  8.50000000E-01  8.50000000E-01
  7.20000000E-01  8.50000000E-01  7.90000000E-01  8.50000000E-01  7.20000000E-01
  8.50000000E-01  7.20000000E-01  8.50000000E-01  8.50000000E-01  7.20000000E-01
  8.50000000E-01  8.50000000E-01  7.20000000E-01  8.50000000E-01  8.50000000E-01
  8.50000000E-01  7.20000000E-01  8.50000000E-01  8.50000000E-01  8.50000000E-01
  8.50000000E-01  7.90000000E-01  8.50000000E-01  7.20000000E-01  8.50000000E-01
  7.20000000E-01  8.50000000E-01  8.50000000E-01  8.50000000E-01  7.20000000E-01
  8.50000000E-01  7.90000000E-01  8.50000000E-01  7.20000000E-01  8.50000000E-01
  7.20000000E-01  8.50000000E-01  8.50000000E-01  7.20000000E-01  8.50000000E-01
  7.20000000E-01  8.50000000E-01  8.50000000E-01  8.50000000E-01  7.20000000E-01
  8.50000000E-01  8.50000000E-01  8.50000000E-01  7.20000000E-01  8.50000000E-01
  7.90000000E-01  8.50000000E-01  7.20000000E-01  8.50000000E-01  7.20000000E-01
  8.50000000E-01  8.50000000E-01  7.20000000E-01  7.20000000E-01  8.50000000E-01
  7.20000000E-01  8.50000000E-01  7.20000000E-01  8.50000000E-01  8.50000000E-01
  7.20000000E-01  8.50000000E-01  7.20000000E-01  8.50000000E-01  7.20000000E-01
  8.50000000E-01  7.90000000E-01  8.50000000E-01  7.20000000E-01  8.50000000E-01
  7.20000000E-01  8.50000000E-01  8.50000000E-01  7.20000000E-01  8.50000000E-01
  7.20000000E-01  8.50000000E-01  8.50000000E-01  8.50000000E-01  7.20000000E-01
  8.50000000E-01  8.50000000E-01  8.50000000E-01  7.20000000E-01  8.50000000E-01
  7.90000000E-01  8.50000000E-01  7.20000000E-01  8.50000000E-01  7.20000000E-01
  8.50000000E-01  7.20000000E-01  8.50000000E-01  8.50000000E-01  8.50000000E-01
  7.20000000E-01  8.50000000E-01  8.50000000E-01  8.50000000E-01  7.20000000E-01
  8.50000000E-01  7.90000000E-01  8.50000000E-01  7.20000000E-01  8.50000000E-01
  7.20000000E-01  8.50000000E-01  8.50000000E-01  9.60000000E-01  7.20000000E-01
  8.50000000E-01  7.90000000E-01  8.50000000E-01  7.20000000E-01  8.50000000E-01
  8.50000000E-01  7.20000000E-01  8.50000000E-01  7.90000000E-01  8.50000000E-01
  7.20000000E-01  8.50000000E-01  7.20000000E-01  8.50000000E-01  8.50000000E-01
  7.20000000E-01  8.50000000E-01  8.50000000E-01  7.20000000E-01  8.50000000E-01
  8.50000000E-01  8.50000000E-01  7.20000000E-01  8.50000000E-01  8.50000000E-01
  8.50000000E-01  8.50000000E-01  7.90000000E-01  8.50000000E-01  7.20000000E-01
  8.50000000E-01  7.20000000E-01  8.50000000E-01  8.50000000E-01  7.20000000E-01
  8.50000000E-01  8.50000000E-01  7.20000000E-01  8.50000000E-01  8.50000000E-01
  7.90000000E-01  8.50000000E-01  7.20000000E-01  7.90000000E-01  8.50000000E-01
  8.50000000E-01  7.90000000E-01  8.50000000E-01  8.50000000E-01  7.20000000E-01
  8.50000000E-01  7.90000000E-01  8.50000000E-01  7.20000000E-01  8.50000000E-01
  8.50000000E-01  7.20000000E-01  8.50000000E-01  7.90000000E-01  8.50000000E-01
  7.20000000E-01  8.50000000E-01  7.20000000E-01  8.50000000E-01  8.50000000E-01
  7.20000000E-01  7.20000000E-01  8.50000000E-01  7.20000000E-01  8.50000000E-01
  7.20000000E-01  8.50000000E-01  7.20000000E-01  8.50000000E-01  7.20000000E-01
  8.50000000E-01  7.20000000E-01  8.50000000E-01  7.90000000E-01  8.50000000E-01
  7.20000000E-01  8.50000000E-01  7.20000000E-01  8.50000000E-01  8.50000000E-01
  7.20000000E-01  7.20000000E-01  8.50000000E-01  7.20000000E-01  8.50000000E-01
  7.20000000E-01  8.50000000E-01  7.20000000E-01  8.50000000E-01  7.20000000E-01
  8.50000000E-01  7.20000000E-01  8.50000000E-01  7.90000000E-01  8.50000000E-01
  7.20000000E-01  8.50000000E-01  7.20000000E-01  8.50000000E-01  8.50000000E-01
  7.20000000E-01  7.20000000E-01  8.50000000E-01  7.20000000E-01  8.50000000E-01
  7.20000000E-01  8.50000000E-01  8.50000000E-01  7.20000000E-01  8.50000000E-01
  7.20000000E-01  8.50000000E-01  7.20000000E-01  8.50000000E-01  7.90000000E-01
  8.50000000E-01  7.20000000E-01  8.50000000E-01  7.20000000E-01  8.50000000E-01
  7.20000000E-01  8.50000000E-01  8.50000000E-01  8.50000000E-01  8.50000000E-01
  8.50000000E-01  7.20000000E-01  8.50000000E-01  7.90000000E-01  7.20000000E-01
  8.50000000E-01  8.50000000E-01  7.20000000E-01  8.50000000E-01  8.50000000E-01
  7.20000000E-01  8.50000000E-01  8.50000000E-01  7.20000000E-01  8.50000000E-01
  7.20000000E-01  8.50000000E-01  7.90000000E-01  8.50000000E-01  7.20000000E-01
  8.50000000E-01  7.20000000E-01  8.50000000E-01  8.50000000E-01  7.20000000E-01
  8.50000000E-01  8.50000000E-01  7.20000000E-01  8.50000000E-01  8.50000000E-01
  7.20000000E-01  8.50000000E-01  8.50000000E-01  7.90000000E-01  8.50000000E-01
  8.50000000E-01  8.50000000E-01  7.20000000E-01  8.50000000E-01  7.90000000E-01
  8.50000000E-01  7.20000000E-01  8.50000000E-01  7.20000000E-01  8.50000000E-01
  8.50000000E-01  8.50000000E-01  7.20000000E-01  8.50000000E-01  8.50000000E-01
  8.50000000E-01  8.50000000E-01  8.50000000E-01  8.50000000E-01  8.50000000E-01
  8.50000000E-01  8.50000000E-01  8.50000000E-01  8.50000000E-01  8.50000000E-01
  8.50000000E-01  8.50000000E-01  8.50000000E-01  8.50000000E-01  8.50000000E-01
  8.50000000E-01  8.50000000E-01  8.50000000E-01  8.50000000E-01  8.50000000E-01
  8.50000000E-01  8.50000000E-01  8.50000000E-01  8.50000000E-01  8.50000000E-01
  8.50000000E-01  8.50000000E-01  8.50000000E-01  8.50000000E-01  8.50000000E-01
  8.50000000E-01  8.50000000E-01  8.50000000E-01  8.50000000E-01  8.50000000E-01
  8.50000000E-01  8.50000000E-01  8.50000000E-01  8.50000000E-01  8.50000000E-01
  8.50000000E-01  8.50000000E-01  8.50000000E-01  8.50000000E-01  8.50000000E-01
  8.50000000E-01  8.50000000E-01  8.50000000E-01  8.50000000E-01  8.50000000E-01
  8.50000000E-01  8.50000000E-01  8.50000000E-01  8.50000000E-01  8.50000000E-01
  8.50000000E-01  8.50000000E-01  8.50000000E-01  8.50000000E-01  8.50000000E-01
  8.50000000E-01  8.50000000E-01  8.50000000E-01  8.50000000E-01  8.50000000E-01
  8.50000000E-01  8.50000000E-01  8.50000000E-01  8.50000000E-01  8.50000000E-01
  8.50000000E-01  8.50000000E-01  8.50000000E-01  8.50000000E-01  8.50000000E-01
  8.50000000E-01  8.50000000E-01  8.50000000E-01  8.50000000E-01  8.50000000E-01
  8.50000000E-01  8.50000000E-01  8.50000000E-01  8.50000000E-01  8.50000000E-01
  8.50000000E-01  8.50000000E-01  8.50000000E-01  8.50000000E-01  8.50000000E-01
  8.50000000E-01  8.50000000E-01  8.50000000E-01  8.50000000E-01  8.50000000E-01
  8.50000000E-01  8.50000000E-01  8.50000000E-01  8.50000000E-01  8.50000000E-01
  8.50000000E-01  8.50000000E-01  8.50000000E-01  8.50000000E-01  8.50000000E-01
  8.50000000E-01  8.50000000E-01  8.50000000E-01  8.50000000E-01  8.50000000E-01
  8.50000000E-01  8.50000000E-01  8.50000000E-01  8.50000000E-01  8.50000000E-01
  8.50000000E-01  8.50000000E-01  8.50000000E-01  8.50000000E-01  8.50000000E-01
  8.50000000E-01  8.50000000E-01  8.50000000E-01  8.50000000E-01  8.50000000E-01
  8.50000000E-01  8.50000000E-01  8.50000000E-01  8.50000000E-01  8.50000000E-01
  8.50000000E-01  8.50000000E-01  8.50000000E-01  8.50000000E-01  8.50000000E-01
  8.50000000E-01  8.50000000E-01  8.50000000E-01  8.50000000E-01  8.50000000E-01
  8.50000000E-01  8.50000000E-01  8.50000000E-01  8.50000000E-01  8.50000000E-01
  8.50000000E-01  8.50000000E-01  8.50000000E-01  8.50000000E-01  8.50000000E-01
  8.50000000E-01  8.50000000E-01  8.50000000E-01  8.50000000E-01  8.50000000E-01
  8.50000000E-01  8.50000000E-01  8.50000000E-01  8.50000000E-01  8.50000000E-01
  8.50000000E-01  8.50000000E-01  8.50000000E-01  8.50000000E-01  8.50000000E-01
  8.50000000E-01  8.50000000E-01  8.50000000E-01  8.50000000E-01  8.50000000E-01
  8.50000000E-01  8.50000000E-01  8.50000000E-01  8.50000000E-01  8.50000000E-01
  8.50000000E-01  8.50000000E-01  8.50000000E-01  8.50000000E-01  8.50000000E-01
  8.50000000E-01  8.50000000E-01  8.50000000E-01  8.50000000E-01  8.50000000E-01
  8.50000000E-01  8.50000000E-01  8.50000000E-01  8.50000000E-01  8.50000000E-01
  8.50000000E-01  8.50000000E-01  8.50000000E-01  8.50000000E-01  8.50000000E-01
  8.50000000E-01  8.50000000E-01  8.50000000E-01  8.50000000E-01  8.50000000E-01
  8.50000000E-01  8.50000000E-01  8.50000000E-01  8.50000000E-01  8.50000000E-01
  8.50000000E-01  8.50000000E-01  8.50000000E-01  8.50000000E-01  8.50000000E-01
  8.50000000E-01  8.50000000E-01  8.50000000E-01  8.50000000E-01  8.50000000E-01
  8.50000000E-01  8.50000000E-01  8.50000000E-01  8.50000000E-01  8.50000000E-01
  8.50000000E-01  8.50000000E-01  8.50000000E-01  8.50000000E-01  8.50000000E-01
  8.50000000E-01  8.50000000E-01  8.50000000E-01  8.50000000E-01  8.50000000E-01
  8.50000000E-01  8.50000000E-01  8.50000000E-01  8.50000000E-01  8.50000000E-01
  8.50000000E-01  8.50000000E-01  8.50000000E-01  8.50000000E-01  8.50000000E-01
  8.50000000E-01  8.50000000E-01  8.50000000E-01  8.50000000E-01  8.50000000E-01
  8.50000000E-01  8.50000000E-01  8.50000000E-01  8.50000000E-01  8.50000000E-01
  8.50000000E-01  8.50000000E-01  8.50000000E-01  8.50000000E-01  8.50000000E-01
  8.50000000E-01  8.50000000E-01  8.50000000E-01  8.50000000E-01  8.50000000E-01
  8.50000000E-01  8.50000000E-01  8.50000000E-01  8.50000000E-01  8.50000000E-01
  8.50000000E-01  8.50000000E-01  8.50000000E-01  8.50000000E-01  8.50000000E-01
  8.50000000E-01  8.50000000E-01  8.50000000E-01  8.50000000E-01  8.50000000E-01
  8.50000000E-01  8.50000000E-01  8.50000000E-01  8.50000000E-01  8.50000000E-01
  8.50000000E-01  8.50000000E-01  8.50000000E-01  8.50000000E-01  8.50000000E-01
  8.50000000E-01  8.50000000E-01  8.50000000E-01  8.50000000E-01  8.50000000E-01
  8.50000000E-01  8.50000000E-01  8.50000000E-01  8.50000000E-01  8.50000000E-01
  8.50000000E-01  8.50000000E-01  8.50000000E-01  8.50000000E-01  8.50000000E-01
  8.50000000E-01  8.50000000E-01  8.50000000E-01  8.50000000E-01  8.50000000E-01
  8.50000000E-01  8.50000000E-01  8.50000000E-01  8.50000000E-01  8.50000000E-01
  8.50000000E-01  8.50000000E-01  8.50000000E-01  8.50000000E-01  8.50000000E-01
  8.50000000E-01  8.50000000E-01  8.50000000E-01  8.50000000E-01  8.50000000E-01
  8.50000000E-01  8.50000000E-01  8.50000000E-01  8.50000000E-01  8.50000000E-01
  8.50000000E-01  8.50000000E-01  8.50000000E-01  8.50000000E-01  8.50000000E-01
  8.50000000E-01  8.50000000E-01  8.50000000E-01  8.50000000E-01  8.50000000E-01
  8.50000000E-01  8.50000000E-01  8.50000000E-01  8.50000000E-01  8.50000000E-01
  8.50000000E-01  8.50000000E-01  8.50000000E-01  8.50000000E-01  8.50000000E-01
  8.50000000E-01  8.50000000E-01  8.50000000E-01  8.50000000E-01  8.50000000E-01
  8.50000000E-01  8.50000000E-01  8.50000000E-01  8.50000000E-01  8.50000000E-01
  8.50000000E-01  8.50000000E-01  8.50000000E-01  8.50000000E-01  8.50000000E-01
  8.50000000E-01  8.50000000E-01  8.50000000E-01  8.50000000E-01  8.50000000E-01
  8.50000000E-01  8.50000000E-01  8.50000000E-01  8.50000000E-01  8.50000000E-01
  8.50000000E-01  8.50000000E-01  8.50000000E-01  8.50000000E-01  8.50000000E-01
  8.50000000E-01  8.50000000E-01  8.50000000E-01  8.50000000E-01  8.50000000E-01
  8.50000000E-01  8.50000000E-01  8.50000000E-01  8.50000000E-01  8.50000000E-01
  8.50000000E-01  8.50000000E-01  8.50000000E-01  8.50000000E-01  8.50000000E-01
  8.50000000E-01  8.50000000E-01  8.50000000E-01  8.50000000E-01  8.50000000E-01
  8.50000000E-01  8.50000000E-01  8.50000000E-01  8.50000000E-01  8.50000000E-01
  8.50000000E-01  8.50000000E-01  8.50000000E-01  8.50000000E-01  8.50000000E-01
  8.50000000E-01  8.50000000E-01  8.50000000E-01  8.50000000E-01  8.50000000E-01
  8.50000000E-01  8.50000000E-01  8.50000000E-01  8.50000000E-01  8.50000000E-01
  8.50000000E-01  8.50000000E-01  8.50000000E-01  8.50000000E-01  8.50000000E-01
  8.50000000E-01  8.50000000E-01  8.50000000E-01  8.50000000E-01  8.50000000E-01
  8.50000000E-01  8.50000000E-01  8.50000000E-01  8.50000000E-01  8.50000000E-01
  8.50000000E-01  8.50000000E-01  8.50000000E-01  8.50000000E-01  8.50000000E-01
  8.50000000E-01  8.50000000E-01  8.50000000E-01  8.50000000E-01  8.50000000E-01
  8.50000000E-01  8.50000000E-01  8.50000000E-01  8.50000000E-01  8.50000000E-01
  8.50000000E-01  8.50000000E-01  8.50000000E-01  8.50000000E-01  8.50000000E-01
  8.50000000E-01  8.50000000E-01  8.50000000E-01  8.50000000E-01  8.50000000E-01
  8.50000000E-01  8.50000000E-01  8.50000000E-01  8.50000000E-01  8.50000000E-01
  8.50000000E-01  8.50000000E-01  8.50000000E-01  8.50000000E-01  8.50000000E-01
  8.50000000E-01  8.50000000E-01  8.50000000E-01  8.50000000E-01  8.50000000E-01
  8.50000000E-01  8.50000000E-01  8.50000000E-01  8.50000000E-01  8.50000000E-01
  8.50000000E-01  8.50000000E-01  8.50000000E-01  8.50000000E-01  8.50000000E-01
  8.50000000E-01  8.50000000E-01  8.50000000E-01  8.50000000E-01  8.50000000E-01
  8.50000000E-01  8.50000000E-01  8.50000000E-01  8.50000000E-01  8.50000000E-01
  8.50000000E-01  8.50000000E-01  8.50000000E-01  8.50000000E-01  8.50000000E-01
  8.50000000E-01  8.50000000E-01  8.50000000E-01  8.50000000E-01  8.50000000E-01
  8.50000000E-01  8.50000000E-01  8.50000000E-01  8.50000000E-01  8.50000000E-01
  8.50000000E-01  8.50000000E-01  8.50000000E-01  8.50000000E-01  8.50000000E-01
  8.50000000E-01  8.50000000E-01  8.50000000E-01  8.50000000E-01  8.50000000E-01
  8.50000000E-01  8.50000000E-01  8.50000000E-01  8.50000000E-01  8.50000000E-01
  8.50000000E-01  8.50000000E-01  8.50000000E-01  8.50000000E-01  8.50000000E-01
  8.50000000E-01  8.50000000E-01  8.50000000E-01  8.50000000E-01  8.50000000E-01
  8.50000000E-01  8.50000000E-01  8.50000000E-01  8.50000000E-01  8.50000000E-01
  8.50000000E-01  8.50000000E-01  8.50000000E-01  8.50000000E-01  8.50000000E-01
  8.50000000E-01  8.50000000E-01  8.50000000E-01  8.50000000E-01  8.50000000E-01
  8.50000000E-01  8.50000000E-01  8.50000000E-01  8.50000000E-01  8.50000000E-01
  8.50000000E-01  8.50000000E-01  8.50000000E-01  8.50000000E-01  8.50000000E-01
  8.50000000E-01  8.50000000E-01  8.50000000E-01  8.50000000E-01  8.50000000E-01
  8.50000000E-01  8.50000000E-01  8.50000000E-01  8.50000000E-01  8.50000000E-01
  8.50000000E-01  8.50000000E-01  8.50000000E-01  8.50000000E-01  8.50000000E-01
  8.50000000E-01  8.50000000E-01  8.50000000E-01  8.50000000E-01  8.50000000E-01
  8.50000000E-01  8.50000000E-01  8.50000000E-01  8.50000000E-01  8.50000000E-01
  8.50000000E-01  8.50000000E-01  8.50000000E-01  8.50000000E-01  8.50000000E-01
  8.50000000E-01  8.50000000E-01  8.50000000E-01  8.50000000E-01  8.50000000E-01
  8.50000000E-01  8.50000000E-01  8.50000000E-01  8.50000000E-01  8.50000000E-01
  8.50000000E-01  8.50000000E-01  8.50000000E-01  8.50000000E-01  8.50000000E-01
  8.50000000E-01  8.50000000E-01  8.50000000E-01  8.50000000E-01  8.50000000E-01
  8.50000000E-01  8.50000000E-01  8.50000000E-01  8.50000000E-01  8.50000000E-01
  8.50000000E-01  8.50000000E-01  8.50000000E-01  8.50000000E-01  8.50000000E-01
  8.50000000E-01  8.50000000E-01  8.50000000E-01  8.50000000E-01  8.50000000E-01
  8.50000000E-01  8.50000000E-01  8.50000000E-01  8.50000000E-01  8.50000000E-01
  8.50000000E-01  8.50000000E-01  8.50000000E-01  8.50000000E-01  8.50000000E-01
  8.50000000E-01  8.50000000E-01  8.50000000E-01  8.50000000E-01  8.50000000E-01
  8.50000000E-01  8.50000000E-01  8.50000000E-01  8.50000000E-01  8.50000000E-01
  8.50000000E-01  8.50000000E-01  8.50000000E-01  8.50000000E-01  8.50000000E-01
  8.50000000E-01  8.50000000E-01  8.50000000E-01  8.50000000E-01  8.50000000E-01
  8.50000000E-01  8.50000000E-01  8.50000000E-01  8.50000000E-01  8.50000000E-01
  8.50000000E-01  8.50000000E-01  8.50000000E-01  8.50000000E-01  8.50000000E-01
  8.50000000E-01  8.50000000E-01  8.50000000E-01  8.50000000E-01  8.50000000E-01
  8.50000000E-01  8.50000000E-01  8.50000000E-01  8.50000000E-01  8.50000000E-01
  8.50000000E-01  8.50000000E-01  8.50000000E-01  8.50000000E-01  8.50000000E-01
  8.50000000E-01  8.50000000E-01  8.50000000E-01  8.50000000E-01  8.50000000E-01
  8.50000000E-01  8.50000000E-01  8.50000000E-01  8.50000000E-01  8.50000000E-01
  8.50000000E-01  8.50000000E-01  8.50000000E-01  8.50000000E-01  8.50000000E-01
  8.50000000E-01  8.50000000E-01  8.50000000E-01  8.50000000E-01  8.50000000E-01
  8.50000000E-01  8.50000000E-01  8.50000000E-01  8.50000000E-01  8.50000000E-01
  8.50000000E-01  8.50000000E-01  8.50000000E-01  8.50000000E-01  8.50000000E-01
  8.50000000E-01  8.50000000E-01  8.50000000E-01  8.50000000E-01  8.50000000E-01
  8.50000000E-01  8.50000000E-01  8.50000000E-01  8.50000000E-01  8.50000000E-01
  8.50000000E-01  8.50000000E-01  8.50000000E-01  8.50000000E-01  8.50000000E-01
  8.50000000E-01  8.50000000E-01  8.50000000E-01  8.50000000E-01  8.50000000E-01
  8.50000000E-01  8.50000000E-01  8.50000000E-01  8.50000000E-01  8.50000000E-01
  8.50000000E-01  8.50000000E-01  8.50000000E-01  8.50000000E-01  8.50000000E-01
  8.50000000E-01  8.50000000E-01  8.50000000E-01  8.50000000E-01  8.50000000E-01
  8.50000000E-01  8.50000000E-01  8.50000000E-01  8.50000000E-01  8.50000000E-01
  8.50000000E-01  8.50000000E-01  8.50000000E-01  8.50000000E-01  8.50000000E-01
  8.50000000E-01  8.50000000E-01  8.50000000E-01  8.50000000E-01  8.50000000E-01
  8.50000000E-01  8.50000000E-01  8.50000000E-01  8.50000000E-01  8.50000000E-01
  8.50000000E-01  8.50000000E-01  8.50000000E-01  8.50000000E-01  8.50000000E-01
  8.50000000E-01  8.50000000E-01  8.50000000E-01  8.50000000E-01  8.50000000E-01
  8.50000000E-01  8.50000000E-01  8.50000000E-01  8.50000000E-01  8.50000000E-01
  8.50000000E-01  8.50000000E-01  8.50000000E-01  8.50000000E-01  8.50000000E-01
  8.50000000E-01  8.50000000E-01  8.50000000E-01  8.50000000E-01  8.50000000E-01
  8.50000000E-01  8.50000000E-01  8.50000000E-01  8.50000000E-01  8.50000000E-01
  8.50000000E-01  8.50000000E-01  8.50000000E-01  8.50000000E-01  8.50000000E-01
  8.50000000E-01  8.50000000E-01  8.50000000E-01  8.50000000E-01  8.50000000E-01
  8.50000000E-01  8.50000000E-01  8.50000000E-01  8.50000000E-01  8.50000000E-01
  8.50000000E-01  8.50000000E-01  8.50000000E-01  8.50000000E-01  8.50000000E-01
  8.50000000E-01  8.50000000E-01  8.50000000E-01  8.50000000E-01  8.50000000E-01
  8.50000000E-01  8.50000000E-01  8.50000000E-01  8.50000000E-01  8.50000000E-01
  8.50000000E-01  8.50000000E-01  8.50000000E-01  8.50000000E-01  8.50000000E-01
  8.50000000E-01  8.50000000E-01  8.50000000E-01  8.50000000E-01  8.50000000E-01
  8.50000000E-01  8.50000000E-01  8.50000000E-01  8.50000000E-01  8.50000000E-01
  8.50000000E-01  8.50000000E-01  8.50000000E-01  8.50000000E-01  8.50000000E-01
  8.50000000E-01  8.50000000E-01  8.50000000E-01  8.50000000E-01  8.50000000E-01
  8.50000000E-01  8.50000000E-01  8.50000000E-01  8.50000000E-01  8.50000000E-01
  8.50000000E-01  8.50000000E-01  8.50000000E-01  8.50000000E-01  8.50000000E-01
  8.50000000E-01  8.50000000E-01  8.50000000E-01  8.50000000E-01  8.50000000E-01
  8.50000000E-01  8.50000000E-01  8.50000000E-01  8.50000000E-01  8.50000000E-01
  8.50000000E-01  8.50000000E-01  8.50000000E-01  8.50000000E-01  8.50000000E-01
  8.50000000E-01  8.50000000E-01  8.50000000E-01  8.50000000E-01  8.50000000E-01
  8.50000000E-01  8.50000000E-01  8.50000000E-01  8.50000000E-01  8.50000000E-01
  8.50000000E-01  8.50000000E-01  8.50000000E-01  8.50000000E-01  8.50000000E-01
  8.50000000E-01  8.50000000E-01  8.50000000E-01  8.50000000E-01  8.50000000E-01
  8.50000000E-01  8.50000000E-01  8.50000000E-01  8.50000000E-01  8.50000000E-01
  8.50000000E-01  8.50000000E-01  8.50000000E-01  8.50000000E-01  8.50000000E-01
  8.50000000E-01  8.50000000E-01  8.50000000E-01  8.50000000E-01  8.50000000E-01
  8.50000000E-01  8.50000000E-01  8.50000000E-01  8.50000000E-01  8.50000000E-01
  8.50000000E-01  8.50000000E-01  8.50000000E-01  8.50000000E-01  8.50000000E-01
  8.50000000E-01  8.50000000E-01  8.50000000E-01  8.50000000E-01  8.50000000E-01
  8.50000000E-01  8.50000000E-01  8.50000000E-01  8.50000000E-01  8.50000000E-01
  8.50000000E-01  8.50000000E-01  8.50000000E-01  8.50000000E-01  8.50000000E-01
  8.50000000E-01  8.50000000E-01  8.50000000E-01  8.50000000E-01  8.50000000E-01
  8.50000000E-01  8.50000000E-01  8.50000000E-01  8.50000000E-01  8.50000000E-01
  8.50000000E-01  8.50000000E-01  8.50000000E-01  8.50000000E-01  8.50000000E-01
  8.50000000E-01  8.50000000E-01  8.50000000E-01  8.50000000E-01  8.50000000E-01
  8.50000000E-01  8.50000000E-01  8.50000000E-01  8.50000000E-01  8.50000000E-01
  8.50000000E-01  8.50000000E-01  8.50000000E-01  8.50000000E-01  8.50000000E-01
  8.50000000E-01  8.50000000E-01  8.50000000E-01  8.50000000E-01  8.50000000E-01
  8.50000000E-01  8.50000000E-01  8.50000000E-01  8.50000000E-01  8.50000000E-01
  8.50000000E-01  8.50000000E-01  8.50000000E-01  8.50000000E-01  8.50000000E-01
  8.50000000E-01  8.50000000E-01  8.50000000E-01  8.50000000E-01  8.50000000E-01
  8.50000000E-01  8.50000000E-01  8.50000000E-01  8.50000000E-01  8.50000000E-01
  8.50000000E-01  8.50000000E-01  8.50000000E-01  8.50000000E-01  8.50000000E-01
  8.50000000E-01  8.50000000E-01  8.50000000E-01  8.50000000E-01  8.50000000E-01
  8.50000000E-01  8.50000000E-01  8.50000000E-01  8.50000000E-01  8.50000000E-01
  8.50000000E-01  8.50000000E-01  8.50000000E-01  8.50000000E-01  8.50000000E-01
  8.50000000E-01  8.50000000E-01  8.50000000E-01  8.50000000E-01  8.50000000E-01
  8.50000000E-01  8.50000000E-01  8.50000000E-01  8.50000000E-01  8.50000000E-01
  8.50000000E-01  8.50000000E-01  8.50000000E-01  8.50000000E-01  8.50000000E-01
  8.50000000E-01  8.50000000E-01  8.50000000E-01  8.50000000E-01  8.50000000E-01
  8.50000000E-01  8.50000000E-01  8.50000000E-01  8.50000000E-01  8.50000000E-01
  8.50000000E-01  8.50000000E-01  8.50000000E-01  8.50000000E-01  8.50000000E-01
  8.50000000E-01  8.50000000E-01  8.50000000E-01  8.50000000E-01  8.50000000E-01
  8.50000000E-01  8.50000000E-01  8.50000000E-01  8.50000000E-01  8.50000000E-01
  8.50000000E-01  8.50000000E-01  8.50000000E-01  8.50000000E-01  8.50000000E-01
  8.50000000E-01  8.50000000E-01  8.50000000E-01  8.50000000E-01  8.50000000E-01
  8.50000000E-01  8.50000000E-01  8.50000000E-01  8.50000000E-01  8.50000000E-01
  8.50000000E-01  8.50000000E-01  8.50000000E-01  8.50000000E-01  8.50000000E-01
  8.50000000E-01  8.50000000E-01  8.50000000E-01  8.50000000E-01  8.50000000E-01
  8.50000000E-01  8.50000000E-01  8.50000000E-01  8.50000000E-01  8.50000000E-01
  8.50000000E-01  8.50000000E-01  8.50000000E-01  8.50000000E-01  8.50000000E-01
  8.50000000E-01  8.50000000E-01  8.50000000E-01  8.50000000E-01  8.50000000E-01
  8.50000000E-01  8.50000000E-01  8.50000000E-01  8.50000000E-01  8.50000000E-01
  8.50000000E-01  8.50000000E-01  8.50000000E-01  8.50000000E-01  8.50000000E-01
  8.50000000E-01  8.50000000E-01  8.50000000E-01  8.50000000E-01  8.50000000E-01
  8.50000000E-01  8.50000000E-01  8.50000000E-01  8.50000000E-01  8.50000000E-01
  8.50000000E-01  8.50000000E-01  8.50000000E-01  8.50000000E-01  8.50000000E-01
  8.50000000E-01  8.50000000E-01  8.50000000E-01  8.50000000E-01  8.50000000E-01
  8.50000000E-01  8.50000000E-01  8.50000000E-01  8.50000000E-01  8.50000000E-01
  8.50000000E-01  8.50000000E-01  8.50000000E-01  8.50000000E-01  8.50000000E-01
  8.50000000E-01  8.50000000E-01  8.50000000E-01  8.50000000E-01  8.50000000E-01
  8.50000000E-01  8.50000000E-01  8.50000000E-01  8.50000000E-01  8.50000000E-01
  8.50000000E-01  8.50000000E-01  8.50000000E-01  8.50000000E-01  8.50000000E-01
  8.50000000E-01  8.50000000E-01  8.50000000E-01  8.50000000E-01  8.50000000E-01
  8.50000000E-01  8.50000000E-01  8.50000000E-01  8.50000000E-01  8.50000000E-01
  8.50000000E-01  8.50000000E-01  8.50000000E-01  8.50000000E-01  8.50000000E-01
  8.50000000E-01  8.50000000E-01  8.50000000E-01  8.50000000E-01  8.50000000E-01
  8.50000000E-01  8.50000000E-01  8.50000000E-01  8.50000000E-01  8.50000000E-01
  8.50000000E-01  8.50000000E-01  8.50000000E-01  8.50000000E-01  8.50000000E-01
  8.50000000E-01  8.50000000E-01  8.50000000E-01  8.50000000E-01  8.50000000E-01
  8.50000000E-01  8.50000000E-01  8.50000000E-01  8.50000000E-01  8.50000000E-01
  8.50000000E-01  8.50000000E-01  8.50000000E-01  8.50000000E-01  8.50000000E-01
  8.50000000E-01  8.50000000E-01  8.50000000E-01  8.50000000E-01  8.50000000E-01
  8.50000000E-01  8.50000000E-01  8.50000000E-01  8.50000000E-01  8.50000000E-01
  8.50000000E-01  8.50000000E-01  8.50000000E-01  8.50000000E-01  8.50000000E-01
  8.50000000E-01  8.50000000E-01  8.50000000E-01  8.50000000E-01  8.50000000E-01
  8.50000000E-01  8.50000000E-01  8.50000000E-01  8.50000000E-01  8.50000000E-01
  8.50000000E-01  8.50000000E-01  8.50000000E-01  8.50000000E-01  8.50000000E-01
  8.50000000E-01  8.50000000E-01  8.50000000E-01  8.50000000E-01  8.50000000E-01
  8.50000000E-01  8.50000000E-01  8.50000000E-01  8.50000000E-01  8.50000000E-01
  8.50000000E-01  8.50000000E-01  8.50000000E-01  8.50000000E-01  8.50000000E-01
  8.50000000E-01  8.50000000E-01  8.50000000E-01  8.50000000E-01  8.50000000E-01
  8.50000000E-01  8.50000000E-01  8.50000000E-01  8.50000000E-01  8.50000000E-01
  8.50000000E-01  8.50000000E-01  8.50000000E-01  8.50000000E-01  8.50000000E-01
  8.50000000E-01  8.50000000E-01  8.50000000E-01  8.50000000E-01  8.50000000E-01
  8.50000000E-01  8.50000000E-01  8.50000000E-01  8.50000000E-01  8.50000000E-01
  8.50000000E-01  8.50000000E-01  8.50000000E-01  8.50000000E-01  8.50000000E-01
  8.50000000E-01  8.50000000E-01  8.50000000E-01  8.50000000E-01  8.50000000E-01
  8.50000000E-01  8.50000000E-01  8.50000000E-01  8.50000000E-01  8.50000000E-01
  8.50000000E-01  8.50000000E-01  8.50000000E-01  8.50000000E-01  8.50000000E-01
  8.50000000E-01  8.50000000E-01  8.50000000E-01  8.50000000E-01  8.50000000E-01
  8.50000000E-01  8.50000000E-01  8.50000000E-01  8.50000000E-01  8.50000000E-01
  8.50000000E-01  8.50000000E-01  8.50000000E-01  8.50000000E-01  8.50000000E-01
  8.50000000E-01  8.50000000E-01  8.50000000E-01  8.50000000E-01  8.50000000E-01
  8.50000000E-01  8.50000000E-01  8.50000000E-01  8.50000000E-01  8.50000000E-01
  8.50000000E-01  8.50000000E-01  8.50000000E-01  8.50000000E-01  8.50000000E-01
  8.50000000E-01  8.50000000E-01  8.50000000E-01  8.50000000E-01  8.50000000E-01
  8.50000000E-01  8.50000000E-01  8.50000000E-01  8.50000000E-01  8.50000000E-01
  8.50000000E-01  8.50000000E-01  8.50000000E-01  8.50000000E-01  8.50000000E-01
  8.50000000E-01  8.50000000E-01  8.50000000E-01  8.50000000E-01  8.50000000E-01
  8.50000000E-01  8.50000000E-01  8.50000000E-01  8.50000000E-01  8.50000000E-01
  8.50000000E-01  8.50000000E-01  8.50000000E-01  8.50000000E-01  8.50000000E-01
  8.50000000E-01  8.50000000E-01  8.50000000E-01  8.50000000E-01  8.50000000E-01
  8.50000000E-01  8.50000000E-01  8.50000000E-01  8.50000000E-01  8.50000000E-01
  8.50000000E-01  8.50000000E-01  8.50000000E-01  8.50000000E-01  8.50000000E-01
  8.50000000E-01  8.50000000E-01  8.50000000E-01  8.50000000E-01  8.50000000E-01
  8.50000000E-01  8.50000000E-01  8.50000000E-01  8.50000000E-01  8.50000000E-01
  8.50000000E-01  8.50000000E-01  8.50000000E-01  8.50000000E-01  8.50000000E-01
  8.50000000E-01  8.50000000E-01  8.50000000E-01  8.50000000E-01  8.50000000E-01
  8.50000000E-01  8.50000000E-01  8.50000000E-01  8.50000000E-01  8.50000000E-01
  8.50000000E-01  8.50000000E-01  8.50000000E-01  8.50000000E-01  8.50000000E-01
  8.50000000E-01  8.50000000E-01  8.50000000E-01  8.50000000E-01  8.50000000E-01
  8.50000000E-01  8.50000000E-01  8.50000000E-01  8.50000000E-01  8.50000000E-01
  8.50000000E-01  8.50000000E-01  8.50000000E-01  8.50000000E-01  8.50000000E-01
  8.50000000E-01  8.50000000E-01  8.50000000E-01  8.50000000E-01  8.50000000E-01
  8.50000000E-01  8.50000000E-01  8.50000000E-01  8.50000000E-01  8.50000000E-01
  8.50000000E-01  8.50000000E-01  8.50000000E-01  8.50000000E-01  8.50000000E-01
  8.50000000E-01  8.50000000E-01  8.50000000E-01  8.50000000E-01  8.50000000E-01
  8.50000000E-01  8.50000000E-01  8.50000000E-01  8.50000000E-01  8.50000000E-01
  8.50000000E-01  8.50000000E-01  8.50000000E-01  8.50000000E-01  8.50000000E-01
  8.50000000E-01  8.50000000E-01  8.50000000E-01  8.50000000E-01  8.50000000E-01
  8.50000000E-01  8.50000000E-01  8.50000000E-01  8.50000000E-01  8.50000000E-01
  8.50000000E-01  8.50000000E-01  8.50000000E-01  8.50000000E-01  8.50000000E-01
  8.50000000E-01  8.50000000E-01  8.50000000E-01  8.50000000E-01  8.50000000E-01
  8.50000000E-01  8.50000000E-01  8.50000000E-01  8.50000000E-01  8.50000000E-01
  8.50000000E-01  8.50000000E-01  8.50000000E-01  8.50000000E-01  8.50000000E-01
  8.50000000E-01  8.50000000E-01  8.50000000E-01  8.50000000E-01  8.50000000E-01
  8.50000000E-01  8.50000000E-01  8.50000000E-01  8.50000000E-01  8.50000000E-01
  8.50000000E-01  8.50000000E-01  8.50000000E-01  8.50000000E-01  8.50000000E-01
  8.50000000E-01  8.50000000E-01  8.50000000E-01  8.50000000E-01  8.50000000E-01
  8.50000000E-01  8.50000000E-01  8.50000000E-01  8.50000000E-01  8.50000000E-01
  8.50000000E-01  8.50000000E-01  8.50000000E-01  8.50000000E-01  8.50000000E-01
  8.50000000E-01  8.50000000E-01  8.50000000E-01  8.50000000E-01  8.50000000E-01
  8.50000000E-01  8.50000000E-01  8.50000000E-01  8.50000000E-01  8.50000000E-01
  8.50000000E-01  8.50000000E-01  8.50000000E-01  8.50000000E-01  8.50000000E-01
  8.50000000E-01  8.50000000E-01  8.50000000E-01  8.50000000E-01  8.50000000E-01
  8.50000000E-01  8.50000000E-01  8.50000000E-01  8.50000000E-01  8.50000000E-01
  8.50000000E-01  8.50000000E-01  8.50000000E-01  8.50000000E-01  8.50000000E-01
  8.50000000E-01  8.50000000E-01  8.50000000E-01  8.50000000E-01  8.50000000E-01
  8.50000000E-01  8.50000000E-01  8.50000000E-01  8.50000000E-01  8.50000000E-01
  8.50000000E-01  8.50000000E-01  8.50000000E-01  8.50000000E-01  8.50000000E-01
  8.50000000E-01  8.50000000E-01  8.50000000E-01  8.50000000E-01  8.50000000E-01
  8.50000000E-01  8.50000000E-01  8.50000000E-01  8.50000000E-01  8.50000000E-01
  8.50000000E-01  8.50000000E-01  8.50000000E-01  8.50000000E-01  8.50000000E-01
  8.50000000E-01  8.50000000E-01  8.50000000E-01  8.50000000E-01  8.50000000E-01
  8.50000000E-01  8.50000000E-01  8.50000000E-01  8.50000000E-01  8.50000000E-01
  8.50000000E-01  8.50000000E-01  8.50000000E-01  8.50000000E-01  8.50000000E-01
  8.50000000E-01  8.50000000E-01  8.50000000E-01  8.50000000E-01  8.50000000E-01
  8.50000000E-01  8.50000000E-01  8.50000000E-01  8.50000000E-01  8.50000000E-01
  8.50000000E-01  8.50000000E-01  8.50000000E-01  8.50000000E-01  8.50000000E-01
  8.50000000E-01  8.50000000E-01  8.50000000E-01  8.50000000E-01  8.50000000E-01
  8.50000000E-01  8.50000000E-01  8.50000000E-01  8.50000000E-01  8.50000000E-01
  8.50000000E-01  8.50000000E-01  8.50000000E-01  8.50000000E-01  8.50000000E-01
  8.50000000E-01  8.50000000E-01  8.50000000E-01  8.50000000E-01  8.50000000E-01
  8.50000000E-01  8.50000000E-01  8.50000000E-01  8.50000000E-01  8.50000000E-01
  8.50000000E-01  8.50000000E-01  8.50000000E-01  8.50000000E-01  8.50000000E-01
  8.50000000E-01  8.50000000E-01  8.50000000E-01  8.50000000E-01  8.50000000E-01
  8.50000000E-01  8.50000000E-01  8.50000000E-01  8.50000000E-01  8.50000000E-01
  8.50000000E-01  8.50000000E-01  8.50000000E-01  8.50000000E-01  8.50000000E-01
  8.50000000E-01  8.50000000E-01  8.50000000E-01  8.50000000E-01  8.50000000E-01
  8.50000000E-01  8.50000000E-01  8.50000000E-01  8.50000000E-01  8.50000000E-01
  8.50000000E-01  8.50000000E-01  8.50000000E-01  8.50000000E-01  8.50000000E-01
  8.50000000E-01  8.50000000E-01  8.50000000E-01  8.50000000E-01  8.50000000E-01
  8.50000000E-01  8.50000000E-01  8.50000000E-01  8.50000000E-01  8.50000000E-01
  8.50000000E-01  8.50000000E-01  8.50000000E-01  8.50000000E-01  8.50000000E-01
  8.50000000E-01  8.50000000E-01  8.50000000E-01  8.50000000E-01  8.50000000E-01
  8.50000000E-01  8.50000000E-01  8.50000000E-01  8.50000000E-01  8.50000000E-01
  8.50000000E-01  8.50000000E-01  8.50000000E-01  8.50000000E-01  8.50000000E-01
  8.50000000E-01  8.50000000E-01  8.50000000E-01  8.50000000E-01  8.50000000E-01
  8.50000000E-01  8.50000000E-01  8.50000000E-01  8.50000000E-01  8.50000000E-01
  8.50000000E-01  8.50000000E-01  8.50000000E-01  8.50000000E-01  8.50000000E-01
  8.50000000E-01  8.50000000E-01  8.50000000E-01  8.50000000E-01  8.50000000E-01
  8.50000000E-01  8.50000000E-01  8.50000000E-01  8.50000000E-01  8.50000000E-01
  8.50000000E-01  8.50000000E-01  8.50000000E-01  8.50000000E-01  8.50000000E-01
  8.50000000E-01  8.50000000E-01  8.50000000E-01  8.50000000E-01  8.50000000E-01
  8.50000000E-01  8.50000000E-01  8.50000000E-01  8.50000000E-01  8.50000000E-01
  8.50000000E-01  8.50000000E-01  8.50000000E-01  8.50000000E-01  8.50000000E-01
  8.50000000E-01  8.50000000E-01  8.50000000E-01  8.50000000E-01  8.50000000E-01
  8.50000000E-01  8.50000000E-01  8.50000000E-01  8.50000000E-01  8.50000000E-01
  8.50000000E-01  8.50000000E-01  8.50000000E-01  8.50000000E-01  8.50000000E-01
  8.50000000E-01  8.50000000E-01  8.50000000E-01  8.50000000E-01  8.50000000E-01
  8.50000000E-01  8.50000000E-01  8.50000000E-01  8.50000000E-01  8.50000000E-01
  8.50000000E-01  8.50000000E-01  8.50000000E-01  8.50000000E-01  8.50000000E-01
  8.50000000E-01  8.50000000E-01  8.50000000E-01  8.50000000E-01  8.50000000E-01
  8.50000000E-01  8.50000000E-01  8.50000000E-01  8.50000000E-01  8.50000000E-01
  8.50000000E-01  8.50000000E-01  8.50000000E-01  8.50000000E-01  8.50000000E-01
  8.50000000E-01  8.50000000E-01  8.50000000E-01  8.50000000E-01  8.50000000E-01
  8.50000000E-01  8.50000000E-01  8.50000000E-01  8.50000000E-01  8.50000000E-01
  8.50000000E-01  8.50000000E-01  8.50000000E-01  8.50000000E-01  8.50000000E-01
  8.50000000E-01  8.50000000E-01  8.50000000E-01  8.50000000E-01  8.50000000E-01
  8.50000000E-01  8.50000000E-01  8.50000000E-01  8.50000000E-01  8.50000000E-01
  8.50000000E-01  8.50000000E-01  8.50000000E-01  8.50000000E-01  8.50000000E-01
  8.50000000E-01  8.50000000E-01  8.50000000E-01  8.50000000E-01  8.50000000E-01
  8.50000000E-01  8.50000000E-01  8.50000000E-01  8.50000000E-01  8.50000000E-01
  8.50000000E-01  8.50000000E-01  8.50000000E-01  8.50000000E-01  8.50000000E-01
  8.50000000E-01  8.50000000E-01  8.50000000E-01  8.50000000E-01  8.50000000E-01
  8.50000000E-01  8.50000000E-01  8.50000000E-01  8.50000000E-01  8.50000000E-01
  8.50000000E-01  8.50000000E-01  8.50000000E-01  8.50000000E-01  8.50000000E-01
  8.50000000E-01  8.50000000E-01  8.50000000E-01  8.50000000E-01  8.50000000E-01
  8.50000000E-01  8.50000000E-01  8.50000000E-01  8.50000000E-01  8.50000000E-01
  8.50000000E-01  8.50000000E-01  8.50000000E-01  8.50000000E-01  8.50000000E-01
  8.50000000E-01  8.50000000E-01  8.50000000E-01  8.50000000E-01  8.50000000E-01
  8.50000000E-01  8.50000000E-01  8.50000000E-01  8.50000000E-01  8.50000000E-01
  8.50000000E-01  8.50000000E-01  8.50000000E-01  8.50000000E-01  8.50000000E-01
  8.50000000E-01  8.50000000E-01  8.50000000E-01  8.50000000E-01  8.50000000E-01
  8.50000000E-01  8.50000000E-01  8.50000000E-01  8.50000000E-01  8.50000000E-01
  8.50000000E-01  8.50000000E-01  8.50000000E-01  8.50000000E-01  8.50000000E-01
  8.50000000E-01  8.50000000E-01  8.50000000E-01  8.50000000E-01  8.50000000E-01
  8.50000000E-01  8.50000000E-01  8.50000000E-01  8.50000000E-01  8.50000000E-01
  8.50000000E-01  8.50000000E-01  8.50000000E-01  8.50000000E-01  8.50000000E-01
  8.50000000E-01  8.50000000E-01  8.50000000E-01  8.50000000E-01  8.50000000E-01
  8.50000000E-01  8.50000000E-01  8.50000000E-01  8.50000000E-01  8.50000000E-01
  8.50000000E-01  8.50000000E-01  8.50000000E-01  8.50000000E-01  8.50000000E-01
  8.50000000E-01  8.50000000E-01  8.50000000E-01  8.50000000E-01  8.50000000E-01
  8.50000000E-01  8.50000000E-01  8.50000000E-01  8.50000000E-01  8.50000000E-01
  8.50000000E-01  8.50000000E-01  8.50000000E-01  8.50000000E-01  8.50000000E-01
  8.50000000E-01  8.50000000E-01  8.50000000E-01  8.50000000E-01  8.50000000E-01
  8.50000000E-01  8.50000000E-01  8.50000000E-01  8.50000000E-01  8.50000000E-01
  8.50000000E-01  8.50000000E-01  8.50000000E-01  8.50000000E-01  8.50000000E-01
  8.50000000E-01  8.50000000E-01  8.50000000E-01  8.50000000E-01  8.50000000E-01
  8.50000000E-01  8.50000000E-01  8.50000000E-01  8.50000000E-01  8.50000000E-01
  8.50000000E-01  8.50000000E-01  8.50000000E-01  8.50000000E-01  8.50000000E-01
  8.50000000E-01  8.50000000E-01  8.50000000E-01  8.50000000E-01  8.50000000E-01
  8.50000000E-01  8.50000000E-01  8.50000000E-01  8.50000000E-01  8.50000000E-01
  8.50000000E-01  8.50000000E-01  8.50000000E-01  8.50000000E-01  8.50000000E-01
  8.50000000E-01  8.50000000E-01  8.50000000E-01  8.50000000E-01  8.50000000E-01
  8.50000000E-01  8.50000000E-01  8.50000000E-01  8.50000000E-01  8.50000000E-01
  8.50000000E-01  8.50000000E-01  8.50000000E-01  8.50000000E-01  8.50000000E-01
  8.50000000E-01  8.50000000E-01  8.50000000E-01  8.50000000E-01  8.50000000E-01
  8.50000000E-01  8.50000000E-01  8.50000000E-01  8.50000000E-01  8.50000000E-01
  8.50000000E-01  8.50000000E-01  8.50000000E-01  8.50000000E-01  8.50000000E-01
  8.50000000E-01  8.50000000E-01  8.50000000E-01  8.50000000E-01  8.50000000E-01
  8.50000000E-01  8.50000000E-01  8.50000000E-01  8.50000000E-01  8.50000000E-01
  8.50000000E-01  8.50000000E-01  8.50000000E-01  8.50000000E-01  8.50000000E-01
  8.50000000E-01  8.50000000E-01  8.50000000E-01  8.50000000E-01  8.50000000E-01
  8.50000000E-01  8.50000000E-01  8.50000000E-01  8.50000000E-01  8.50000000E-01
  8.50000000E-01  8.50000000E-01  8.50000000E-01  8.50000000E-01  8.50000000E-01
  8.50000000E-01  8.50000000E-01  8.50000000E-01  8.50000000E-01  8.50000000E-01
  8.50000000E-01  8.50000000E-01  8.50000000E-01  8.50000000E-01  8.50000000E-01
  8.50000000E-01  8.50000000E-01  8.50000000E-01  8.50000000E-01  8.50000000E-01
  8.50000000E-01  8.50000000E-01  8.50000000E-01  8.50000000E-01  8.50000000E-01
  8.50000000E-01  8.50000000E-01  8.50000000E-01  8.50000000E-01  8.50000000E-01
  8.50000000E-01  8.50000000E-01  8.50000000E-01  8.50000000E-01  8.50000000E-01
  8.50000000E-01  8.50000000E-01  8.50000000E-01  8.50000000E-01  8.50000000E-01
  8.50000000E-01  8.50000000E-01  8.50000000E-01  8.50000000E-01  8.50000000E-01
  8.50000000E-01  8.50000000E-01  8.50000000E-01  8.50000000E-01  8.50000000E-01
  8.50000000E-01  8.50000000E-01  8.50000000E-01  8.50000000E-01  8.50000000E-01
  8.50000000E-01  8.50000000E-01  8.50000000E-01  8.50000000E-01  8.50000000E-01
  8.50000000E-01  8.50000000E-01  8.50000000E-01  8.50000000E-01  8.50000000E-01
  8.50000000E-01  8.50000000E-01  8.50000000E-01  8.50000000E-01  8.50000000E-01
  8.50000000E-01  8.50000000E-01  8.50000000E-01  8.50000000E-01  8.50000000E-01
  8.50000000E-01  8.50000000E-01  8.50000000E-01  8.50000000E-01  8.50000000E-01
  8.50000000E-01  8.50000000E-01  8.50000000E-01  8.50000000E-01  8.50000000E-01
  8.50000000E-01  8.50000000E-01  8.50000000E-01  8.50000000E-01  8.50000000E-01
  8.50000000E-01  8.50000000E-01  8.50000000E-01  8.50000000E-01  8.50000000E-01
  8.50000000E-01  8.50000000E-01  8.50000000E-01  8.50000000E-01  8.50000000E-01
  8.50000000E-01  8.50000000E-01  8.50000000E-01  8.50000000E-01  8.50000000E-01
  8.50000000E-01  8.50000000E-01  8.50000000E-01  8.50000000E-01  8.50000000E-01
  8.50000000E-01  8.50000000E-01  8.50000000E-01  8.50000000E-01  8.50000000E-01
  8.50000000E-01  8.50000000E-01  8.50000000E-01  8.50000000E-01  8.50000000E-01
  8.50000000E-01  8.50000000E-01  8.50000000E-01  8.50000000E-01  8.50000000E-01
  8.50000000E-01  8.50000000E-01  8.50000000E-01  8.50000000E-01  8.50000000E-01
  8.50000000E-01  8.50000000E-01  8.50000000E-01  8.50000000E-01  8.50000000E-01
  8.50000000E-01  8.50000000E-01  8.50000000E-01  8.50000000E-01  8.50000000E-01
  8.50000000E-01  8.50000000E-01  8.50000000E-01  8.50000000E-01  8.50000000E-01
  8.50000000E-01  8.50000000E-01  8.50000000E-01  8.50000000E-01  8.50000000E-01
  8.50000000E-01  8.50000000E-01  8.50000000E-01  8.50000000E-01  8.50000000E-01
  8.50000000E-01  8.50000000E-01  8.50000000E-01  8.50000000E-01  8.50000000E-01
  8.50000000E-01  8.50000000E-01  8.50000000E-01  8.50000000E-01  8.50000000E-01
  8.50000000E-01  8.50000000E-01  8.50000000E-01  8.50000000E-01  8.50000000E-01
  8.50000000E-01  8.50000000E-01  8.50000000E-01  8.50000000E-01  8.50000000E-01
  8.50000000E-01  8.50000000E-01  8.50000000E-01  8.50000000E-01  8.50000000E-01
  8.50000000E-01  8.50000000E-01  8.50000000E-01  8.50000000E-01  8.50000000E-01
  8.50000000E-01  8.50000000E-01  8.50000000E-01  8.50000000E-01  8.50000000E-01
  8.50000000E-01  8.50000000E-01  8.50000000E-01  8.50000000E-01  8.50000000E-01
  8.50000000E-01  8.50000000E-01  8.50000000E-01  8.50000000E-01  8.50000000E-01
  8.50000000E-01  8.50000000E-01  8.50000000E-01  8.50000000E-01  8.50000000E-01
  8.50000000E-01  8.50000000E-01  8.50000000E-01  8.50000000E-01  8.50000000E-01
  8.50000000E-01  8.50000000E-01  8.50000000E-01  8.50000000E-01  8.50000000E-01
  8.50000000E-01  8.50000000E-01  8.50000000E-01  8.50000000E-01  8.50000000E-01
  8.50000000E-01  8.50000000E-01  8.50000000E-01  8.50000000E-01  8.50000000E-01
  8.50000000E-01  8.50000000E-01  8.50000000E-01  8.50000000E-01  8.50000000E-01
  8.50000000E-01  8.50000000E-01  8.50000000E-01  8.50000000E-01  8.50000000E-01
  8.50000000E-01  8.50000000E-01  8.50000000E-01  8.50000000E-01  8.50000000E-01
  8.50000000E-01  8.50000000E-01  8.50000000E-01  8.50000000E-01  8.50000000E-01
  8.50000000E-01  8.50000000E-01  8.50000000E-01  8.50000000E-01  8.50000000E-01
  8.50000000E-01  8.50000000E-01  8.50000000E-01  8.50000000E-01  8.50000000E-01
  8.50000000E-01  8.50000000E-01  8.50000000E-01  8.50000000E-01  8.50000000E-01
  8.50000000E-01  8.50000000E-01  8.50000000E-01  8.50000000E-01  8.50000000E-01
  8.50000000E-01  8.50000000E-01  8.50000000E-01  8.50000000E-01  8.50000000E-01
  8.50000000E-01  8.50000000E-01  8.50000000E-01  8.50000000E-01  8.50000000E-01
  8.50000000E-01  8.50000000E-01  8.50000000E-01  8.50000000E-01  8.50000000E-01
  8.50000000E-01  8.50000000E-01  8.50000000E-01  8.50000000E-01  8.50000000E-01
  8.50000000E-01  8.50000000E-01  8.50000000E-01  8.50000000E-01  8.50000000E-01
  8.50000000E-01  8.50000000E-01  8.50000000E-01  8.50000000E-01  8.50000000E-01
  8.50000000E-01  8.50000000E-01  8.50000000E-01  8.50000000E-01  8.50000000E-01
  8.50000000E-01  8.50000000E-01  8.50000000E-01  8.50000000E-01  8.50000000E-01
  8.50000000E-01  8.50000000E-01  8.50000000E-01  8.50000000E-01  8.50000000E-01
  8.50000000E-01  8.50000000E-01  8.50000000E-01  8.50000000E-01  8.50000000E-01
  8.50000000E-01  8.50000000E-01  8.50000000E-01  8.50000000E-01  8.50000000E-01
  8.50000000E-01  8.50000000E-01  8.50000000E-01  8.50000000E-01  8.50000000E-01
  8.50000000E-01  8.50000000E-01  8.50000000E-01  8.50000000E-01  8.50000000E-01
  8.50000000E-01  8.50000000E-01  8.50000000E-01  8.50000000E-01  8.50000000E-01
  8.50000000E-01  8.50000000E-01  8.50000000E-01  8.50000000E-01  8.50000000E-01
  8.50000000E-01  8.50000000E-01  8.50000000E-01  8.50000000E-01  8.50000000E-01
  8.50000000E-01  8.50000000E-01  8.50000000E-01  8.50000000E-01  8.50000000E-01
  8.50000000E-01  8.50000000E-01  8.50000000E-01  8.50000000E-01  8.50000000E-01
  8.50000000E-01  8.50000000E-01  8.50000000E-01  8.50000000E-01  8.50000000E-01
  8.50000000E-01  8.50000000E-01  8.50000000E-01  8.50000000E-01  8.50000000E-01
  8.50000000E-01  8.50000000E-01  8.50000000E-01  8.50000000E-01  8.50000000E-01
  8.50000000E-01  8.50000000E-01  8.50000000E-01  8.50000000E-01  8.50000000E-01
  8.50000000E-01  8.50000000E-01  8.50000000E-01  8.50000000E-01  8.50000000E-01
  8.50000000E-01  8.50000000E-01  8.50000000E-01  8.50000000E-01  8.50000000E-01
  8.50000000E-01  8.50000000E-01  8.50000000E-01  8.50000000E-01  8.50000000E-01
  8.50000000E-01  8.50000000E-01  8.50000000E-01  8.50000000E-01  8.50000000E-01
  8.50000000E-01  8.50000000E-01  8.50000000E-01  8.50000000E-01  8.50000000E-01
  8.50000000E-01  8.50000000E-01  8.50000000E-01  8.50000000E-01  8.50000000E-01
  8.50000000E-01  8.50000000E-01  8.50000000E-01  8.50000000E-01  8.50000000E-01
  8.50000000E-01  8.50000000E-01  8.50000000E-01  8.50000000E-01  8.50000000E-01
  8.50000000E-01  8.50000000E-01  8.50000000E-01  8.50000000E-01  8.50000000E-01
  8.50000000E-01  8.50000000E-01  8.50000000E-01  8.50000000E-01  8.50000000E-01
  8.50000000E-01  8.50000000E-01  8.50000000E-01  8.50000000E-01  8.50000000E-01
  8.50000000E-01  8.50000000E-01  8.50000000E-01  8.50000000E-01  8.50000000E-01
  8.50000000E-01  8.50000000E-01  8.50000000E-01  8.50000000E-01  8.50000000E-01
  8.50000000E-01  8.50000000E-01  8.50000000E-01  8.50000000E-01  8.50000000E-01
  8.50000000E-01  8.50000000E-01  8.50000000E-01  8.50000000E-01  8.50000000E-01
  8.50000000E-01  8.50000000E-01  8.50000000E-01  8.50000000E-01  8.50000000E-01
  8.50000000E-01  8.50000000E-01  8.50000000E-01  8.50000000E-01  8.50000000E-01
  8.50000000E-01  8.50000000E-01  8.50000000E-01  8.50000000E-01  8.50000000E-01
  8.50000000E-01  8.50000000E-01  8.50000000E-01  8.50000000E-01  8.50000000E-01
  8.50000000E-01  8.50000000E-01  8.50000000E-01  8.50000000E-01  8.50000000E-01
  8.50000000E-01  8.50000000E-01  8.50000000E-01  8.50000000E-01  8.50000000E-01
  8.50000000E-01  8.50000000E-01  8.50000000E-01  8.50000000E-01  8.50000000E-01
  8.50000000E-01  8.50000000E-01  8.50000000E-01  8.50000000E-01  8.50000000E-01
  8.50000000E-01  8.50000000E-01  8.50000000E-01  8.50000000E-01  8.50000000E-01
  8.50000000E-01  8.50000000E-01  8.50000000E-01  8.50000000E-01  8.50000000E-01
  8.50000000E-01  8.50000000E-01  8.50000000E-01  8.50000000E-01  8.50000000E-01
  8.50000000E-01  8.50000000E-01  8.50000000E-01  8.50000000E-01  8.50000000E-01
  8.50000000E-01  8.50000000E-01  8.50000000E-01  8.50000000E-01  8.50000000E-01
  8.50000000E-01  8.50000000E-01  8.50000000E-01  8.50000000E-01  8.50000000E-01
  8.50000000E-01  8.50000000E-01  8.50000000E-01  8.50000000E-01  8.50000000E-01
  8.50000000E-01  8.50000000E-01  8.50000000E-01  8.50000000E-01  8.50000000E-01
  8.50000000E-01  8.50000000E-01  8.50000000E-01  8.50000000E-01  8.50000000E-01
  8.50000000E-01  8.50000000E-01  8.50000000E-01  8.50000000E-01  8.50000000E-01
  8.50000000E-01  8.50000000E-01  8.50000000E-01  8.50000000E-01  8.50000000E-01
  8.50000000E-01  8.50000000E-01  8.50000000E-01  8.50000000E-01  8.50000000E-01
  8.50000000E-01  8.50000000E-01  8.50000000E-01  8.50000000E-01  8.50000000E-01
  8.50000000E-01  8.50000000E-01  8.50000000E-01  8.50000000E-01  8.50000000E-01
  8.50000000E-01  8.50000000E-01  8.50000000E-01  8.50000000E-01  8.50000000E-01
  8.50000000E-01  8.50000000E-01  8.50000000E-01  8.50000000E-01  8.50000000E-01
  8.50000000E-01  8.50000000E-01  8.50000000E-01  8.50000000E-01  8.50000000E-01
  8.50000000E-01  8.50000000E-01  8.50000000E-01  8.50000000E-01  8.50000000E-01
  8.50000000E-01  8.50000000E-01  8.50000000E-01  8.50000000E-01  8.50000000E-01
  8.50000000E-01  8.50000000E-01  8.50000000E-01  8.50000000E-01  8.50000000E-01
  8.50000000E-01  8.50000000E-01  8.50000000E-01  8.50000000E-01  8.50000000E-01
  8.50000000E-01  8.50000000E-01  8.50000000E-01  8.50000000E-01  8.50000000E-01
  8.50000000E-01  8.50000000E-01  8.50000000E-01  8.50000000E-01  8.50000000E-01
  8.50000000E-01  8.50000000E-01  8.50000000E-01  8.50000000E-01  8.50000000E-01
  8.50000000E-01  8.50000000E-01  8.50000000E-01  8.50000000E-01  8.50000000E-01
  8.50000000E-01  8.50000000E-01  8.50000000E-01  8.50000000E-01  8.50000000E-01
  8.50000000E-01  8.50000000E-01  8.50000000E-01  8.50000000E-01  8.50000000E-01
  8.50000000E-01  8.50000000E-01  8.50000000E-01  8.50000000E-01  8.50000000E-01
  8.50000000E-01  8.50000000E-01  8.50000000E-01  8.50000000E-01  8.50000000E-01
  8.50000000E-01  8.50000000E-01  8.50000000E-01  8.50000000E-01  8.50000000E-01
  8.50000000E-01  8.50000000E-01  8.50000000E-01  8.50000000E-01  8.50000000E-01
  8.50000000E-01  8.50000000E-01  8.50000000E-01  8.50000000E-01  8.50000000E-01
  8.50000000E-01  8.50000000E-01  8.50000000E-01  8.50000000E-01  8.50000000E-01
  8.50000000E-01  8.50000000E-01  8.50000000E-01  8.50000000E-01  8.50000000E-01
  8.50000000E-01  8.50000000E-01  8.50000000E-01  8.50000000E-01  8.50000000E-01
  8.50000000E-01  8.50000000E-01  8.50000000E-01  8.50000000E-01  8.50000000E-01
  8.50000000E-01  8.50000000E-01  8.50000000E-01  8.50000000E-01  8.50000000E-01
  8.50000000E-01  8.50000000E-01  8.50000000E-01  8.50000000E-01  8.50000000E-01
  8.50000000E-01  8.50000000E-01  8.50000000E-01  8.50000000E-01  8.50000000E-01
  8.50000000E-01  8.50000000E-01  8.50000000E-01  8.50000000E-01  8.50000000E-01
  8.50000000E-01  8.50000000E-01  8.50000000E-01  8.50000000E-01  8.50000000E-01
  8.50000000E-01  8.50000000E-01  8.50000000E-01  8.50000000E-01  8.50000000E-01
  8.50000000E-01  8.50000000E-01  8.50000000E-01  8.50000000E-01  8.50000000E-01
  8.50000000E-01  8.50000000E-01  8.50000000E-01  8.50000000E-01  8.50000000E-01
  8.50000000E-01  8.50000000E-01  8.50000000E-01  8.50000000E-01  8.50000000E-01
  8.50000000E-01  8.50000000E-01  8.50000000E-01  8.50000000E-01  8.50000000E-01
  8.50000000E-01  8.50000000E-01  8.50000000E-01  8.50000000E-01  8.50000000E-01
  8.50000000E-01  8.50000000E-01  8.50000000E-01  8.50000000E-01  8.50000000E-01
  8.50000000E-01  8.50000000E-01  8.50000000E-01  8.50000000E-01  8.50000000E-01
  8.50000000E-01  8.50000000E-01  8.50000000E-01  8.50000000E-01  8.50000000E-01
  8.50000000E-01  8.50000000E-01  8.50000000E-01  8.50000000E-01  8.50000000E-01
  8.50000000E-01  8.50000000E-01  8.50000000E-01  8.50000000E-01  8.50000000E-01
  8.50000000E-01  8.50000000E-01  8.50000000E-01  8.50000000E-01  8.50000000E-01
  8.50000000E-01  8.50000000E-01  8.50000000E-01  8.50000000E-01  8.50000000E-01
  8.50000000E-01  8.50000000E-01  8.50000000E-01  8.50000000E-01  8.50000000E-01
  8.50000000E-01  8.50000000E-01  8.50000000E-01  8.50000000E-01  8.50000000E-01
  8.50000000E-01  8.50000000E-01  8.50000000E-01  8.50000000E-01  8.50000000E-01
  8.50000000E-01  8.50000000E-01  8.50000000E-01  8.50000000E-01  8.50000000E-01
  8.50000000E-01  8.50000000E-01  8.50000000E-01  8.50000000E-01  8.50000000E-01
  8.50000000E-01  8.50000000E-01  8.50000000E-01  8.50000000E-01  8.50000000E-01
  8.50000000E-01  8.50000000E-01  8.50000000E-01  8.50000000E-01  8.50000000E-01
  8.50000000E-01  8.50000000E-01  8.50000000E-01  8.50000000E-01  8.50000000E-01
  8.50000000E-01  8.50000000E-01  8.50000000E-01  8.50000000E-01  8.50000000E-01
  8.50000000E-01  8.50000000E-01  8.50000000E-01  8.50000000E-01  8.50000000E-01
  8.50000000E-01  8.50000000E-01  8.50000000E-01  8.50000000E-01  8.50000000E-01
  8.50000000E-01  8.50000000E-01  8.50000000E-01  8.50000000E-01  8.50000000E-01
  8.50000000E-01  8.50000000E-01  8.50000000E-01  8.50000000E-01  8.50000000E-01
  8.50000000E-01  8.50000000E-01  8.50000000E-01  8.50000000E-01  8.50000000E-01
  8.50000000E-01  8.50000000E-01  8.50000000E-01  8.50000000E-01  8.50000000E-01
  8.50000000E-01  8.50000000E-01  8.50000000E-01  8.50000000E-01  8.50000000E-01
  8.50000000E-01  8.50000000E-01  8.50000000E-01  8.50000000E-01  8.50000000E-01
  8.50000000E-01  8.50000000E-01  8.50000000E-01  8.50000000E-01  8.50000000E-01
  8.50000000E-01  8.50000000E-01  8.50000000E-01  8.50000000E-01  8.50000000E-01
  8.50000000E-01  8.50000000E-01  8.50000000E-01  8.50000000E-01  8.50000000E-01
  8.50000000E-01  8.50000000E-01  8.50000000E-01  8.50000000E-01  8.50000000E-01
  8.50000000E-01  8.50000000E-01  8.50000000E-01  8.50000000E-01  8.50000000E-01
  8.50000000E-01  8.50000000E-01  8.50000000E-01  8.50000000E-01  8.50000000E-01
  8.50000000E-01  8.50000000E-01  8.50000000E-01  8.50000000E-01  8.50000000E-01
  8.50000000E-01  8.50000000E-01  8.50000000E-01  8.50000000E-01  8.50000000E-01
  8.50000000E-01  8.50000000E-01  8.50000000E-01  8.50000000E-01  8.50000000E-01
  8.50000000E-01  8.50000000E-01  8.50000000E-01  8.50000000E-01  8.50000000E-01
  8.50000000E-01  8.50000000E-01  8.50000000E-01  8.50000000E-01  8.50000000E-01
  8.50000000E-01  8.50000000E-01  8.50000000E-01  8.50000000E-01  8.50000000E-01
  8.50000000E-01  8.50000000E-01  8.50000000E-01  8.50000000E-01  8.50000000E-01
  8.50000000E-01  8.50000000E-01  8.50000000E-01  8.50000000E-01  8.50000000E-01
  8.50000000E-01  8.50000000E-01  8.50000000E-01  8.50000000E-01  8.50000000E-01
  8.50000000E-01  8.50000000E-01  8.50000000E-01  8.50000000E-01  8.50000000E-01
  8.50000000E-01  8.50000000E-01  8.50000000E-01  8.50000000E-01  8.50000000E-01
  8.50000000E-01  8.50000000E-01  8.50000000E-01  8.50000000E-01  8.50000000E-01
  8.50000000E-01  8.50000000E-01  8.50000000E-01  8.50000000E-01  8.50000000E-01
  8.50000000E-01  8.50000000E-01  8.50000000E-01  8.50000000E-01  8.50000000E-01
  8.50000000E-01  8.50000000E-01  8.50000000E-01  8.50000000E-01  8.50000000E-01
  8.50000000E-01  8.50000000E-01  8.50000000E-01  8.50000000E-01  8.50000000E-01
  8.50000000E-01  8.50000000E-01  8.50000000E-01  8.50000000E-01  8.50000000E-01
  8.50000000E-01  8.50000000E-01  8.50000000E-01  8.50000000E-01  8.50000000E-01
  8.50000000E-01  8.50000000E-01  8.50000000E-01  8.50000000E-01  8.50000000E-01
  8.50000000E-01  8.50000000E-01  8.50000000E-01  8.50000000E-01  8.50000000E-01
  8.50000000E-01  8.50000000E-01  8.50000000E-01  8.50000000E-01  8.50000000E-01
  8.50000000E-01  8.50000000E-01  8.50000000E-01  8.50000000E-01  8.50000000E-01
  8.50000000E-01  8.50000000E-01  8.50000000E-01  8.50000000E-01  8.50000000E-01
  8.50000000E-01  8.50000000E-01  8.50000000E-01  8.50000000E-01  8.50000000E-01
  8.50000000E-01  8.50000000E-01  8.50000000E-01  8.50000000E-01  8.50000000E-01
  8.50000000E-01  8.50000000E-01  8.50000000E-01  8.50000000E-01  8.50000000E-01
  8.50000000E-01  8.50000000E-01  8.50000000E-01  8.50000000E-01  8.50000000E-01
  8.50000000E-01  8.50000000E-01  8.50000000E-01  8.50000000E-01  8.50000000E-01
  8.50000000E-01  8.50000000E-01  8.50000000E-01  8.50000000E-01  8.50000000E-01
  8.50000000E-01  8.50000000E-01  8.50000000E-01  8.50000000E-01  8.50000000E-01
  8.50000000E-01  8.50000000E-01  8.50000000E-01  8.50000000E-01  8.50000000E-01
  8.50000000E-01  8.50000000E-01  8.50000000E-01  8.50000000E-01  8.50000000E-01
  8.50000000E-01  8.50000000E-01  8.50000000E-01  8.50000000E-01  8.50000000E-01
  8.50000000E-01  8.50000000E-01  8.50000000E-01  8.50000000E-01  8.50000000E-01
  8.50000000E-01  8.50000000E-01  8.50000000E-01  8.50000000E-01  8.50000000E-01
  8.50000000E-01  8.50000000E-01  8.50000000E-01  8.50000000E-01  8.50000000E-01
  8.50000000E-01  8.50000000E-01  8.50000000E-01  8.50000000E-01  8.50000000E-01
  8.50000000E-01  8.50000000E-01  8.50000000E-01  8.50000000E-01  8.50000000E-01
  8.50000000E-01  8.50000000E-01  8.50000000E-01  8.50000000E-01  8.50000000E-01
  8.50000000E-01  8.50000000E-01  8.50000000E-01  8.50000000E-01  8.50000000E-01
  8.50000000E-01  8.50000000E-01  8.50000000E-01  8.50000000E-01  8.50000000E-01
  8.50000000E-01  8.50000000E-01  8.50000000E-01  8.50000000E-01  8.50000000E-01
  8.50000000E-01  8.50000000E-01  8.50000000E-01  8.50000000E-01  8.50000000E-01
  8.50000000E-01  8.50000000E-01  8.50000000E-01  8.50000000E-01  8.50000000E-01
  8.50000000E-01  8.50000000E-01  8.50000000E-01  8.50000000E-01  8.50000000E-01
  8.50000000E-01  8.50000000E-01  8.50000000E-01  8.50000000E-01  8.50000000E-01
  8.50000000E-01  8.50000000E-01  8.50000000E-01  8.50000000E-01  8.50000000E-01
  8.50000000E-01  8.50000000E-01  8.50000000E-01  8.50000000E-01  8.50000000E-01
  8.50000000E-01  8.50000000E-01  8.50000000E-01  8.50000000E-01  8.50000000E-01
  8.50000000E-01  8.50000000E-01  8.50000000E-01  8.50000000E-01  8.50000000E-01
  8.50000000E-01  8.50000000E-01  8.50000000E-01  8.50000000E-01  8.50000000E-01
  8.50000000E-01  8.50000000E-01  8.50000000E-01  8.50000000E-01  8.50000000E-01
  8.50000000E-01  8.50000000E-01  8.50000000E-01  8.50000000E-01  8.50000000E-01
  8.50000000E-01  8.50000000E-01  8.50000000E-01  8.50000000E-01  8.50000000E-01
  8.50000000E-01  8.50000000E-01  8.50000000E-01  8.50000000E-01  8.50000000E-01
  8.50000000E-01  8.50000000E-01  8.50000000E-01  8.50000000E-01  8.50000000E-01
  8.50000000E-01  8.50000000E-01  8.50000000E-01  8.50000000E-01  8.50000000E-01
  8.50000000E-01  8.50000000E-01  8.50000000E-01  8.50000000E-01  8.50000000E-01
  8.50000000E-01  8.50000000E-01  8.50000000E-01  8.50000000E-01  8.50000000E-01
  8.50000000E-01  8.50000000E-01  8.50000000E-01  8.50000000E-01  8.50000000E-01
  8.50000000E-01  8.50000000E-01  8.50000000E-01  8.50000000E-01  8.50000000E-01
  8.50000000E-01  8.50000000E-01  8.50000000E-01  8.50000000E-01  8.50000000E-01
  8.50000000E-01  8.50000000E-01  8.50000000E-01  8.50000000E-01  8.50000000E-01
  8.50000000E-01  8.50000000E-01  8.50000000E-01  8.50000000E-01  8.50000000E-01
  8.50000000E-01  8.50000000E-01  8.50000000E-01  8.50000000E-01  8.50000000E-01
  8.50000000E-01  8.50000000E-01  8.50000000E-01  8.50000000E-01  8.50000000E-01
  8.50000000E-01  8.50000000E-01  8.50000000E-01  8.50000000E-01  8.50000000E-01
  8.50000000E-01  8.50000000E-01  8.50000000E-01  8.50000000E-01  8.50000000E-01
  8.50000000E-01  8.50000000E-01  8.50000000E-01  8.50000000E-01  8.50000000E-01
  8.50000000E-01  8.50000000E-01  8.50000000E-01  8.50000000E-01  8.50000000E-01
  8.50000000E-01  8.50000000E-01  8.50000000E-01  8.50000000E-01  8.50000000E-01
  8.50000000E-01  8.50000000E-01  8.50000000E-01  8.50000000E-01  8.50000000E-01
  8.50000000E-01  8.50000000E-01  8.50000000E-01  8.50000000E-01  8.50000000E-01
  8.50000000E-01  8.50000000E-01  8.50000000E-01  8.50000000E-01  8.50000000E-01
  8.50000000E-01  8.50000000E-01  8.50000000E-01  8.50000000E-01  8.50000000E-01
  8.50000000E-01  8.50000000E-01  8.50000000E-01  8.50000000E-01  8.50000000E-01
  8.50000000E-01  8.50000000E-01  8.50000000E-01  8.50000000E-01  8.50000000E-01
  8.50000000E-01  8.50000000E-01  8.50000000E-01  8.50000000E-01  8.50000000E-01
  8.50000000E-01  8.50000000E-01  8.50000000E-01  8.50000000E-01  8.50000000E-01
  8.50000000E-01  8.50000000E-01  8.50000000E-01  8.50000000E-01  8.50000000E-01
  8.50000000E-01  8.50000000E-01  8.50000000E-01  8.50000000E-01  8.50000000E-01
  8.50000000E-01  8.50000000E-01  8.50000000E-01  8.50000000E-01  8.50000000E-01
  8.50000000E-01  8.50000000E-01  8.50000000E-01  8.50000000E-01  8.50000000E-01
  8.50000000E-01  8.50000000E-01  8.50000000E-01  8.50000000E-01  8.50000000E-01
  8.50000000E-01  8.50000000E-01  8.50000000E-01  8.50000000E-01  8.50000000E-01
  8.50000000E-01  8.50000000E-01  8.50000000E-01  8.50000000E-01  8.50000000E-01
  8.50000000E-01  8.50000000E-01  8.50000000E-01  8.50000000E-01  8.50000000E-01
  8.50000000E-01  8.50000000E-01  8.50000000E-01  8.50000000E-01  8.50000000E-01
  8.50000000E-01  8.50000000E-01  8.50000000E-01  8.50000000E-01  8.50000000E-01
  8.50000000E-01  8.50000000E-01  8.50000000E-01  8.50000000E-01  8.50000000E-01
  8.50000000E-01  8.50000000E-01  8.50000000E-01  8.50000000E-01  8.50000000E-01
  8.50000000E-01  8.50000000E-01  8.50000000E-01  8.50000000E-01  8.50000000E-01
  8.50000000E-01  8.50000000E-01  8.50000000E-01  8.50000000E-01  8.50000000E-01
  8.50000000E-01  8.50000000E-01  8.50000000E-01  8.50000000E-01  8.50000000E-01
  8.50000000E-01  8.50000000E-01  8.50000000E-01  8.50000000E-01  8.50000000E-01
  8.50000000E-01  8.50000000E-01  8.50000000E-01  8.50000000E-01  8.50000000E-01
  8.50000000E-01  8.50000000E-01  8.50000000E-01  8.50000000E-01  8.50000000E-01
  8.50000000E-01  8.50000000E-01  8.50000000E-01  8.50000000E-01  8.50000000E-01
  8.50000000E-01  8.50000000E-01  8.50000000E-01  8.50000000E-01  8.50000000E-01
  8.50000000E-01  8.50000000E-01  8.50000000E-01  8.50000000E-01  8.50000000E-01
  8.50000000E-01  8.50000000E-01  8.50000000E-01  8.50000000E-01  8.50000000E-01
  8.50000000E-01  8.50000000E-01  8.50000000E-01  8.50000000E-01  8.50000000E-01
  8.50000000E-01  8.50000000E-01  8.50000000E-01  8.50000000E-01  8.50000000E-01
  8.50000000E-01  8.50000000E-01  8.50000000E-01  8.50000000E-01  8.50000000E-01
  8.50000000E-01  8.50000000E-01  8.50000000E-01  8.50000000E-01  8.50000000E-01
  8.50000000E-01  8.50000000E-01  8.50000000E-01  8.50000000E-01  8.50000000E-01
  8.50000000E-01  8.50000000E-01  8.50000000E-01  8.50000000E-01  8.50000000E-01
  8.50000000E-01  8.50000000E-01  8.50000000E-01  8.50000000E-01  8.50000000E-01
  8.50000000E-01  8.50000000E-01  8.50000000E-01  8.50000000E-01  8.50000000E-01
  8.50000000E-01  8.50000000E-01  8.50000000E-01  8.50000000E-01  8.50000000E-01
  8.50000000E-01  8.50000000E-01  8.50000000E-01  8.50000000E-01  8.50000000E-01
  8.50000000E-01  8.50000000E-01  8.50000000E-01  8.50000000E-01  8.50000000E-01
  8.50000000E-01  8.50000000E-01  8.50000000E-01  8.50000000E-01  8.50000000E-01
  8.50000000E-01  8.50000000E-01  8.50000000E-01  8.50000000E-01  8.50000000E-01
  8.50000000E-01  8.50000000E-01  8.50000000E-01  8.50000000E-01  8.50000000E-01
  8.50000000E-01  8.50000000E-01  8.50000000E-01  8.50000000E-01  8.50000000E-01
  8.50000000E-01  8.50000000E-01  8.50000000E-01  8.50000000E-01  8.50000000E-01
  8.50000000E-01  8.50000000E-01  8.50000000E-01  8.50000000E-01  8.50000000E-01
  8.50000000E-01  8.50000000E-01  8.50000000E-01  8.50000000E-01  8.50000000E-01
  8.50000000E-01  8.50000000E-01  8.50000000E-01  8.50000000E-01  8.50000000E-01
  8.50000000E-01  8.50000000E-01  8.50000000E-01  8.50000000E-01  8.50000000E-01
  8.50000000E-01  8.50000000E-01  8.50000000E-01  8.50000000E-01  8.50000000E-01
  8.50000000E-01  8.50000000E-01  8.50000000E-01  8.50000000E-01  8.50000000E-01
  8.50000000E-01  8.50000000E-01  8.50000000E-01  8.50000000E-01  8.50000000E-01
  8.50000000E-01  8.50000000E-01  8.50000000E-01  8.50000000E-01  8.50000000E-01
  8.50000000E-01  8.50000000E-01  8.50000000E-01  8.50000000E-01  8.50000000E-01
  8.50000000E-01  8.50000000E-01  8.50000000E-01  8.50000000E-01  8.50000000E-01
  8.50000000E-01  8.50000000E-01  8.50000000E-01  8.50000000E-01  8.50000000E-01
  8.50000000E-01  8.50000000E-01  8.50000000E-01  8.50000000E-01  8.50000000E-01
  8.50000000E-01  8.50000000E-01  8.50000000E-01  8.50000000E-01  8.50000000E-01
  8.50000000E-01  8.50000000E-01  8.50000000E-01  8.50000000E-01  8.50000000E-01
  8.50000000E-01  8.50000000E-01  8.50000000E-01  8.50000000E-01  8.50000000E-01
  8.50000000E-01  8.50000000E-01  8.50000000E-01  8.50000000E-01  8.50000000E-01
  8.50000000E-01  8.50000000E-01  8.50000000E-01  8.50000000E-01  8.50000000E-01
  8.50000000E-01  8.50000000E-01  8.50000000E-01  8.50000000E-01  8.50000000E-01
  8.50000000E-01  8.50000000E-01  8.50000000E-01  8.50000000E-01  8.50000000E-01
  8.50000000E-01  8.50000000E-01  8.50000000E-01  8.50000000E-01  8.50000000E-01
  8.50000000E-01  8.50000000E-01  8.50000000E-01  8.50000000E-01  8.50000000E-01
  8.50000000E-01  8.50000000E-01  8.50000000E-01  8.50000000E-01  8.50000000E-01
  8.50000000E-01  8.50000000E-01  8.50000000E-01  8.50000000E-01  8.50000000E-01
  8.50000000E-01  8.50000000E-01  8.50000000E-01  8.50000000E-01  8.50000000E-01
  8.50000000E-01  8.50000000E-01  8.50000000E-01  8.50000000E-01  8.50000000E-01
  8.50000000E-01  8.50000000E-01  8.50000000E-01  8.50000000E-01  8.50000000E-01
  8.50000000E-01  8.50000000E-01  8.50000000E-01  8.50000000E-01  8.50000000E-01
  8.50000000E-01  8.50000000E-01  8.50000000E-01  8.50000000E-01  8.50000000E-01
  8.50000000E-01  8.50000000E-01  8.50000000E-01  8.50000000E-01  8.50000000E-01
  8.50000000E-01  8.50000000E-01  8.50000000E-01  8.50000000E-01  8.50000000E-01
  8.50000000E-01  8.50000000E-01  8.50000000E-01  8.50000000E-01  8.50000000E-01
  8.50000000E-01  8.50000000E-01  8.50000000E-01  8.50000000E-01  8.50000000E-01
  8.50000000E-01  8.50000000E-01  8.50000000E-01  8.50000000E-01  8.50000000E-01
  8.50000000E-01  8.50000000E-01  8.50000000E-01  8.50000000E-01  8.50000000E-01
  8.50000000E-01  8.50000000E-01  8.50000000E-01  8.50000000E-01  8.50000000E-01
  8.50000000E-01  8.50000000E-01  8.50000000E-01  8.50000000E-01  8.50000000E-01
  8.50000000E-01  8.50000000E-01  8.50000000E-01  8.50000000E-01  8.50000000E-01
  8.50000000E-01  8.50000000E-01  8.50000000E-01  8.50000000E-01  8.50000000E-01
  8.50000000E-01  8.50000000E-01  8.50000000E-01  8.50000000E-01  8.50000000E-01
  8.50000000E-01  8.50000000E-01  8.50000000E-01  8.50000000E-01  8.50000000E-01
  8.50000000E-01  8.50000000E-01  8.50000000E-01  8.50000000E-01  8.50000000E-01
  8.50000000E-01  8.50000000E-01  8.50000000E-01  8.50000000E-01  8.50000000E-01
  8.50000000E-01  8.50000000E-01  8.50000000E-01  8.50000000E-01  8.50000000E-01
  8.50000000E-01  8.50000000E-01  8.50000000E-01  8.50000000E-01  8.50000000E-01
  8.50000000E-01  8.50000000E-01  8.50000000E-01  8.50000000E-01  8.50000000E-01
  8.50000000E-01  8.50000000E-01  8.50000000E-01  8.50000000E-01  8.50000000E-01
  8.50000000E-01  8.50000000E-01  8.50000000E-01  8.50000000E-01  8.50000000E-01
  8.50000000E-01  8.50000000E-01  8.50000000E-01  8.50000000E-01  8.50000000E-01
  8.50000000E-01  8.50000000E-01  8.50000000E-01  8.50000000E-01  8.50000000E-01
  8.50000000E-01  8.50000000E-01  8.50000000E-01  8.50000000E-01  8.50000000E-01
  8.50000000E-01  8.50000000E-01  8.50000000E-01  8.50000000E-01  8.50000000E-01
  8.50000000E-01  8.50000000E-01  8.50000000E-01  8.50000000E-01  8.50000000E-01
  8.50000000E-01  8.50000000E-01  8.50000000E-01  8.50000000E-01  8.50000000E-01
  8.50000000E-01  8.50000000E-01  8.50000000E-01  8.50000000E-01  8.50000000E-01
  8.50000000E-01  8.50000000E-01  8.50000000E-01  8.50000000E-01  8.50000000E-01
  8.50000000E-01  8.50000000E-01  8.50000000E-01  8.50000000E-01  8.50000000E-01
  8.50000000E-01  8.50000000E-01  8.50000000E-01  8.50000000E-01  8.50000000E-01
  8.50000000E-01  8.50000000E-01  8.50000000E-01  8.50000000E-01  8.50000000E-01
  8.50000000E-01  8.50000000E-01  8.50000000E-01  8.50000000E-01  8.50000000E-01
  8.50000000E-01  8.50000000E-01  8.50000000E-01  8.50000000E-01  8.50000000E-01
  8.50000000E-01  8.50000000E-01  8.50000000E-01  8.50000000E-01  8.50000000E-01
  8.50000000E-01  8.50000000E-01  8.50000000E-01  8.50000000E-01  8.50000000E-01
  8.50000000E-01  8.50000000E-01  8.50000000E-01  8.50000000E-01  8.50000000E-01
  8.50000000E-01  8.50000000E-01  8.50000000E-01  8.50000000E-01  8.50000000E-01
  8.50000000E-01  8.50000000E-01  8.50000000E-01  8.50000000E-01  8.50000000E-01
  8.50000000E-01  8.50000000E-01  8.50000000E-01  8.50000000E-01  8.50000000E-01
  8.50000000E-01  8.50000000E-01  8.50000000E-01  8.50000000E-01  8.50000000E-01
  8.50000000E-01  8.50000000E-01  8.50000000E-01  8.50000000E-01  8.50000000E-01
  8.50000000E-01  8.50000000E-01  8.50000000E-01  8.50000000E-01  8.50000000E-01
  8.50000000E-01  8.50000000E-01  8.50000000E-01  8.50000000E-01  8.50000000E-01
  8.50000000E-01  8.50000000E-01  8.50000000E-01  8.50000000E-01  8.50000000E-01
  8.50000000E-01  8.50000000E-01  8.50000000E-01  8.50000000E-01  8.50000000E-01
  8.50000000E-01  8.50000000E-01  8.50000000E-01  8.50000000E-01  8.50000000E-01
  8.50000000E-01  8.50000000E-01  8.50000000E-01  8.50000000E-01  8.50000000E-01
  8.50000000E-01  8.50000000E-01  8.50000000E-01  8.50000000E-01  8.50000000E-01
  8.50000000E-01  8.50000000E-01  8.50000000E-01  8.50000000E-01  8.50000000E-01
  8.50000000E-01  8.50000000E-01  8.50000000E-01  8.50000000E-01  8.50000000E-01
  8.50000000E-01  8.50000000E-01  8.50000000E-01  8.50000000E-01  8.50000000E-01
  8.50000000E-01  8.50000000E-01  8.50000000E-01  8.50000000E-01  8.50000000E-01
  8.50000000E-01  8.50000000E-01  8.50000000E-01  8.50000000E-01  8.50000000E-01
  8.50000000E-01  8.50000000E-01  8.50000000E-01  8.50000000E-01  8.50000000E-01
  8.50000000E-01  8.50000000E-01  8.50000000E-01  8.50000000E-01  8.50000000E-01
  8.50000000E-01  8.50000000E-01  8.50000000E-01  8.50000000E-01  8.50000000E-01
  8.50000000E-01  8.50000000E-01  8.50000000E-01  8.50000000E-01  8.50000000E-01
  8.50000000E-01  8.50000000E-01  8.50000000E-01  8.50000000E-01  8.50000000E-01
  8.50000000E-01  8.50000000E-01  8.50000000E-01  8.50000000E-01  8.50000000E-01
  8.50000000E-01  8.50000000E-01  8.50000000E-01  8.50000000E-01  8.50000000E-01
  8.50000000E-01  8.50000000E-01  8.50000000E-01  8.50000000E-01  8.50000000E-01
  8.50000000E-01  8.50000000E-01  8.50000000E-01  8.50000000E-01  8.50000000E-01
  8.50000000E-01  8.50000000E-01  8.50000000E-01  8.50000000E-01  8.50000000E-01
  8.50000000E-01  8.50000000E-01  8.50000000E-01  8.50000000E-01  8.50000000E-01
  8.50000000E-01  8.50000000E-01  8.50000000E-01  8.50000000E-01  8.50000000E-01
  8.50000000E-01  8.50000000E-01  8.50000000E-01  8.50000000E-01  8.50000000E-01
  8.50000000E-01  8.50000000E-01  8.50000000E-01  8.50000000E-01  8.50000000E-01
  8.50000000E-01  8.50000000E-01  8.50000000E-01  8.50000000E-01  8.50000000E-01
  8.50000000E-01  8.50000000E-01  8.50000000E-01  8.50000000E-01  8.50000000E-01
  8.50000000E-01  8.50000000E-01  8.50000000E-01  8.50000000E-01  8.50000000E-01
  8.50000000E-01  8.50000000E-01  8.50000000E-01  8.50000000E-01  8.50000000E-01
  8.50000000E-01  8.50000000E-01  8.50000000E-01  8.50000000E-01  8.50000000E-01
  8.50000000E-01  8.50000000E-01  8.50000000E-01  8.50000000E-01  8.50000000E-01
  8.50000000E-01  8.50000000E-01  8.50000000E-01  8.50000000E-01  8.50000000E-01
  8.50000000E-01  8.50000000E-01  8.50000000E-01  8.50000000E-01  8.50000000E-01
  8.50000000E-01  8.50000000E-01  8.50000000E-01  8.50000000E-01  8.50000000E-01
  8.50000000E-01  8.50000000E-01  8.50000000E-01  8.50000000E-01  8.50000000E-01
  8.50000000E-01  8.50000000E-01  8.50000000E-01  8.50000000E-01  8.50000000E-01
  8.50000000E-01  8.50000000E-01  8.50000000E-01  8.50000000E-01  8.50000000E-01
  8.50000000E-01  8.50000000E-01  8.50000000E-01  8.50000000E-01  8.50000000E-01
  8.50000000E-01  8.50000000E-01  8.50000000E-01  8.50000000E-01  8.50000000E-01
  8.50000000E-01  8.50000000E-01  8.50000000E-01  8.50000000E-01  8.50000000E-01
  8.50000000E-01  8.50000000E-01  8.50000000E-01  8.50000000E-01  8.50000000E-01
  8.50000000E-01  8.50000000E-01  8.50000000E-01  8.50000000E-01  8.50000000E-01
  8.50000000E-01  8.50000000E-01  8.50000000E-01  8.50000000E-01  8.50000000E-01
  8.50000000E-01  8.50000000E-01  8.50000000E-01  8.50000000E-01  8.50000000E-01
  8.50000000E-01  8.50000000E-01  8.50000000E-01  8.50000000E-01  8.50000000E-01
  8.50000000E-01  8.50000000E-01  8.50000000E-01  8.50000000E-01  8.50000000E-01
  8.50000000E-01  8.50000000E-01  8.50000000E-01  8.50000000E-01  8.50000000E-01
  8.50000000E-01  8.50000000E-01  8.50000000E-01  8.50000000E-01  8.50000000E-01
  8.50000000E-01  8.50000000E-01  8.50000000E-01  8.50000000E-01  8.50000000E-01
  8.50000000E-01  8.50000000E-01  8.50000000E-01  8.50000000E-01  8.50000000E-01
  8.50000000E-01  8.50000000E-01  8.50000000E-01  8.50000000E-01  8.50000000E-01
  8.50000000E-01  8.50000000E-01  8.50000000E-01  8.50000000E-01  8.50000000E-01
  8.50000000E-01  8.50000000E-01  8.50000000E-01  8.50000000E-01  8.50000000E-01
  8.50000000E-01  8.50000000E-01  8.50000000E-01  8.50000000E-01  8.50000000E-01
  8.50000000E-01  8.50000000E-01  8.50000000E-01  8.50000000E-01  8.50000000E-01
  8.50000000E-01  8.50000000E-01  8.50000000E-01  8.50000000E-01  8.50000000E-01
  8.50000000E-01  8.50000000E-01  8.50000000E-01  8.50000000E-01  8.50000000E-01
  8.50000000E-01  8.50000000E-01  8.50000000E-01  8.50000000E-01  8.50000000E-01
  8.50000000E-01  8.50000000E-01  8.50000000E-01  8.50000000E-01  8.50000000E-01
  8.50000000E-01  8.50000000E-01  8.50000000E-01  8.50000000E-01  8.50000000E-01
  8.50000000E-01  8.50000000E-01  8.50000000E-01  8.50000000E-01  8.50000000E-01
  8.50000000E-01  8.50000000E-01  8.50000000E-01  8.50000000E-01  8.50000000E-01
  8.50000000E-01  8.50000000E-01  8.50000000E-01  8.50000000E-01  8.50000000E-01
  8.50000000E-01  8.50000000E-01  8.50000000E-01  8.50000000E-01  8.50000000E-01
  8.50000000E-01  8.50000000E-01  8.50000000E-01  8.50000000E-01  8.50000000E-01
  8.50000000E-01  8.50000000E-01  8.50000000E-01  8.50000000E-01  8.50000000E-01
  8.50000000E-01  8.50000000E-01  8.50000000E-01  8.50000000E-01  8.50000000E-01
  8.50000000E-01  8.50000000E-01  8.50000000E-01  8.50000000E-01  8.50000000E-01
  8.50000000E-01  8.50000000E-01  8.50000000E-01  8.50000000E-01  8.50000000E-01
  8.50000000E-01  8.50000000E-01  8.50000000E-01  8.50000000E-01  8.50000000E-01
  8.50000000E-01  8.50000000E-01  8.50000000E-01  8.50000000E-01  8.50000000E-01
  8.50000000E-01  8.50000000E-01  8.50000000E-01  8.50000000E-01  8.50000000E-01
  8.50000000E-01  8.50000000E-01  8.50000000E-01  8.50000000E-01  8.50000000E-01
  8.50000000E-01  8.50000000E-01  8.50000000E-01  8.50000000E-01  8.50000000E-01
  8.50000000E-01  8.50000000E-01  8.50000000E-01  8.50000000E-01  8.50000000E-01
  8.50000000E-01  8.50000000E-01  8.50000000E-01  8.50000000E-01  8.50000000E-01
  8.50000000E-01  8.50000000E-01  8.50000000E-01  8.50000000E-01  8.50000000E-01
  8.50000000E-01  8.50000000E-01  8.50000000E-01  8.50000000E-01  8.50000000E-01
  8.50000000E-01  8.50000000E-01  8.50000000E-01  8.50000000E-01  8.50000000E-01
  8.50000000E-01  8.50000000E-01  8.50000000E-01  8.50000000E-01  8.50000000E-01
  8.50000000E-01  8.50000000E-01  8.50000000E-01  8.50000000E-01  8.50000000E-01
  8.50000000E-01  8.50000000E-01  8.50000000E-01  8.50000000E-01  8.50000000E-01
  8.50000000E-01  8.50000000E-01  8.50000000E-01  8.50000000E-01  8.50000000E-01
  8.50000000E-01  8.50000000E-01  8.50000000E-01  8.50000000E-01  8.50000000E-01
  8.50000000E-01  8.50000000E-01  8.50000000E-01  8.50000000E-01  8.50000000E-01
  8.50000000E-01  8.50000000E-01  8.50000000E-01  8.50000000E-01  8.50000000E-01
  8.50000000E-01  8.50000000E-01  8.50000000E-01  8.50000000E-01  8.50000000E-01
  8.50000000E-01  8.50000000E-01  8.50000000E-01  8.50000000E-01  8.50000000E-01
  8.50000000E-01  8.50000000E-01  8.50000000E-01  8.50000000E-01  8.50000000E-01
  8.50000000E-01  8.50000000E-01  8.50000000E-01  8.50000000E-01  8.50000000E-01
  8.50000000E-01  8.50000000E-01  8.50000000E-01  8.50000000E-01  8.50000000E-01
  8.50000000E-01  8.50000000E-01  8.50000000E-01  8.50000000E-01  8.50000000E-01
  8.50000000E-01  8.50000000E-01  8.50000000E-01  8.50000000E-01  8.50000000E-01
  8.50000000E-01  8.50000000E-01  8.50000000E-01  8.50000000E-01  8.50000000E-01
  8.50000000E-01  8.50000000E-01  8.50000000E-01  8.50000000E-01  8.50000000E-01
  8.50000000E-01  8.50000000E-01  8.50000000E-01  8.50000000E-01  8.50000000E-01
  8.50000000E-01  8.50000000E-01  8.50000000E-01  8.50000000E-01  8.50000000E-01
  8.50000000E-01  8.50000000E-01  8.50000000E-01  8.50000000E-01  8.50000000E-01
  8.50000000E-01  8.50000000E-01  8.50000000E-01  8.50000000E-01  8.50000000E-01
  8.50000000E-01  8.50000000E-01  8.50000000E-01  8.50000000E-01  8.50000000E-01
  8.50000000E-01  8.50000000E-01  8.50000000E-01  8.50000000E-01  8.50000000E-01
  8.50000000E-01  8.50000000E-01  8.50000000E-01  8.50000000E-01  8.50000000E-01
  8.50000000E-01  8.50000000E-01  8.50000000E-01  8.50000000E-01  8.50000000E-01
  8.50000000E-01  8.50000000E-01  8.50000000E-01  8.50000000E-01  8.50000000E-01
  8.50000000E-01  8.50000000E-01  8.50000000E-01  8.50000000E-01  8.50000000E-01
  8.50000000E-01  8.50000000E-01  8.50000000E-01  8.50000000E-01  8.50000000E-01
  8.50000000E-01  8.50000000E-01  8.50000000E-01  8.50000000E-01  8.50000000E-01
  8.50000000E-01  8.50000000E-01  8.50000000E-01  8.50000000E-01  8.50000000E-01
  8.50000000E-01  8.50000000E-01  8.50000000E-01  8.50000000E-01  8.50000000E-01
  8.50000000E-01  8.50000000E-01  8.50000000E-01  8.50000000E-01  8.50000000E-01
  8.50000000E-01  8.50000000E-01  8.50000000E-01  8.50000000E-01  8.50000000E-01
  8.50000000E-01  8.50000000E-01  8.50000000E-01  8.50000000E-01  8.50000000E-01
  8.50000000E-01  8.50000000E-01  8.50000000E-01  8.50000000E-01  8.50000000E-01
  8.50000000E-01  8.50000000E-01  8.50000000E-01  8.50000000E-01  8.50000000E-01
  8.50000000E-01  8.50000000E-01  8.50000000E-01  8.50000000E-01  8.50000000E-01
  8.50000000E-01  8.50000000E-01  8.50000000E-01  8.50000000E-01  8.50000000E-01
  8.50000000E-01  8.50000000E-01  8.50000000E-01  8.50000000E-01  8.50000000E-01
  8.50000000E-01  8.50000000E-01  8.50000000E-01  8.50000000E-01  8.50000000E-01
  8.50000000E-01  8.50000000E-01  8.50000000E-01  8.50000000E-01  8.50000000E-01
  8.50000000E-01  8.50000000E-01  8.50000000E-01  8.50000000E-01  8.50000000E-01
  8.50000000E-01  8.50000000E-01  8.50000000E-01  8.50000000E-01  8.50000000E-01
  8.50000000E-01  8.50000000E-01  8.50000000E-01  8.50000000E-01  8.50000000E-01
  8.50000000E-01  8.50000000E-01  8.50000000E-01  8.50000000E-01  8.50000000E-01
  8.50000000E-01  8.50000000E-01  8.50000000E-01  8.50000000E-01  8.50000000E-01
  8.50000000E-01  8.50000000E-01  8.50000000E-01  8.50000000E-01  8.50000000E-01
  8.50000000E-01  8.50000000E-01  8.50000000E-01  8.50000000E-01  8.50000000E-01
  8.50000000E-01  8.50000000E-01  8.50000000E-01  8.50000000E-01  8.50000000E-01
  8.50000000E-01  8.50000000E-01  8.50000000E-01  8.50000000E-01  8.50000000E-01
  8.50000000E-01  8.50000000E-01  8.50000000E-01  8.50000000E-01  8.50000000E-01
  8.50000000E-01  8.50000000E-01  8.50000000E-01  8.50000000E-01  8.50000000E-01
  8.50000000E-01  8.50000000E-01  8.50000000E-01  8.50000000E-01  8.50000000E-01
  8.50000000E-01  8.50000000E-01  8.50000000E-01  8.50000000E-01  8.50000000E-01
  8.50000000E-01  8.50000000E-01  8.50000000E-01  8.50000000E-01  8.50000000E-01
  8.50000000E-01  8.50000000E-01  8.50000000E-01  8.50000000E-01  8.50000000E-01
  8.50000000E-01  8.50000000E-01  8.50000000E-01  8.50000000E-01  8.50000000E-01
  8.50000000E-01  8.50000000E-01  8.50000000E-01  8.50000000E-01  8.50000000E-01
  8.50000000E-01  8.50000000E-01  8.50000000E-01  8.50000000E-01  8.50000000E-01
  8.50000000E-01  8.50000000E-01  8.50000000E-01  8.50000000E-01  8.50000000E-01
  8.50000000E-01  8.50000000E-01  8.50000000E-01  8.50000000E-01  8.50000000E-01
  8.50000000E-01  8.50000000E-01  8.50000000E-01  8.50000000E-01  8.50000000E-01
  8.50000000E-01  8.50000000E-01  8.50000000E-01  8.50000000E-01  8.50000000E-01
  8.50000000E-01  8.50000000E-01  8.50000000E-01  8.50000000E-01  8.50000000E-01
  8.50000000E-01  8.50000000E-01  8.50000000E-01  8.50000000E-01  8.50000000E-01
  8.50000000E-01  8.50000000E-01  8.50000000E-01  8.50000000E-01  8.50000000E-01
  8.50000000E-01  8.50000000E-01  8.50000000E-01  8.50000000E-01  8.50000000E-01
  8.50000000E-01  8.50000000E-01  8.50000000E-01  8.50000000E-01  8.50000000E-01
  8.50000000E-01  8.50000000E-01  8.50000000E-01  8.50000000E-01  8.50000000E-01
  8.50000000E-01  8.50000000E-01  8.50000000E-01  8.50000000E-01  8.50000000E-01
  8.50000000E-01  8.50000000E-01  8.50000000E-01  8.50000000E-01  8.50000000E-01
  8.50000000E-01  8.50000000E-01  8.50000000E-01  8.50000000E-01  8.50000000E-01
  8.50000000E-01  8.50000000E-01  8.50000000E-01  8.50000000E-01  8.50000000E-01
  8.50000000E-01  8.50000000E-01  8.50000000E-01  8.50000000E-01  8.50000000E-01
  8.50000000E-01  8.50000000E-01  8.50000000E-01  8.50000000E-01  8.50000000E-01
  8.50000000E-01  8.50000000E-01  8.50000000E-01  8.50000000E-01  8.50000000E-01
  8.50000000E-01  8.50000000E-01  8.50000000E-01  8.50000000E-01  8.50000000E-01
  8.50000000E-01  8.50000000E-01  8.50000000E-01  8.50000000E-01  8.50000000E-01
  8.50000000E-01  8.50000000E-01  8.50000000E-01  8.50000000E-01  8.50000000E-01
  8.50000000E-01  8.50000000E-01  8.50000000E-01  8.50000000E-01  8.50000000E-01
  8.50000000E-01  8.50000000E-01  8.50000000E-01  8.50000000E-01  8.50000000E-01
  8.50000000E-01  8.50000000E-01  8.50000000E-01  8.50000000E-01  8.50000000E-01
  8.50000000E-01  8.50000000E-01  8.50000000E-01  8.50000000E-01  8.50000000E-01
  8.50000000E-01  8.50000000E-01  8.50000000E-01  8.50000000E-01  8.50000000E-01
  8.50000000E-01  8.50000000E-01  8.50000000E-01  8.50000000E-01  8.50000000E-01
  8.50000000E-01  8.50000000E-01  8.50000000E-01  8.50000000E-01  8.50000000E-01
  8.50000000E-01  8.50000000E-01  8.50000000E-01  8.50000000E-01  8.50000000E-01
  8.50000000E-01  8.50000000E-01  8.50000000E-01  8.50000000E-01  8.50000000E-01
  8.50000000E-01  8.50000000E-01  8.50000000E-01  8.50000000E-01  8.50000000E-01
  8.50000000E-01  8.50000000E-01  8.50000000E-01  8.50000000E-01  8.50000000E-01
  8.50000000E-01  8.50000000E-01  8.50000000E-01  8.50000000E-01  8.50000000E-01
  8.50000000E-01  8.50000000E-01  8.50000000E-01  8.50000000E-01  8.50000000E-01
  8.50000000E-01  8.50000000E-01  8.50000000E-01  8.50000000E-01  8.50000000E-01
  8.50000000E-01  8.50000000E-01  8.50000000E-01  8.50000000E-01  8.50000000E-01
  8.50000000E-01  8.50000000E-01  8.50000000E-01  8.50000000E-01  8.50000000E-01
  8.50000000E-01  8.50000000E-01  8.50000000E-01  8.50000000E-01  8.50000000E-01
  8.50000000E-01  8.50000000E-01  8.50000000E-01  8.50000000E-01  8.50000000E-01
  8.50000000E-01  8.50000000E-01  8.50000000E-01  8.50000000E-01  8.50000000E-01
  8.50000000E-01  8.50000000E-01  8.50000000E-01  8.50000000E-01  8.50000000E-01
  8.50000000E-01  8.50000000E-01  8.50000000E-01  8.50000000E-01  8.50000000E-01
  8.50000000E-01  8.50000000E-01  8.50000000E-01  8.50000000E-01  8.50000000E-01
  8.50000000E-01  8.50000000E-01  8.50000000E-01  8.50000000E-01  8.50000000E-01
  8.50000000E-01  8.50000000E-01  8.50000000E-01  8.50000000E-01  8.50000000E-01
  8.50000000E-01  8.50000000E-01  8.50000000E-01  8.50000000E-01  8.50000000E-01
  8.50000000E-01  8.50000000E-01  8.50000000E-01  8.50000000E-01  8.50000000E-01
  8.50000000E-01  8.50000000E-01  8.50000000E-01  8.50000000E-01  8.50000000E-01
  8.50000000E-01  8.50000000E-01  8.50000000E-01  8.50000000E-01  8.50000000E-01
  8.50000000E-01  8.50000000E-01  8.50000000E-01  8.50000000E-01  8.50000000E-01
  8.50000000E-01  8.50000000E-01  8.50000000E-01  8.50000000E-01  8.50000000E-01
  8.50000000E-01  8.50000000E-01  8.50000000E-01  8.50000000E-01  8.50000000E-01
  8.50000000E-01  8.50000000E-01  8.50000000E-01  8.50000000E-01  8.50000000E-01
  8.50000000E-01  8.50000000E-01  8.50000000E-01  8.50000000E-01  8.50000000E-01
  8.50000000E-01  8.50000000E-01  8.50000000E-01  8.50000000E-01  8.50000000E-01
  8.50000000E-01  8.50000000E-01  8.50000000E-01  8.50000000E-01  8.50000000E-01
  8.50000000E-01  8.50000000E-01  8.50000000E-01  8.50000000E-01  8.50000000E-01
  8.50000000E-01  8.50000000E-01  8.50000000E-01  8.50000000E-01  8.50000000E-01
  8.50000000E-01  8.50000000E-01  8.50000000E-01  8.50000000E-01  8.50000000E-01
  8.50000000E-01  8.50000000E-01  8.50000000E-01  8.50000000E-01  8.50000000E-01
  8.50000000E-01  8.50000000E-01  8.50000000E-01  8.50000000E-01  8.50000000E-01
  8.50000000E-01  8.50000000E-01  8.50000000E-01  8.50000000E-01  8.50000000E-01
  8.50000000E-01  8.50000000E-01  8.50000000E-01  8.50000000E-01  8.50000000E-01
  8.50000000E-01  8.50000000E-01  8.50000000E-01  8.50000000E-01  8.50000000E-01
  8.50000000E-01  8.50000000E-01  8.50000000E-01  8.50000000E-01  8.50000000E-01
  8.50000000E-01  8.50000000E-01  8.50000000E-01  8.50000000E-01  8.50000000E-01
  8.50000000E-01  8.50000000E-01  8.50000000E-01  8.50000000E-01  8.50000000E-01
  8.50000000E-01  8.50000000E-01  8.50000000E-01  8.50000000E-01  8.50000000E-01
  8.50000000E-01  8.50000000E-01  8.50000000E-01  8.50000000E-01  8.50000000E-01
  8.50000000E-01  8.50000000E-01  8.50000000E-01  8.50000000E-01  8.50000000E-01
  8.50000000E-01  8.50000000E-01  8.50000000E-01  8.50000000E-01  8.50000000E-01
  8.50000000E-01  8.50000000E-01  8.50000000E-01  8.50000000E-01  8.50000000E-01
  8.50000000E-01  8.50000000E-01  8.50000000E-01  8.50000000E-01  8.50000000E-01
  8.50000000E-01  8.50000000E-01  8.50000000E-01  8.50000000E-01  8.50000000E-01
  8.50000000E-01  8.50000000E-01  8.50000000E-01  8.50000000E-01  8.50000000E-01
  8.50000000E-01  8.50000000E-01  8.50000000E-01  8.50000000E-01  8.50000000E-01
  8.50000000E-01  8.50000000E-01  8.50000000E-01  8.50000000E-01  8.50000000E-01
  8.50000000E-01  8.50000000E-01  8.50000000E-01  8.50000000E-01  8.50000000E-01
  8.50000000E-01  8.50000000E-01  8.50000000E-01  8.50000000E-01  8.50000000E-01
  8.50000000E-01  8.50000000E-01  8.50000000E-01  8.50000000E-01  8.50000000E-01
  8.50000000E-01  8.50000000E-01  8.50000000E-01  8.50000000E-01  8.50000000E-01
  8.50000000E-01  8.50000000E-01  8.50000000E-01  8.50000000E-01  8.50000000E-01
  8.50000000E-01  8.50000000E-01  8.50000000E-01  8.50000000E-01  8.50000000E-01
  8.50000000E-01  8.50000000E-01  8.50000000E-01  8.50000000E-01  8.50000000E-01
  8.50000000E-01  8.50000000E-01  8.50000000E-01  8.50000000E-01  8.50000000E-01
  8.50000000E-01  8.50000000E-01  8.50000000E-01  8.50000000E-01  8.50000000E-01
  8.50000000E-01  8.50000000E-01  8.50000000E-01  8.50000000E-01  8.50000000E-01
  8.50000000E-01  8.50000000E-01  8.50000000E-01  8.50000000E-01  8.50000000E-01
  8.50000000E-01  8.50000000E-01  8.50000000E-01  8.50000000E-01  8.50000000E-01
  8.50000000E-01  8.50000000E-01  8.50000000E-01  8.50000000E-01  8.50000000E-01
  8.50000000E-01  8.50000000E-01  8.50000000E-01  8.50000000E-01  8.50000000E-01
  8.50000000E-01  8.50000000E-01  8.50000000E-01  8.50000000E-01  8.50000000E-01
  8.50000000E-01  8.50000000E-01  8.50000000E-01  8.50000000E-01  8.50000000E-01
  8.50000000E-01  8.50000000E-01  8.50000000E-01  8.50000000E-01  8.50000000E-01
  8.50000000E-01  8.50000000E-01  8.50000000E-01  8.50000000E-01  8.50000000E-01
  8.50000000E-01  8.50000000E-01  8.50000000E-01  8.50000000E-01  8.50000000E-01
  8.50000000E-01  8.50000000E-01  8.50000000E-01  8.50000000E-01  8.50000000E-01
  8.50000000E-01  8.50000000E-01  8.50000000E-01  8.50000000E-01  8.50000000E-01
  8.50000000E-01  8.50000000E-01  8.50000000E-01  8.50000000E-01  8.50000000E-01
  8.50000000E-01  8.50000000E-01  8.50000000E-01  8.50000000E-01  8.50000000E-01
  8.50000000E-01  8.50000000E-01  8.50000000E-01  8.50000000E-01  8.50000000E-01
  8.50000000E-01  8.50000000E-01  8.50000000E-01  8.50000000E-01  8.50000000E-01
  8.50000000E-01  8.50000000E-01  8.50000000E-01  8.50000000E-01  8.50000000E-01
  8.50000000E-01  8.50000000E-01  8.50000000E-01  8.50000000E-01  8.50000000E-01
  8.50000000E-01  8.50000000E-01  8.50000000E-01  8.50000000E-01  8.50000000E-01
  8.50000000E-01  8.50000000E-01  8.50000000E-01  8.50000000E-01  8.50000000E-01
  8.50000000E-01  8.50000000E-01  8.50000000E-01  8.50000000E-01  8.50000000E-01
  8.50000000E-01  8.50000000E-01  8.50000000E-01  8.50000000E-01  8.50000000E-01
  8.50000000E-01  8.50000000E-01  8.50000000E-01  8.50000000E-01  8.50000000E-01
  8.50000000E-01  8.50000000E-01  8.50000000E-01  8.50000000E-01  8.50000000E-01
  8.50000000E-01  8.50000000E-01  8.50000000E-01  8.50000000E-01  8.50000000E-01
  8.50000000E-01  8.50000000E-01  8.50000000E-01  8.50000000E-01  8.50000000E-01
  8.50000000E-01  8.50000000E-01  8.50000000E-01  8.50000000E-01  8.50000000E-01
  8.50000000E-01  8.50000000E-01  8.50000000E-01  8.50000000E-01  8.50000000E-01
  8.50000000E-01  8.50000000E-01  8.50000000E-01  8.50000000E-01  8.50000000E-01
  8.50000000E-01  8.50000000E-01  8.50000000E-01  8.50000000E-01  8.50000000E-01
  8.50000000E-01  8.50000000E-01  8.50000000E-01  8.50000000E-01  8.50000000E-01
  8.50000000E-01  8.50000000E-01  8.50000000E-01  8.50000000E-01  8.50000000E-01
  8.50000000E-01  8.50000000E-01  8.50000000E-01  8.50000000E-01  8.50000000E-01
  8.50000000E-01  8.50000000E-01  8.50000000E-01  8.50000000E-01  8.50000000E-01
  8.50000000E-01  8.50000000E-01  8.50000000E-01  8.50000000E-01  8.50000000E-01
  8.50000000E-01  8.50000000E-01  8.50000000E-01  8.50000000E-01  8.50000000E-01
  8.50000000E-01  8.50000000E-01  8.50000000E-01  8.50000000E-01  8.50000000E-01
  8.50000000E-01  8.50000000E-01  8.50000000E-01  8.50000000E-01  8.50000000E-01
  8.50000000E-01  8.50000000E-01  8.50000000E-01  8.50000000E-01  8.50000000E-01
  8.50000000E-01  8.50000000E-01  8.50000000E-01  8.50000000E-01  8.50000000E-01
  8.50000000E-01  8.50000000E-01  8.50000000E-01  8.50000000E-01  8.50000000E-01
  8.50000000E-01  8.50000000E-01  8.50000000E-01  8.50000000E-01  8.50000000E-01
  8.50000000E-01  8.50000000E-01  8.50000000E-01  8.50000000E-01  8.50000000E-01
  8.50000000E-01  8.50000000E-01  8.50000000E-01  8.50000000E-01  8.50000000E-01
  8.50000000E-01  8.50000000E-01  8.50000000E-01  8.50000000E-01  8.50000000E-01
  8.50000000E-01  8.50000000E-01  8.50000000E-01  8.50000000E-01  8.50000000E-01
  8.50000000E-01  8.50000000E-01  8.50000000E-01  8.50000000E-01  8.50000000E-01
  8.50000000E-01  8.50000000E-01  8.50000000E-01  8.50000000E-01  8.50000000E-01
  8.50000000E-01  8.50000000E-01  8.50000000E-01  8.50000000E-01  8.50000000E-01
  8.50000000E-01  8.50000000E-01  8.50000000E-01  8.50000000E-01  8.50000000E-01
  8.50000000E-01  8.50000000E-01  8.50000000E-01  8.50000000E-01  8.50000000E-01
  8.50000000E-01  8.50000000E-01  8.50000000E-01  8.50000000E-01  8.50000000E-01
  8.50000000E-01  8.50000000E-01  8.50000000E-01  8.50000000E-01  8.50000000E-01
  8.50000000E-01  8.50000000E-01  8.50000000E-01  8.50000000E-01  8.50000000E-01
  8.50000000E-01  8.50000000E-01  8.50000000E-01  8.50000000E-01  8.50000000E-01
  8.50000000E-01  8.50000000E-01  8.50000000E-01  8.50000000E-01  8.50000000E-01
  8.50000000E-01  8.50000000E-01  8.50000000E-01  8.50000000E-01  8.50000000E-01
  8.50000000E-01  8.50000000E-01  8.50000000E-01  8.50000000E-01  8.50000000E-01
  8.50000000E-01  8.50000000E-01  8.50000000E-01  8.50000000E-01  8.50000000E-01
  8.50000000E-01  8.50000000E-01  8.50000000E-01  8.50000000E-01  8.50000000E-01
  8.50000000E-01  8.50000000E-01  8.50000000E-01  8.50000000E-01  8.50000000E-01
  8.50000000E-01  8.50000000E-01  8.50000000E-01  8.50000000E-01  8.50000000E-01
  8.50000000E-01  8.50000000E-01  8.50000000E-01  8.50000000E-01  8.50000000E-01
  8.50000000E-01  8.50000000E-01  8.50000000E-01  8.50000000E-01  8.50000000E-01
  8.50000000E-01  8.50000000E-01  8.50000000E-01  8.50000000E-01  8.50000000E-01
  8.50000000E-01  8.50000000E-01  8.50000000E-01  8.50000000E-01  8.50000000E-01
  8.50000000E-01  8.50000000E-01  8.50000000E-01  8.50000000E-01  8.50000000E-01
  8.50000000E-01  8.50000000E-01  8.50000000E-01  8.50000000E-01  8.50000000E-01
  8.50000000E-01  8.50000000E-01  8.50000000E-01  8.50000000E-01  8.50000000E-01
  8.50000000E-01  8.50000000E-01  8.50000000E-01  8.50000000E-01  8.50000000E-01
  8.50000000E-01  8.50000000E-01  8.50000000E-01  8.50000000E-01  8.50000000E-01
  8.50000000E-01  8.50000000E-01  8.50000000E-01  8.50000000E-01  8.50000000E-01
  8.50000000E-01  8.50000000E-01  8.50000000E-01  8.50000000E-01  8.50000000E-01
  8.50000000E-01  8.50000000E-01  8.50000000E-01  8.50000000E-01  8.50000000E-01
  8.50000000E-01  8.50000000E-01  8.50000000E-01  8.50000000E-01  8.50000000E-01
  8.50000000E-01  8.50000000E-01  8.50000000E-01  8.50000000E-01  8.50000000E-01
  8.50000000E-01  8.50000000E-01  8.50000000E-01  8.50000000E-01  8.50000000E-01
  8.50000000E-01  8.50000000E-01  8.50000000E-01  8.50000000E-01  8.50000000E-01
  8.50000000E-01  8.50000000E-01  8.50000000E-01  8.50000000E-01  8.50000000E-01
  8.50000000E-01  8.50000000E-01  8.50000000E-01  8.50000000E-01  8.50000000E-01
  8.50000000E-01  8.50000000E-01  8.50000000E-01  8.50000000E-01  8.50000000E-01
  8.50000000E-01  8.50000000E-01  8.50000000E-01  8.50000000E-01  8.50000000E-01
  8.50000000E-01  8.50000000E-01  8.50000000E-01  8.50000000E-01  8.50000000E-01
  8.50000000E-01  8.50000000E-01  8.50000000E-01  8.50000000E-01  8.50000000E-01
  8.50000000E-01  8.50000000E-01  8.50000000E-01  8.50000000E-01  8.50000000E-01
  8.50000000E-01  8.50000000E-01  8.50000000E-01  8.50000000E-01  8.50000000E-01
  8.50000000E-01  8.50000000E-01  8.50000000E-01  8.50000000E-01  8.50000000E-01
  8.50000000E-01  8.50000000E-01  8.50000000E-01  8.50000000E-01  8.50000000E-01
  8.50000000E-01  8.50000000E-01  8.50000000E-01  8.50000000E-01  8.50000000E-01
  8.50000000E-01  8.50000000E-01  8.50000000E-01  8.50000000E-01  8.50000000E-01
  8.50000000E-01  8.50000000E-01  8.50000000E-01  8.50000000E-01  8.50000000E-01
  8.50000000E-01  8.50000000E-01  8.50000000E-01  8.50000000E-01  8.50000000E-01
  8.50000000E-01  8.50000000E-01  8.50000000E-01  8.50000000E-01  8.50000000E-01
  8.50000000E-01  8.50000000E-01  8.50000000E-01  8.50000000E-01  8.50000000E-01
  8.50000000E-01  8.50000000E-01  8.50000000E-01  8.50000000E-01  8.50000000E-01
  8.50000000E-01  8.50000000E-01  8.50000000E-01  8.50000000E-01  8.50000000E-01
  8.50000000E-01  8.50000000E-01  8.50000000E-01  8.50000000E-01  8.50000000E-01
  8.50000000E-01  8.50000000E-01  8.50000000E-01  8.50000000E-01  8.50000000E-01
  8.50000000E-01  8.50000000E-01  8.50000000E-01  8.50000000E-01  8.50000000E-01
  8.50000000E-01  8.50000000E-01  8.50000000E-01  8.50000000E-01  8.50000000E-01
  8.50000000E-01  8.50000000E-01  8.50000000E-01  8.50000000E-01  8.50000000E-01
  8.50000000E-01  8.50000000E-01  8.50000000E-01  8.50000000E-01  8.50000000E-01
  8.50000000E-01  8.50000000E-01  8.50000000E-01  8.50000000E-01  8.50000000E-01
  8.50000000E-01  8.50000000E-01  8.50000000E-01  8.50000000E-01  8.50000000E-01
  8.50000000E-01  8.50000000E-01  8.50000000E-01  8.50000000E-01  8.50000000E-01
  8.50000000E-01  8.50000000E-01  8.50000000E-01  8.50000000E-01  8.50000000E-01
  8.50000000E-01  8.50000000E-01  8.50000000E-01  8.50000000E-01  8.50000000E-01
  8.50000000E-01  8.50000000E-01  8.50000000E-01  8.50000000E-01  8.50000000E-01
  8.50000000E-01  8.50000000E-01  8.50000000E-01  8.50000000E-01  8.50000000E-01
  8.50000000E-01  8.50000000E-01  8.50000000E-01  8.50000000E-01  8.50000000E-01
  8.50000000E-01  8.50000000E-01  8.50000000E-01  8.50000000E-01  8.50000000E-01
  8.50000000E-01  8.50000000E-01  8.50000000E-01  8.50000000E-01  8.50000000E-01
  8.50000000E-01  8.50000000E-01  8.50000000E-01  8.50000000E-01  8.50000000E-01
  8.50000000E-01  8.50000000E-01  8.50000000E-01  8.50000000E-01  8.50000000E-01
  8.50000000E-01  8.50000000E-01  8.50000000E-01  8.50000000E-01  8.50000000E-01
  8.50000000E-01  8.50000000E-01  8.50000000E-01  8.50000000E-01  8.50000000E-01
  8.50000000E-01  8.50000000E-01  8.50000000E-01  8.50000000E-01  8.50000000E-01
  8.50000000E-01  8.50000000E-01  8.50000000E-01  8.50000000E-01  8.50000000E-01
  8.50000000E-01  8.50000000E-01  8.50000000E-01  8.50000000E-01  8.50000000E-01
  8.50000000E-01  8.50000000E-01  8.50000000E-01  8.50000000E-01  8.50000000E-01
  8.50000000E-01  8.50000000E-01  8.50000000E-01  8.50000000E-01  8.50000000E-01
  8.50000000E-01  8.50000000E-01  8.50000000E-01  8.50000000E-01  8.50000000E-01
  8.50000000E-01  8.50000000E-01  8.50000000E-01  8.50000000E-01  8.50000000E-01
  8.50000000E-01  8.50000000E-01  8.50000000E-01  8.50000000E-01  8.50000000E-01
  8.50000000E-01  8.50000000E-01  8.50000000E-01  8.50000000E-01  8.50000000E-01
  8.50000000E-01  8.50000000E-01  8.50000000E-01  8.50000000E-01  8.50000000E-01
  8.50000000E-01  8.50000000E-01  8.50000000E-01  8.50000000E-01  8.50000000E-01
  8.50000000E-01  8.50000000E-01  8.50000000E-01  8.50000000E-01  8.50000000E-01
  8.50000000E-01  8.50000000E-01  8.50000000E-01  8.50000000E-01  8.50000000E-01
  8.50000000E-01  8.50000000E-01  8.50000000E-01  8.50000000E-01  8.50000000E-01
  8.50000000E-01  8.50000000E-01  8.50000000E-01  8.50000000E-01  8.50000000E-01
  8.50000000E-01  8.50000000E-01  8.50000000E-01  8.50000000E-01  8.50000000E-01
  8.50000000E-01  8.50000000E-01  8.50000000E-01  8.50000000E-01  8.50000000E-01
  8.50000000E-01  8.50000000E-01  8.50000000E-01  8.50000000E-01  8.50000000E-01
  8.50000000E-01  8.50000000E-01  8.50000000E-01  8.50000000E-01  8.50000000E-01
  8.50000000E-01  8.50000000E-01  8.50000000E-01  8.50000000E-01  8.50000000E-01
  8.50000000E-01  8.50000000E-01  8.50000000E-01  8.50000000E-01  8.50000000E-01
  8.50000000E-01  8.50000000E-01  8.50000000E-01  8.50000000E-01  8.50000000E-01
  8.50000000E-01  8.50000000E-01  8.50000000E-01  8.50000000E-01  8.50000000E-01
  8.50000000E-01  8.50000000E-01  8.50000000E-01  8.50000000E-01  8.50000000E-01
  8.50000000E-01  8.50000000E-01  8.50000000E-01  8.50000000E-01  8.50000000E-01
  8.50000000E-01  8.50000000E-01  8.50000000E-01  8.50000000E-01  8.50000000E-01
  8.50000000E-01  8.50000000E-01  8.50000000E-01  8.50000000E-01  8.50000000E-01
  8.50000000E-01  8.50000000E-01  8.50000000E-01  8.50000000E-01  8.50000000E-01
  8.50000000E-01  8.50000000E-01  8.50000000E-01  8.50000000E-01  8.50000000E-01
  8.50000000E-01  8.50000000E-01  8.50000000E-01  8.50000000E-01  8.50000000E-01
  8.50000000E-01  8.50000000E-01  8.50000000E-01  8.50000000E-01  8.50000000E-01
  8.50000000E-01  8.50000000E-01  8.50000000E-01  8.50000000E-01  8.50000000E-01
  8.50000000E-01  8.50000000E-01  8.50000000E-01  8.50000000E-01  8.50000000E-01
  8.50000000E-01  8.50000000E-01  8.50000000E-01  8.50000000E-01  8.50000000E-01
  8.50000000E-01  8.50000000E-01  8.50000000E-01  8.50000000E-01  8.50000000E-01
  8.50000000E-01  8.50000000E-01  8.50000000E-01  8.50000000E-01  8.50000000E-01
  8.50000000E-01  8.50000000E-01  8.50000000E-01  8.50000000E-01  8.50000000E-01
  8.50000000E-01  8.50000000E-01  8.50000000E-01  8.50000000E-01  8.50000000E-01
  8.50000000E-01  8.50000000E-01  8.50000000E-01  8.50000000E-01  8.50000000E-01
  8.50000000E-01  8.50000000E-01  8.50000000E-01  8.50000000E-01  8.50000000E-01
  8.50000000E-01  8.50000000E-01  8.50000000E-01  8.50000000E-01  8.50000000E-01
  8.50000000E-01  8.50000000E-01  8.50000000E-01  8.50000000E-01  8.50000000E-01
  8.50000000E-01  8.50000000E-01  8.50000000E-01  8.50000000E-01  8.50000000E-01
  8.50000000E-01  8.50000000E-01  8.50000000E-01  8.50000000E-01  8.50000000E-01
  8.50000000E-01  8.50000000E-01  8.50000000E-01  8.50000000E-01  8.50000000E-01
  8.50000000E-01  8.50000000E-01  8.50000000E-01  8.50000000E-01  8.50000000E-01
  8.50000000E-01  8.50000000E-01  8.50000000E-01  8.50000000E-01  8.50000000E-01
  8.50000000E-01  8.50000000E-01  8.50000000E-01  8.50000000E-01  8.50000000E-01
  8.50000000E-01  8.50000000E-01  8.50000000E-01  8.50000000E-01  8.50000000E-01
  8.50000000E-01  8.50000000E-01  8.50000000E-01  8.50000000E-01  8.50000000E-01
  8.50000000E-01  8.50000000E-01  8.50000000E-01  8.50000000E-01  8.50000000E-01
  8.50000000E-01  8.50000000E-01  8.50000000E-01  8.50000000E-01  8.50000000E-01
  8.50000000E-01  8.50000000E-01  8.50000000E-01  8.50000000E-01  8.50000000E-01
  8.50000000E-01  8.50000000E-01  8.50000000E-01  8.50000000E-01  8.50000000E-01
  8.50000000E-01  8.50000000E-01  8.50000000E-01  8.50000000E-01  8.50000000E-01
  8.50000000E-01  8.50000000E-01  8.50000000E-01  8.50000000E-01  8.50000000E-01
  8.50000000E-01  8.50000000E-01  8.50000000E-01  8.50000000E-01  8.50000000E-01
  8.50000000E-01  8.50000000E-01  8.50000000E-01  8.50000000E-01  8.50000000E-01
  8.50000000E-01  8.50000000E-01  8.50000000E-01  8.50000000E-01  8.50000000E-01
  8.50000000E-01  8.50000000E-01  8.50000000E-01  8.50000000E-01  8.50000000E-01
  8.50000000E-01  8.50000000E-01  8.50000000E-01  8.50000000E-01  8.50000000E-01
  8.50000000E-01  8.50000000E-01  8.50000000E-01  8.50000000E-01  8.50000000E-01
  8.50000000E-01  8.50000000E-01  8.50000000E-01  8.50000000E-01  8.50000000E-01
  8.50000000E-01  8.50000000E-01  8.50000000E-01  8.50000000E-01  8.50000000E-01
  8.50000000E-01  8.50000000E-01  8.50000000E-01  8.50000000E-01  8.50000000E-01
  8.50000000E-01  8.50000000E-01  8.50000000E-01  8.50000000E-01  8.50000000E-01
  8.50000000E-01  8.50000000E-01  8.50000000E-01  8.50000000E-01  8.50000000E-01
  8.50000000E-01  8.50000000E-01  8.50000000E-01  8.50000000E-01  8.50000000E-01
  8.50000000E-01  8.50000000E-01  8.50000000E-01  8.50000000E-01  8.50000000E-01
  8.50000000E-01  8.50000000E-01  8.50000000E-01  8.50000000E-01  8.50000000E-01
  8.50000000E-01  8.50000000E-01  8.50000000E-01  8.50000000E-01  8.50000000E-01
  8.50000000E-01  8.50000000E-01  8.50000000E-01  8.50000000E-01  8.50000000E-01
  8.50000000E-01  8.50000000E-01  8.50000000E-01  8.50000000E-01  8.50000000E-01
  8.50000000E-01  8.50000000E-01  8.50000000E-01  8.50000000E-01  8.50000000E-01
  8.50000000E-01  8.50000000E-01  8.50000000E-01  8.50000000E-01  8.50000000E-01
  8.50000000E-01  8.50000000E-01  8.50000000E-01  8.50000000E-01  8.50000000E-01
  8.50000000E-01  8.50000000E-01  8.50000000E-01  8.50000000E-01  8.50000000E-01
  8.50000000E-01  8.50000000E-01  8.50000000E-01  8.50000000E-01  8.50000000E-01
  8.50000000E-01  8.50000000E-01  8.50000000E-01  8.50000000E-01  8.50000000E-01
  8.50000000E-01  8.50000000E-01  8.50000000E-01  8.50000000E-01  8.50000000E-01
  8.50000000E-01  8.50000000E-01  8.50000000E-01  8.50000000E-01  8.50000000E-01
  8.50000000E-01  8.50000000E-01  8.50000000E-01  8.50000000E-01  8.50000000E-01
  8.50000000E-01  8.50000000E-01  8.50000000E-01  8.50000000E-01  8.50000000E-01
  8.50000000E-01  8.50000000E-01  8.50000000E-01  8.50000000E-01  8.50000000E-01
  8.50000000E-01  8.50000000E-01  8.50000000E-01  8.50000000E-01  8.50000000E-01
  8.50000000E-01  8.50000000E-01  8.50000000E-01  8.50000000E-01  8.50000000E-01
  8.50000000E-01  8.50000000E-01  8.50000000E-01  8.50000000E-01  8.50000000E-01
  8.50000000E-01  8.50000000E-01  8.50000000E-01  8.50000000E-01  8.50000000E-01
  8.50000000E-01  8.50000000E-01  8.50000000E-01  8.50000000E-01  8.50000000E-01
  8.50000000E-01  8.50000000E-01  8.50000000E-01  8.50000000E-01  8.50000000E-01
  8.50000000E-01  8.50000000E-01  8.50000000E-01  8.50000000E-01  8.50000000E-01
  8.50000000E-01  8.50000000E-01  8.50000000E-01  8.50000000E-01  8.50000000E-01
  8.50000000E-01  8.50000000E-01  8.50000000E-01  8.50000000E-01  8.50000000E-01
  8.50000000E-01  8.50000000E-01  8.50000000E-01  8.50000000E-01  8.50000000E-01
  8.50000000E-01  8.50000000E-01  8.50000000E-01  8.50000000E-01  8.50000000E-01
  8.50000000E-01  8.50000000E-01  8.50000000E-01  8.50000000E-01  8.50000000E-01
  8.50000000E-01  8.50000000E-01  8.50000000E-01  8.50000000E-01  8.50000000E-01
  8.50000000E-01  8.50000000E-01  8.50000000E-01  8.50000000E-01  8.50000000E-01
  8.50000000E-01  8.50000000E-01  8.50000000E-01  8.50000000E-01  8.50000000E-01
  8.50000000E-01  8.50000000E-01  8.50000000E-01  8.50000000E-01  8.50000000E-01
  8.50000000E-01  8.50000000E-01  8.50000000E-01  8.50000000E-01  8.50000000E-01
  8.50000000E-01  8.50000000E-01  8.50000000E-01  8.50000000E-01  8.50000000E-01
  8.50000000E-01  8.50000000E-01  8.50000000E-01  8.50000000E-01  8.50000000E-01
  8.50000000E-01  8.50000000E-01  8.50000000E-01  8.50000000E-01  8.50000000E-01
  8.50000000E-01  8.50000000E-01  8.50000000E-01  8.50000000E-01  8.50000000E-01
  8.50000000E-01  8.50000000E-01  8.50000000E-01  8.50000000E-01  8.50000000E-01
  8.50000000E-01  8.50000000E-01  8.50000000E-01  8.50000000E-01  8.50000000E-01
  8.50000000E-01  8.50000000E-01  8.50000000E-01  8.50000000E-01  8.50000000E-01
  8.50000000E-01  8.50000000E-01  8.50000000E-01  8.50000000E-01  8.50000000E-01
  8.50000000E-01  8.50000000E-01  8.50000000E-01  8.50000000E-01  8.50000000E-01
  8.50000000E-01  8.50000000E-01  8.50000000E-01  8.50000000E-01  8.50000000E-01
  8.50000000E-01  8.50000000E-01  8.50000000E-01  8.50000000E-01  8.50000000E-01
  8.50000000E-01  8.50000000E-01  8.50000000E-01  8.50000000E-01  8.50000000E-01
  8.50000000E-01  8.50000000E-01  8.50000000E-01  8.50000000E-01  8.50000000E-01
  8.50000000E-01  8.50000000E-01  8.50000000E-01  8.50000000E-01  8.50000000E-01
  8.50000000E-01  8.50000000E-01  8.50000000E-01  8.50000000E-01  8.50000000E-01
  8.50000000E-01  8.50000000E-01  8.50000000E-01  8.50000000E-01  8.50000000E-01
  8.50000000E-01  8.50000000E-01  8.50000000E-01  8.50000000E-01  8.50000000E-01
  8.50000000E-01  8.50000000E-01  8.50000000E-01  8.50000000E-01  8.50000000E-01
  8.50000000E-01  8.50000000E-01  8.50000000E-01  8.50000000E-01  8.50000000E-01
  8.50000000E-01  8.50000000E-01  8.50000000E-01  8.50000000E-01  8.50000000E-01
  8.50000000E-01  8.50000000E-01  8.50000000E-01  8.50000000E-01  8.50000000E-01
  8.50000000E-01  8.50000000E-01  8.50000000E-01  8.50000000E-01  8.50000000E-01
  8.50000000E-01  8.50000000E-01  8.50000000E-01  8.50000000E-01  8.50000000E-01
  8.50000000E-01  8.50000000E-01  8.50000000E-01  8.50000000E-01  8.50000000E-01
  8.50000000E-01  8.50000000E-01  8.50000000E-01  8.50000000E-01  8.50000000E-01
  8.50000000E-01  8.50000000E-01  8.50000000E-01  8.50000000E-01  8.50000000E-01
  8.50000000E-01  8.50000000E-01  8.50000000E-01  8.50000000E-01  8.50000000E-01
  8.50000000E-01  8.50000000E-01  8.50000000E-01  8.50000000E-01  8.50000000E-01
  8.50000000E-01  8.50000000E-01  8.50000000E-01  8.50000000E-01  8.50000000E-01
  8.50000000E-01  8.50000000E-01  8.50000000E-01  8.50000000E-01  8.50000000E-01
  8.50000000E-01  8.50000000E-01  8.50000000E-01  8.50000000E-01  8.50000000E-01
  8.50000000E-01  8.50000000E-01  8.50000000E-01  8.50000000E-01  8.50000000E-01
  8.50000000E-01  8.50000000E-01  8.50000000E-01  8.50000000E-01  8.50000000E-01
  8.50000000E-01  8.50000000E-01  8.50000000E-01  8.50000000E-01  8.50000000E-01
  8.50000000E-01  8.50000000E-01  8.50000000E-01  8.50000000E-01  8.50000000E-01
  8.50000000E-01  8.50000000E-01  8.50000000E-01  8.50000000E-01  8.50000000E-01
  8.50000000E-01  8.50000000E-01  8.50000000E-01  8.50000000E-01  8.50000000E-01
  8.50000000E-01  8.50000000E-01  8.50000000E-01  8.50000000E-01  8.50000000E-01
  8.50000000E-01  8.50000000E-01  8.50000000E-01  8.50000000E-01  8.50000000E-01
  8.50000000E-01  8.50000000E-01  8.50000000E-01  8.50000000E-01  8.50000000E-01
  8.50000000E-01  8.50000000E-01  8.50000000E-01  8.50000000E-01  8.50000000E-01
  8.50000000E-01  8.50000000E-01  8.50000000E-01  8.50000000E-01  8.50000000E-01
  8.50000000E-01  8.50000000E-01  8.50000000E-01  8.50000000E-01  8.50000000E-01
  8.50000000E-01  8.50000000E-01  8.50000000E-01  8.50000000E-01  8.50000000E-01
  8.50000000E-01  8.50000000E-01  8.50000000E-01  8.50000000E-01  8.50000000E-01
  8.50000000E-01  8.50000000E-01  8.50000000E-01  8.50000000E-01  8.50000000E-01
  8.50000000E-01  8.50000000E-01  8.50000000E-01  8.50000000E-01  8.50000000E-01
  8.50000000E-01  8.50000000E-01  8.50000000E-01  8.50000000E-01  8.50000000E-01
  8.50000000E-01  8.50000000E-01  8.50000000E-01  8.50000000E-01  8.50000000E-01
  8.50000000E-01  8.50000000E-01  8.50000000E-01  8.50000000E-01  8.50000000E-01
  8.50000000E-01  8.50000000E-01  8.50000000E-01  8.50000000E-01  8.50000000E-01
  8.50000000E-01  8.50000000E-01  8.50000000E-01  8.50000000E-01  8.50000000E-01
  8.50000000E-01  8.50000000E-01  8.50000000E-01  8.50000000E-01  8.50000000E-01
  8.50000000E-01  8.50000000E-01  8.50000000E-01  8.50000000E-01  8.50000000E-01
  8.50000000E-01  8.50000000E-01  8.50000000E-01  8.50000000E-01  8.50000000E-01
  8.50000000E-01  8.50000000E-01  8.50000000E-01  8.50000000E-01  8.50000000E-01
  8.50000000E-01  8.50000000E-01  8.50000000E-01  8.50000000E-01  8.50000000E-01
  8.50000000E-01  8.50000000E-01  8.50000000E-01  8.50000000E-01  8.50000000E-01
  8.50000000E-01  8.50000000E-01  8.50000000E-01  8.50000000E-01  8.50000000E-01
  8.50000000E-01  8.50000000E-01  8.50000000E-01  8.50000000E-01  8.50000000E-01
  8.50000000E-01  8.50000000E-01  8.50000000E-01  8.50000000E-01  8.50000000E-01
  8.50000000E-01  8.50000000E-01  8.50000000E-01  8.50000000E-01  8.50000000E-01
  8.50000000E-01  8.50000000E-01  8.50000000E-01  8.50000000E-01  8.50000000E-01
  8.50000000E-01  8.50000000E-01  8.50000000E-01  8.50000000E-01  8.50000000E-01
  8.50000000E-01  8.50000000E-01  8.50000000E-01  8.50000000E-01  8.50000000E-01
  8.50000000E-01  8.50000000E-01  8.50000000E-01  8.50000000E-01  8.50000000E-01
  8.50000000E-01  8.50000000E-01  8.50000000E-01  8.50000000E-01  8.50000000E-01
  8.50000000E-01  8.50000000E-01  8.50000000E-01  8.50000000E-01  8.50000000E-01
  8.50000000E-01  8.50000000E-01  8.50000000E-01  8.50000000E-01  8.50000000E-01
  8.50000000E-01  8.50000000E-01  8.50000000E-01  8.50000000E-01  8.50000000E-01
  8.50000000E-01  8.50000000E-01  8.50000000E-01  8.50000000E-01  8.50000000E-01
  8.50000000E-01  8.50000000E-01  8.50000000E-01  8.50000000E-01  8.50000000E-01
  8.50000000E-01  8.50000000E-01  8.50000000E-01  8.50000000E-01  8.50000000E-01
  8.50000000E-01  8.50000000E-01  8.50000000E-01  8.50000000E-01  8.50000000E-01
  8.50000000E-01  8.50000000E-01  8.50000000E-01  8.50000000E-01  8.50000000E-01
  8.50000000E-01  8.50000000E-01  8.50000000E-01  8.50000000E-01  8.50000000E-01
  8.50000000E-01  8.50000000E-01  8.50000000E-01  8.50000000E-01  8.50000000E-01
  8.50000000E-01  8.50000000E-01  8.50000000E-01  8.50000000E-01  8.50000000E-01
  8.50000000E-01  8.50000000E-01  8.50000000E-01  8.50000000E-01  8.50000000E-01
  8.50000000E-01  8.50000000E-01  8.50000000E-01  8.50000000E-01  8.50000000E-01
  8.50000000E-01  8.50000000E-01  8.50000000E-01  8.50000000E-01  8.50000000E-01
  8.50000000E-01  8.50000000E-01  8.50000000E-01  8.50000000E-01  8.50000000E-01
  8.50000000E-01  8.50000000E-01  8.50000000E-01  8.50000000E-01  8.50000000E-01
  8.50000000E-01  8.50000000E-01  8.50000000E-01  8.50000000E-01  8.50000000E-01
  8.50000000E-01  8.50000000E-01  8.50000000E-01  8.50000000E-01  8.50000000E-01
  8.50000000E-01  8.50000000E-01  8.50000000E-01  8.50000000E-01  8.50000000E-01
  8.50000000E-01  8.50000000E-01  8.50000000E-01  8.50000000E-01  8.50000000E-01
  8.50000000E-01  8.50000000E-01  8.50000000E-01  8.50000000E-01  8.50000000E-01
  8.50000000E-01  8.50000000E-01  8.50000000E-01  8.50000000E-01  8.50000000E-01
  8.50000000E-01  8.50000000E-01  8.50000000E-01  8.50000000E-01  8.50000000E-01
  8.50000000E-01  8.50000000E-01  8.50000000E-01  8.50000000E-01  8.50000000E-01
  8.50000000E-01  8.50000000E-01  8.50000000E-01  8.50000000E-01  8.50000000E-01
  8.50000000E-01  8.50000000E-01  8.50000000E-01  8.50000000E-01  8.50000000E-01
  8.50000000E-01  8.50000000E-01  8.50000000E-01  8.50000000E-01  8.50000000E-01
  8.50000000E-01  8.50000000E-01  8.50000000E-01  8.50000000E-01  8.50000000E-01
  8.50000000E-01  8.50000000E-01  8.50000000E-01  8.50000000E-01  8.50000000E-01
  8.50000000E-01  8.50000000E-01  8.50000000E-01  8.50000000E-01  8.50000000E-01
  8.50000000E-01  8.50000000E-01  8.50000000E-01  8.50000000E-01  8.50000000E-01
  8.50000000E-01  8.50000000E-01  8.50000000E-01  8.50000000E-01  8.50000000E-01
  8.50000000E-01  8.50000000E-01  8.50000000E-01  8.50000000E-01  8.50000000E-01
  8.50000000E-01  8.50000000E-01  8.50000000E-01  8.50000000E-01  8.50000000E-01
  8.50000000E-01  8.50000000E-01  8.50000000E-01  8.50000000E-01  8.50000000E-01
  8.50000000E-01  8.50000000E-01  8.50000000E-01  8.50000000E-01  8.50000000E-01
  8.50000000E-01  8.50000000E-01  8.50000000E-01  8.50000000E-01  8.50000000E-01
  8.50000000E-01  8.50000000E-01  8.50000000E-01  8.50000000E-01  8.50000000E-01
  8.50000000E-01  8.50000000E-01  8.50000000E-01  8.50000000E-01  8.50000000E-01
  8.50000000E-01  8.50000000E-01  8.50000000E-01  8.50000000E-01  8.50000000E-01
  8.50000000E-01  8.50000000E-01  8.50000000E-01  8.50000000E-01  8.50000000E-01
  8.50000000E-01  8.50000000E-01  8.50000000E-01  8.50000000E-01  8.50000000E-01
  8.50000000E-01  8.50000000E-01  8.50000000E-01  8.50000000E-01  8.50000000E-01
  8.50000000E-01  8.50000000E-01  8.50000000E-01  8.50000000E-01  8.50000000E-01
  8.50000000E-01  8.50000000E-01  8.50000000E-01  8.50000000E-01  8.50000000E-01
  8.50000000E-01  8.50000000E-01  8.50000000E-01  8.50000000E-01  8.50000000E-01
  8.50000000E-01  8.50000000E-01  8.50000000E-01  8.50000000E-01  8.50000000E-01
  8.50000000E-01  8.50000000E-01  8.50000000E-01  8.50000000E-01  8.50000000E-01
  8.50000000E-01  8.50000000E-01  8.50000000E-01  8.50000000E-01  8.50000000E-01
  8.50000000E-01  8.50000000E-01  8.50000000E-01  8.50000000E-01  8.50000000E-01
  8.50000000E-01  8.50000000E-01  8.50000000E-01  8.50000000E-01  8.50000000E-01
  8.50000000E-01  8.50000000E-01  8.50000000E-01  8.50000000E-01  8.50000000E-01
  8.50000000E-01  8.50000000E-01  8.50000000E-01  8.50000000E-01  8.50000000E-01
  8.50000000E-01  8.50000000E-01  8.50000000E-01  8.50000000E-01  8.50000000E-01
  8.50000000E-01  8.50000000E-01  8.50000000E-01  8.50000000E-01  8.50000000E-01
  8.50000000E-01  8.50000000E-01  8.50000000E-01  8.50000000E-01  8.50000000E-01
  8.50000000E-01  8.50000000E-01  8.50000000E-01  8.50000000E-01  8.50000000E-01
  8.50000000E-01  8.50000000E-01  8.50000000E-01  8.50000000E-01  8.50000000E-01
  8.50000000E-01  8.50000000E-01  8.50000000E-01  8.50000000E-01  8.50000000E-01
  8.50000000E-01  8.50000000E-01  8.50000000E-01  8.50000000E-01  8.50000000E-01
  8.50000000E-01  8.50000000E-01  8.50000000E-01  8.50000000E-01  8.50000000E-01
  8.50000000E-01  8.50000000E-01  8.50000000E-01  8.50000000E-01  8.50000000E-01
  8.50000000E-01  8.50000000E-01  8.50000000E-01  8.50000000E-01  8.50000000E-01
  8.50000000E-01  8.50000000E-01  8.50000000E-01  8.50000000E-01  8.50000000E-01
  8.50000000E-01  8.50000000E-01  8.50000000E-01  8.50000000E-01  8.50000000E-01
  8.50000000E-01  8.50000000E-01  8.50000000E-01  8.50000000E-01  8.50000000E-01
  8.50000000E-01  8.50000000E-01  8.50000000E-01  8.50000000E-01  8.50000000E-01
  8.50000000E-01  8.50000000E-01  8.50000000E-01  8.50000000E-01  8.50000000E-01
  8.50000000E-01  8.50000000E-01  8.50000000E-01  8.50000000E-01  8.50000000E-01
  8.50000000E-01  8.50000000E-01  8.50000000E-01  8.50000000E-01  8.50000000E-01
  8.50000000E-01  8.50000000E-01  8.50000000E-01  8.50000000E-01  8.50000000E-01
  8.50000000E-01  8.50000000E-01  8.50000000E-01  8.50000000E-01  8.50000000E-01
  8.50000000E-01  8.50000000E-01  8.50000000E-01  8.50000000E-01  8.50000000E-01
  8.50000000E-01  8.50000000E-01  8.50000000E-01  8.50000000E-01  8.50000000E-01
  8.50000000E-01  8.50000000E-01  8.50000000E-01  8.50000000E-01  8.50000000E-01
  8.50000000E-01  8.50000000E-01  8.50000000E-01  8.50000000E-01  8.50000000E-01
  8.50000000E-01  8.50000000E-01  8.50000000E-01  8.50000000E-01  8.50000000E-01
  8.50000000E-01  8.50000000E-01  8.50000000E-01  8.50000000E-01  8.50000000E-01
  8.50000000E-01  8.50000000E-01  8.50000000E-01  8.50000000E-01  8.50000000E-01
  8.50000000E-01  8.50000000E-01  8.50000000E-01  8.50000000E-01  8.50000000E-01
  8.50000000E-01  8.50000000E-01  8.50000000E-01  8.50000000E-01  8.50000000E-01
  8.50000000E-01  8.50000000E-01  8.50000000E-01  8.50000000E-01  8.50000000E-01
  8.50000000E-01  8.50000000E-01  8.50000000E-01  8.50000000E-01  8.50000000E-01
  8.50000000E-01  8.50000000E-01  8.50000000E-01  8.50000000E-01  8.50000000E-01
  8.50000000E-01  8.50000000E-01  8.50000000E-01  8.50000000E-01  8.50000000E-01
  8.50000000E-01  8.50000000E-01  8.50000000E-01  8.50000000E-01  8.50000000E-01
  8.50000000E-01  8.50000000E-01  8.50000000E-01  8.50000000E-01  8.50000000E-01
  8.50000000E-01  8.50000000E-01  8.50000000E-01  8.50000000E-01  8.50000000E-01
  8.50000000E-01  8.50000000E-01  8.50000000E-01  8.50000000E-01  8.50000000E-01
  8.50000000E-01  8.50000000E-01  8.50000000E-01  8.50000000E-01  8.50000000E-01
  8.50000000E-01  8.50000000E-01  8.50000000E-01  8.50000000E-01  8.50000000E-01
  8.50000000E-01  8.50000000E-01  8.50000000E-01  8.50000000E-01  8.50000000E-01
  8.50000000E-01  8.50000000E-01  8.50000000E-01  8.50000000E-01  8.50000000E-01
  8.50000000E-01  8.50000000E-01  8.50000000E-01  8.50000000E-01  8.50000000E-01
  8.50000000E-01  8.50000000E-01  8.50000000E-01  8.50000000E-01  8.50000000E-01
  8.50000000E-01  8.50000000E-01  8.50000000E-01  8.50000000E-01  8.50000000E-01
  8.50000000E-01  8.50000000E-01  8.50000000E-01  8.50000000E-01  8.50000000E-01
  8.50000000E-01  8.50000000E-01  8.50000000E-01  8.50000000E-01  8.50000000E-01
  8.50000000E-01  8.50000000E-01  8.50000000E-01  8.50000000E-01  8.50000000E-01
  8.50000000E-01  8.50000000E-01  8.50000000E-01  8.50000000E-01  8.50000000E-01
  8.50000000E-01  8.50000000E-01  8.50000000E-01  8.50000000E-01  8.50000000E-01
  8.50000000E-01  8.50000000E-01  8.50000000E-01  8.50000000E-01  8.50000000E-01
  8.50000000E-01  8.50000000E-01  8.50000000E-01  8.50000000E-01  8.50000000E-01
  8.50000000E-01  8.50000000E-01  8.50000000E-01  8.50000000E-01  8.50000000E-01
  8.50000000E-01  8.50000000E-01  8.50000000E-01  8.50000000E-01  8.50000000E-01
  8.50000000E-01  8.50000000E-01  8.50000000E-01  8.50000000E-01  8.50000000E-01
  8.50000000E-01  8.50000000E-01  8.50000000E-01  8.50000000E-01  8.50000000E-01
  8.50000000E-01  8.50000000E-01  8.50000000E-01  8.50000000E-01  8.50000000E-01
  8.50000000E-01  8.50000000E-01  8.50000000E-01  8.50000000E-01  8.50000000E-01
  8.50000000E-01  8.50000000E-01  8.50000000E-01  8.50000000E-01  8.50000000E-01
  8.50000000E-01  8.50000000E-01  8.50000000E-01  8.50000000E-01  8.50000000E-01
  8.50000000E-01  8.50000000E-01  8.50000000E-01  8.50000000E-01  8.50000000E-01
  8.50000000E-01  8.50000000E-01  8.50000000E-01  8.50000000E-01  8.50000000E-01
  8.50000000E-01  8.50000000E-01  8.50000000E-01  8.50000000E-01  8.50000000E-01
  8.50000000E-01  8.50000000E-01  8.50000000E-01  8.50000000E-01  8.50000000E-01
  8.50000000E-01  8.50000000E-01  8.50000000E-01  8.50000000E-01  8.50000000E-01
  8.50000000E-01  8.50000000E-01  8.50000000E-01  8.50000000E-01  8.50000000E-01
  8.50000000E-01  8.50000000E-01  8.50000000E-01  8.50000000E-01  8.50000000E-01
  8.50000000E-01  8.50000000E-01  8.50000000E-01  8.50000000E-01  8.50000000E-01
  8.50000000E-01  8.50000000E-01  8.50000000E-01  8.50000000E-01  8.50000000E-01
  8.50000000E-01  8.50000000E-01  8.50000000E-01  8.50000000E-01  8.50000000E-01
  8.50000000E-01  8.50000000E-01  8.50000000E-01  8.50000000E-01  8.50000000E-01
  8.50000000E-01  8.50000000E-01  8.50000000E-01  8.50000000E-01  8.50000000E-01
  8.50000000E-01  8.50000000E-01  8.50000000E-01  8.50000000E-01  8.50000000E-01
  8.50000000E-01  8.50000000E-01  8.50000000E-01  8.50000000E-01  8.50000000E-01
  8.50000000E-01  8.50000000E-01  8.50000000E-01  8.50000000E-01  8.50000000E-01
  8.50000000E-01  8.50000000E-01  8.50000000E-01  8.50000000E-01  8.50000000E-01
  8.50000000E-01  8.50000000E-01  8.50000000E-01  8.50000000E-01  8.50000000E-01
  8.50000000E-01  8.50000000E-01  8.50000000E-01  8.50000000E-01  8.50000000E-01
  8.50000000E-01  8.50000000E-01  8.50000000E-01  8.50000000E-01  8.50000000E-01
  8.50000000E-01  8.50000000E-01  8.50000000E-01  8.50000000E-01  8.50000000E-01
  8.50000000E-01  8.50000000E-01  8.50000000E-01  8.50000000E-01  8.50000000E-01
  8.50000000E-01  8.50000000E-01  8.50000000E-01  8.50000000E-01  8.50000000E-01
  8.50000000E-01  8.50000000E-01  8.50000000E-01  8.50000000E-01  8.50000000E-01
  8.50000000E-01  8.50000000E-01  8.50000000E-01  8.50000000E-01  8.50000000E-01
  8.50000000E-01  8.50000000E-01  8.50000000E-01  8.50000000E-01  8.50000000E-01
  8.50000000E-01  8.50000000E-01  8.50000000E-01  8.50000000E-01  8.50000000E-01
  8.50000000E-01  8.50000000E-01  8.50000000E-01  8.50000000E-01  8.50000000E-01
  8.50000000E-01  8.50000000E-01  8.50000000E-01  8.50000000E-01  8.50000000E-01
  8.50000000E-01  8.50000000E-01  8.50000000E-01  8.50000000E-01  8.50000000E-01
  8.50000000E-01  8.50000000E-01  8.50000000E-01  8.50000000E-01  8.50000000E-01
  8.50000000E-01  8.50000000E-01  8.50000000E-01  8.50000000E-01  8.50000000E-01
  8.50000000E-01  8.50000000E-01  8.50000000E-01  8.50000000E-01  8.50000000E-01
  8.50000000E-01  8.50000000E-01  8.50000000E-01  8.50000000E-01  8.50000000E-01
  8.50000000E-01  8.50000000E-01  8.50000000E-01  8.50000000E-01  8.50000000E-01
  8.50000000E-01  8.50000000E-01  8.50000000E-01  8.50000000E-01  8.50000000E-01
  8.50000000E-01  8.50000000E-01  8.50000000E-01  8.50000000E-01  8.50000000E-01
  8.50000000E-01  8.50000000E-01  8.50000000E-01  8.50000000E-01  8.50000000E-01
  8.50000000E-01  8.50000000E-01  8.50000000E-01  8.50000000E-01  8.50000000E-01
  8.50000000E-01  8.50000000E-01  8.50000000E-01  8.50000000E-01  8.50000000E-01
  8.50000000E-01  8.50000000E-01  8.50000000E-01  8.50000000E-01  8.50000000E-01
  8.50000000E-01  8.50000000E-01  8.50000000E-01  8.50000000E-01  8.50000000E-01
  8.50000000E-01  8.50000000E-01  8.50000000E-01  8.50000000E-01  8.50000000E-01
  8.50000000E-01  8.50000000E-01  8.50000000E-01  8.50000000E-01  8.50000000E-01
  8.50000000E-01  8.50000000E-01  8.50000000E-01  8.50000000E-01  8.50000000E-01
  8.50000000E-01  8.50000000E-01  8.50000000E-01  8.50000000E-01  8.50000000E-01
  8.50000000E-01  8.50000000E-01  8.50000000E-01  8.50000000E-01  8.50000000E-01
  8.50000000E-01  8.50000000E-01  8.50000000E-01  8.50000000E-01  8.50000000E-01
  8.50000000E-01  8.50000000E-01  8.50000000E-01  8.50000000E-01  8.50000000E-01
  8.50000000E-01  8.50000000E-01  8.50000000E-01  8.50000000E-01  8.50000000E-01
  8.50000000E-01  8.50000000E-01  8.50000000E-01  8.50000000E-01  8.50000000E-01
  8.50000000E-01  8.50000000E-01  8.50000000E-01  8.50000000E-01  8.50000000E-01
  8.50000000E-01  8.50000000E-01  8.50000000E-01  8.50000000E-01  8.50000000E-01
  8.50000000E-01  8.50000000E-01  8.50000000E-01  8.50000000E-01  8.50000000E-01
  8.50000000E-01  8.50000000E-01  8.50000000E-01  8.50000000E-01  8.50000000E-01
  8.50000000E-01  8.50000000E-01  8.50000000E-01  8.50000000E-01  8.50000000E-01
  8.50000000E-01  8.50000000E-01  8.50000000E-01  8.50000000E-01  8.50000000E-01
  8.50000000E-01  8.50000000E-01  8.50000000E-01  8.50000000E-01  8.50000000E-01
  8.50000000E-01  8.50000000E-01  8.50000000E-01  8.50000000E-01  8.50000000E-01
  8.50000000E-01  8.50000000E-01  8.50000000E-01  8.50000000E-01  8.50000000E-01
  8.50000000E-01  8.50000000E-01  8.50000000E-01  8.50000000E-01  8.50000000E-01
  8.50000000E-01  8.50000000E-01  8.50000000E-01  8.50000000E-01  8.50000000E-01
  8.50000000E-01  8.50000000E-01  8.50000000E-01  8.50000000E-01  8.50000000E-01
  8.50000000E-01  8.50000000E-01  8.50000000E-01  8.50000000E-01  8.50000000E-01
  8.50000000E-01  8.50000000E-01  8.50000000E-01  8.50000000E-01  8.50000000E-01
  8.50000000E-01  8.50000000E-01  8.50000000E-01  8.50000000E-01  8.50000000E-01
  8.50000000E-01  8.50000000E-01  8.50000000E-01  8.50000000E-01  8.50000000E-01
  8.50000000E-01  8.50000000E-01  8.50000000E-01  8.50000000E-01  8.50000000E-01
  8.50000000E-01  8.50000000E-01  8.50000000E-01  8.50000000E-01  8.50000000E-01
  8.50000000E-01  8.50000000E-01  8.50000000E-01  8.50000000E-01  8.50000000E-01
  8.50000000E-01  8.50000000E-01  8.50000000E-01  8.50000000E-01  8.50000000E-01
  8.50000000E-01  8.50000000E-01  8.50000000E-01  8.50000000E-01  8.50000000E-01
  8.50000000E-01  8.50000000E-01  8.50000000E-01  8.50000000E-01  8.50000000E-01
  8.50000000E-01  8.50000000E-01  8.50000000E-01  8.50000000E-01  8.50000000E-01
  8.50000000E-01  8.50000000E-01  8.50000000E-01  8.50000000E-01  8.50000000E-01
  8.50000000E-01  8.50000000E-01  8.50000000E-01  8.50000000E-01  8.50000000E-01
  8.50000000E-01  8.50000000E-01  8.50000000E-01  8.50000000E-01  8.50000000E-01
  8.50000000E-01  8.50000000E-01  8.50000000E-01  8.50000000E-01  8.50000000E-01
  8.50000000E-01  8.50000000E-01  8.50000000E-01  8.50000000E-01  8.50000000E-01
  8.50000000E-01  8.50000000E-01  8.50000000E-01  8.50000000E-01  8.50000000E-01
  8.50000000E-01  8.50000000E-01  8.50000000E-01  8.50000000E-01  8.50000000E-01
  8.50000000E-01  8.50000000E-01  8.50000000E-01  8.50000000E-01  8.50000000E-01
  8.50000000E-01  8.50000000E-01  8.50000000E-01  8.50000000E-01  8.50000000E-01
  8.50000000E-01  8.50000000E-01  8.50000000E-01  8.50000000E-01  8.50000000E-01
  8.50000000E-01  8.50000000E-01  8.50000000E-01  8.50000000E-01  8.50000000E-01
  8.50000000E-01  8.50000000E-01  8.50000000E-01  8.50000000E-01  8.50000000E-01
  8.50000000E-01  8.50000000E-01  8.50000000E-01  8.50000000E-01  8.50000000E-01
  8.50000000E-01  8.50000000E-01  8.50000000E-01  8.50000000E-01  8.50000000E-01
  8.50000000E-01  8.50000000E-01  8.50000000E-01  8.50000000E-01  8.50000000E-01
  8.50000000E-01  8.50000000E-01  8.50000000E-01  8.50000000E-01  8.50000000E-01
  8.50000000E-01  8.50000000E-01  8.50000000E-01  8.50000000E-01  8.50000000E-01
  8.50000000E-01  8.50000000E-01  8.50000000E-01  8.50000000E-01  8.50000000E-01
  8.50000000E-01  8.50000000E-01  8.50000000E-01  8.50000000E-01  8.50000000E-01
  8.50000000E-01  8.50000000E-01  8.50000000E-01  8.50000000E-01  8.50000000E-01
  8.50000000E-01  8.50000000E-01  8.50000000E-01  8.50000000E-01  8.50000000E-01
  8.50000000E-01  8.50000000E-01  8.50000000E-01  8.50000000E-01  8.50000000E-01
  8.50000000E-01  8.50000000E-01  8.50000000E-01  8.50000000E-01  8.50000000E-01
  8.50000000E-01  8.50000000E-01  8.50000000E-01  8.50000000E-01  8.50000000E-01
  8.50000000E-01  8.50000000E-01  8.50000000E-01  8.50000000E-01  8.50000000E-01
  8.50000000E-01  8.50000000E-01  8.50000000E-01  8.50000000E-01  8.50000000E-01
  8.50000000E-01  8.50000000E-01  8.50000000E-01  8.50000000E-01  8.50000000E-01
  8.50000000E-01  8.50000000E-01  8.50000000E-01  8.50000000E-01  8.50000000E-01
  8.50000000E-01  8.50000000E-01  8.50000000E-01  8.50000000E-01  8.50000000E-01
  8.50000000E-01  8.50000000E-01  8.50000000E-01  8.50000000E-01  8.50000000E-01
  8.50000000E-01  8.50000000E-01  8.50000000E-01  8.50000000E-01  8.50000000E-01
  8.50000000E-01  8.50000000E-01  8.50000000E-01  8.50000000E-01  8.50000000E-01
  8.50000000E-01  8.50000000E-01  8.50000000E-01  8.50000000E-01  8.50000000E-01
  8.50000000E-01  8.50000000E-01  8.50000000E-01  8.50000000E-01  8.50000000E-01
  8.50000000E-01  8.50000000E-01  8.50000000E-01  8.50000000E-01  8.50000000E-01
  8.50000000E-01  8.50000000E-01  8.50000000E-01  8.50000000E-01  8.50000000E-01
  8.50000000E-01  8.50000000E-01  8.50000000E-01  8.50000000E-01  8.50000000E-01
  8.50000000E-01  8.50000000E-01  8.50000000E-01  8.50000000E-01  8.50000000E-01
  8.50000000E-01  8.50000000E-01  8.50000000E-01  8.50000000E-01  8.50000000E-01
  8.50000000E-01  8.50000000E-01  8.50000000E-01  8.50000000E-01  8.50000000E-01
  8.50000000E-01  8.50000000E-01  8.50000000E-01  8.50000000E-01  8.50000000E-01
  8.50000000E-01  8.50000000E-01  8.50000000E-01  8.50000000E-01  8.50000000E-01
  8.50000000E-01  8.50000000E-01  8.50000000E-01  8.50000000E-01  8.50000000E-01
  8.50000000E-01  8.50000000E-01  8.50000000E-01  8.50000000E-01  8.50000000E-01
  8.50000000E-01  8.50000000E-01  8.50000000E-01  8.50000000E-01  8.50000000E-01
  8.50000000E-01  8.50000000E-01  8.50000000E-01  8.50000000E-01  8.50000000E-01
  8.50000000E-01  8.50000000E-01  8.50000000E-01  8.50000000E-01  8.50000000E-01
  8.50000000E-01  8.50000000E-01  8.50000000E-01  8.50000000E-01  8.50000000E-01
  8.50000000E-01  8.50000000E-01  8.50000000E-01  8.50000000E-01  8.50000000E-01
  8.50000000E-01  8.50000000E-01  8.50000000E-01  8.50000000E-01  8.50000000E-01
  8.50000000E-01  8.50000000E-01  8.50000000E-01  8.50000000E-01  8.50000000E-01
  8.50000000E-01  8.50000000E-01  8.50000000E-01  8.50000000E-01  8.50000000E-01
  8.50000000E-01  8.50000000E-01  8.50000000E-01  8.50000000E-01  8.50000000E-01
  8.50000000E-01  8.50000000E-01  8.50000000E-01  8.50000000E-01  8.50000000E-01
  8.50000000E-01  8.50000000E-01  8.50000000E-01  8.50000000E-01  8.50000000E-01
  8.50000000E-01  8.50000000E-01  8.50000000E-01  8.50000000E-01  8.50000000E-01
  8.50000000E-01  8.50000000E-01  8.50000000E-01  8.50000000E-01  8.50000000E-01
  8.50000000E-01  8.50000000E-01  8.50000000E-01  8.50000000E-01  8.50000000E-01
  8.50000000E-01  8.50000000E-01  8.50000000E-01  8.50000000E-01  8.50000000E-01
  8.50000000E-01  8.50000000E-01  8.50000000E-01  8.50000000E-01  8.50000000E-01
  8.50000000E-01  8.50000000E-01  8.50000000E-01  8.50000000E-01  8.50000000E-01
  8.50000000E-01  8.50000000E-01  8.50000000E-01  8.50000000E-01  8.50000000E-01
  8.50000000E-01  8.50000000E-01  8.50000000E-01  8.50000000E-01  8.50000000E-01
  8.50000000E-01  8.50000000E-01  8.50000000E-01  8.50000000E-01  8.50000000E-01
  8.50000000E-01  8.50000000E-01  8.50000000E-01  8.50000000E-01  8.50000000E-01
  8.50000000E-01  8.50000000E-01  8.50000000E-01  8.50000000E-01  8.50000000E-01
  8.50000000E-01  8.50000000E-01  8.50000000E-01  8.50000000E-01  8.50000000E-01
  8.50000000E-01  8.50000000E-01  8.50000000E-01  8.50000000E-01  8.50000000E-01
  8.50000000E-01  8.50000000E-01  8.50000000E-01  8.50000000E-01  8.50000000E-01
  8.50000000E-01  8.50000000E-01  8.50000000E-01  8.50000000E-01  8.50000000E-01
  8.50000000E-01  8.50000000E-01  8.50000000E-01  8.50000000E-01  8.50000000E-01
  8.50000000E-01  8.50000000E-01  8.50000000E-01  8.50000000E-01  8.50000000E-01
  8.50000000E-01  8.50000000E-01  8.50000000E-01  8.50000000E-01  8.50000000E-01
  8.50000000E-01  8.50000000E-01  8.50000000E-01  8.50000000E-01  8.50000000E-01
  8.50000000E-01  8.50000000E-01  8.50000000E-01  8.50000000E-01  8.50000000E-01
  8.50000000E-01  8.50000000E-01  8.50000000E-01  8.50000000E-01  8.50000000E-01
  8.50000000E-01  8.50000000E-01  8.50000000E-01  8.50000000E-01  8.50000000E-01
  8.50000000E-01  8.50000000E-01  8.50000000E-01  8.50000000E-01  8.50000000E-01
  8.50000000E-01  8.50000000E-01  8.50000000E-01  8.50000000E-01  8.50000000E-01
  8.50000000E-01  8.50000000E-01  8.50000000E-01  8.50000000E-01  8.50000000E-01
  8.50000000E-01  8.50000000E-01  8.50000000E-01  8.50000000E-01  8.50000000E-01
  8.50000000E-01  8.50000000E-01  8.50000000E-01  8.50000000E-01  8.50000000E-01
  8.50000000E-01  8.50000000E-01  8.50000000E-01  8.50000000E-01  8.50000000E-01
  8.50000000E-01  8.50000000E-01  8.50000000E-01  8.50000000E-01  8.50000000E-01
  8.50000000E-01  8.50000000E-01  8.50000000E-01  8.50000000E-01  8.50000000E-01
  8.50000000E-01  8.50000000E-01  8.50000000E-01  8.50000000E-01  8.50000000E-01
  8.50000000E-01  8.50000000E-01  8.50000000E-01  8.50000000E-01  8.50000000E-01
  8.50000000E-01  8.50000000E-01  8.50000000E-01  8.50000000E-01  8.50000000E-01
  8.50000000E-01  8.50000000E-01  8.50000000E-01  8.50000000E-01  8.50000000E-01
  8.50000000E-01  8.50000000E-01  8.50000000E-01  8.50000000E-01  8.50000000E-01
  8.50000000E-01  8.50000000E-01  8.50000000E-01  8.50000000E-01  8.50000000E-01
  8.50000000E-01  8.50000000E-01  8.50000000E-01  8.50000000E-01  8.50000000E-01
  8.50000000E-01  8.50000000E-01  8.50000000E-01  8.50000000E-01  8.50000000E-01
  8.50000000E-01  8.50000000E-01  8.50000000E-01  8.50000000E-01  8.50000000E-01
  8.50000000E-01  8.50000000E-01  8.50000000E-01  8.50000000E-01  8.50000000E-01
  8.50000000E-01  8.50000000E-01  8.50000000E-01  8.50000000E-01  8.50000000E-01
  8.50000000E-01  8.50000000E-01  8.50000000E-01  8.50000000E-01  8.50000000E-01
  8.50000000E-01  8.50000000E-01  8.50000000E-01  8.50000000E-01  8.50000000E-01
  8.50000000E-01  8.50000000E-01  8.50000000E-01  8.50000000E-01  8.50000000E-01
  8.50000000E-01  8.50000000E-01  8.50000000E-01  8.50000000E-01  8.50000000E-01
  8.50000000E-01  8.50000000E-01  8.50000000E-01  8.50000000E-01  8.50000000E-01
  8.50000000E-01  8.50000000E-01  8.50000000E-01  8.50000000E-01  8.50000000E-01
  8.50000000E-01  8.50000000E-01  8.50000000E-01  8.50000000E-01  8.50000000E-01
  8.50000000E-01  8.50000000E-01  8.50000000E-01  8.50000000E-01  8.50000000E-01
  8.50000000E-01  8.50000000E-01  8.50000000E-01  8.50000000E-01  8.50000000E-01
  8.50000000E-01  8.50000000E-01  8.50000000E-01  8.50000000E-01  8.50000000E-01
  8.50000000E-01  8.50000000E-01  8.50000000E-01  8.50000000E-01  8.50000000E-01
  8.50000000E-01  8.50000000E-01  8.50000000E-01  8.50000000E-01  8.50000000E-01
  8.50000000E-01  8.50000000E-01  8.50000000E-01  8.50000000E-01  8.50000000E-01
  8.50000000E-01  8.50000000E-01  8.50000000E-01  8.50000000E-01  8.50000000E-01
  8.50000000E-01  8.50000000E-01  8.50000000E-01  8.50000000E-01  8.50000000E-01
  8.50000000E-01  8.50000000E-01  8.50000000E-01  8.50000000E-01  8.50000000E-01
  8.50000000E-01  8.50000000E-01  8.50000000E-01  8.50000000E-01  8.50000000E-01
  8.50000000E-01  8.50000000E-01  8.50000000E-01  8.50000000E-01  8.50000000E-01
  8.50000000E-01  8.50000000E-01  8.50000000E-01  8.50000000E-01  8.50000000E-01
  8.50000000E-01  8.50000000E-01  8.50000000E-01  8.50000000E-01  8.50000000E-01
  8.50000000E-01  8.50000000E-01  8.50000000E-01  8.50000000E-01  8.50000000E-01
  8.50000000E-01  8.50000000E-01  8.50000000E-01  8.50000000E-01  8.50000000E-01
  8.50000000E-01  8.50000000E-01  8.50000000E-01  8.50000000E-01  8.50000000E-01
  8.50000000E-01  8.50000000E-01  8.50000000E-01  8.50000000E-01  8.50000000E-01
  8.50000000E-01  8.50000000E-01  8.50000000E-01  8.50000000E-01  8.50000000E-01
  8.50000000E-01  8.50000000E-01  8.50000000E-01  8.50000000E-01  8.50000000E-01
  8.50000000E-01  8.50000000E-01  8.50000000E-01  8.50000000E-01  8.50000000E-01
  8.50000000E-01  8.50000000E-01  8.50000000E-01  8.50000000E-01  8.50000000E-01
  8.50000000E-01  8.50000000E-01  8.50000000E-01  8.50000000E-01  8.50000000E-01
  8.50000000E-01  8.50000000E-01  8.50000000E-01  8.50000000E-01  8.50000000E-01
  8.50000000E-01  8.50000000E-01  8.50000000E-01  8.50000000E-01  8.50000000E-01
  8.50000000E-01  8.50000000E-01  8.50000000E-01  8.50000000E-01  8.50000000E-01
  8.50000000E-01  8.50000000E-01  8.50000000E-01  8.50000000E-01  8.50000000E-01
  8.50000000E-01  8.50000000E-01  8.50000000E-01  8.50000000E-01  8.50000000E-01
  8.50000000E-01  8.50000000E-01  8.50000000E-01  8.50000000E-01  8.50000000E-01
  8.50000000E-01  8.50000000E-01  8.50000000E-01  8.50000000E-01  8.50000000E-01
  8.50000000E-01  8.50000000E-01  8.50000000E-01  8.50000000E-01  8.50000000E-01
  8.50000000E-01  8.50000000E-01  8.50000000E-01  8.50000000E-01  8.50000000E-01
  8.50000000E-01  8.50000000E-01  8.50000000E-01  8.50000000E-01  8.50000000E-01
  8.50000000E-01  8.50000000E-01  8.50000000E-01  8.50000000E-01  8.50000000E-01
  8.50000000E-01  8.50000000E-01  8.50000000E-01  8.50000000E-01  8.50000000E-01
  8.50000000E-01  8.50000000E-01  8.50000000E-01  8.50000000E-01  8.50000000E-01
  8.50000000E-01  8.50000000E-01  8.50000000E-01  8.50000000E-01  8.50000000E-01
  8.50000000E-01  8.50000000E-01  8.50000000E-01  8.50000000E-01  8.50000000E-01
  8.50000000E-01  8.50000000E-01  8.50000000E-01  8.50000000E-01  8.50000000E-01
  8.50000000E-01  8.50000000E-01  8.50000000E-01  8.50000000E-01  8.50000000E-01
  8.50000000E-01  8.50000000E-01  8.50000000E-01  8.50000000E-01  8.50000000E-01
  8.50000000E-01  8.50000000E-01  8.50000000E-01  8.50000000E-01  8.50000000E-01
  8.50000000E-01  8.50000000E-01  8.50000000E-01  8.50000000E-01  8.50000000E-01
  8.50000000E-01  8.50000000E-01  8.50000000E-01  8.50000000E-01  8.50000000E-01
  8.50000000E-01  8.50000000E-01  8.50000000E-01  8.50000000E-01  8.50000000E-01
  8.50000000E-01  8.50000000E-01  8.50000000E-01  8.50000000E-01  8.50000000E-01
  8.50000000E-01  8.50000000E-01  8.50000000E-01  8.50000000E-01  8.50000000E-01
  8.50000000E-01  8.50000000E-01  8.50000000E-01  8.50000000E-01  8.50000000E-01
  8.50000000E-01  8.50000000E-01  8.50000000E-01  8.50000000E-01  8.50000000E-01
  8.50000000E-01  8.50000000E-01  8.50000000E-01  8.50000000E-01  8.50000000E-01
  8.50000000E-01  8.50000000E-01  8.50000000E-01  8.50000000E-01  8.50000000E-01
  8.50000000E-01  8.50000000E-01  8.50000000E-01  8.50000000E-01  8.50000000E-01
  8.50000000E-01  8.50000000E-01  8.50000000E-01  8.50000000E-01  8.50000000E-01
  8.50000000E-01  8.50000000E-01  8.50000000E-01  8.50000000E-01  8.50000000E-01
  8.50000000E-01  8.50000000E-01  8.50000000E-01  8.50000000E-01  8.50000000E-01
  8.50000000E-01  8.50000000E-01  8.50000000E-01  8.50000000E-01  8.50000000E-01
  8.50000000E-01  8.50000000E-01  8.50000000E-01  8.50000000E-01  8.50000000E-01
  8.50000000E-01  8.50000000E-01  8.50000000E-01  8.50000000E-01  8.50000000E-01
  8.50000000E-01  8.50000000E-01  8.50000000E-01  8.50000000E-01  8.50000000E-01
  8.50000000E-01  8.50000000E-01  8.50000000E-01  8.50000000E-01  8.50000000E-01
  8.50000000E-01  8.50000000E-01  8.50000000E-01  8.50000000E-01  8.50000000E-01
  8.50000000E-01  8.50000000E-01  8.50000000E-01  8.50000000E-01  8.50000000E-01
  8.50000000E-01  8.50000000E-01  8.50000000E-01  8.50000000E-01  8.50000000E-01
  8.50000000E-01  8.50000000E-01  8.50000000E-01  8.50000000E-01  8.50000000E-01
  8.50000000E-01  8.50000000E-01  8.50000000E-01  8.50000000E-01  8.50000000E-01
  8.50000000E-01  8.50000000E-01  8.50000000E-01  8.50000000E-01  8.50000000E-01
  8.50000000E-01  8.50000000E-01  8.50000000E-01  8.50000000E-01  8.50000000E-01
  8.50000000E-01  8.50000000E-01  8.50000000E-01  8.50000000E-01  8.50000000E-01
  8.50000000E-01  8.50000000E-01  8.50000000E-01  8.50000000E-01  8.50000000E-01
  8.50000000E-01  8.50000000E-01  8.50000000E-01  8.50000000E-01  8.50000000E-01
  8.50000000E-01  8.50000000E-01  8.50000000E-01  8.50000000E-01  8.50000000E-01
  8.50000000E-01  8.50000000E-01  8.50000000E-01  8.50000000E-01  8.50000000E-01
  8.50000000E-01  8.50000000E-01  8.50000000E-01  8.50000000E-01  8.50000000E-01
  8.50000000E-01  8.50000000E-01  8.50000000E-01  8.50000000E-01  8.50000000E-01
  8.50000000E-01  8.50000000E-01  8.50000000E-01  8.50000000E-01  8.50000000E-01
  8.50000000E-01  8.50000000E-01  8.50000000E-01  8.50000000E-01  8.50000000E-01
  8.50000000E-01  8.50000000E-01  8.50000000E-01  8.50000000E-01  8.50000000E-01
  8.50000000E-01  8.50000000E-01  8.50000000E-01  8.50000000E-01  8.50000000E-01
  8.50000000E-01  8.50000000E-01  8.50000000E-01  8.50000000E-01  8.50000000E-01
  8.50000000E-01  8.50000000E-01  8.50000000E-01  8.50000000E-01  8.50000000E-01
  8.50000000E-01  8.50000000E-01  8.50000000E-01  8.50000000E-01  8.50000000E-01
  8.50000000E-01  8.50000000E-01  8.50000000E-01  8.50000000E-01  8.50000000E-01
  8.50000000E-01  8.50000000E-01  8.50000000E-01  8.50000000E-01  8.50000000E-01
  8.50000000E-01  8.50000000E-01  8.50000000E-01  8.50000000E-01  8.50000000E-01
  8.50000000E-01  8.50000000E-01  8.50000000E-01  8.50000000E-01  8.50000000E-01
  8.50000000E-01  8.50000000E-01  8.50000000E-01  8.50000000E-01  8.50000000E-01
  8.50000000E-01  8.50000000E-01  8.50000000E-01  8.50000000E-01  8.50000000E-01
  8.50000000E-01  8.50000000E-01  8.50000000E-01  8.50000000E-01  8.50000000E-01
  8.50000000E-01  8.50000000E-01  8.50000000E-01  8.50000000E-01  8.50000000E-01
  8.50000000E-01  8.50000000E-01  8.50000000E-01  8.50000000E-01  8.50000000E-01
  8.50000000E-01  8.50000000E-01  8.50000000E-01  8.50000000E-01  8.50000000E-01
  8.50000000E-01  8.50000000E-01  8.50000000E-01  8.50000000E-01  8.50000000E-01
  8.50000000E-01  8.50000000E-01  8.50000000E-01  8.50000000E-01  8.50000000E-01
  8.50000000E-01  8.50000000E-01  8.50000000E-01  8.50000000E-01  8.50000000E-01
  8.50000000E-01  8.50000000E-01  8.50000000E-01  8.50000000E-01  8.50000000E-01
  8.50000000E-01  8.50000000E-01  8.50000000E-01  8.50000000E-01  8.50000000E-01
  8.50000000E-01  8.50000000E-01  8.50000000E-01  8.50000000E-01  8.50000000E-01
  8.50000000E-01  8.50000000E-01  8.50000000E-01  8.50000000E-01  8.50000000E-01
  8.50000000E-01  8.50000000E-01  8.50000000E-01  8.50000000E-01  8.50000000E-01
  8.50000000E-01  8.50000000E-01  8.50000000E-01  8.50000000E-01  8.50000000E-01
  8.50000000E-01  8.50000000E-01  8.50000000E-01  8.50000000E-01  8.50000000E-01
  8.50000000E-01  8.50000000E-01  8.50000000E-01  8.50000000E-01  8.50000000E-01
  8.50000000E-01  8.50000000E-01  8.50000000E-01  8.50000000E-01  8.50000000E-01
  8.50000000E-01  8.50000000E-01  8.50000000E-01  8.50000000E-01  8.50000000E-01
  8.50000000E-01  8.50000000E-01  8.50000000E-01  8.50000000E-01  8.50000000E-01
  8.50000000E-01  8.50000000E-01  8.50000000E-01  8.50000000E-01  8.50000000E-01
  8.50000000E-01  8.50000000E-01  8.50000000E-01  8.50000000E-01  8.50000000E-01
  8.50000000E-01  8.50000000E-01  8.50000000E-01  8.50000000E-01  8.50000000E-01
  8.50000000E-01  8.50000000E-01  8.50000000E-01  8.50000000E-01  8.50000000E-01
  8.50000000E-01  8.50000000E-01  8.50000000E-01  8.50000000E-01  8.50000000E-01
  8.50000000E-01  8.50000000E-01  8.50000000E-01  8.50000000E-01  8.50000000E-01
  8.50000000E-01  8.50000000E-01  8.50000000E-01  8.50000000E-01  8.50000000E-01
  8.50000000E-01  8.50000000E-01  8.50000000E-01  8.50000000E-01  8.50000000E-01
  8.50000000E-01  8.50000000E-01  8.50000000E-01  8.50000000E-01  8.50000000E-01
  8.50000000E-01  8.50000000E-01  8.50000000E-01  8.50000000E-01  8.50000000E-01
  8.50000000E-01  8.50000000E-01  8.50000000E-01  8.50000000E-01  8.50000000E-01
  8.50000000E-01  8.50000000E-01  8.50000000E-01  8.50000000E-01  8.50000000E-01
  8.50000000E-01  8.50000000E-01  8.50000000E-01  8.50000000E-01  8.50000000E-01
  8.50000000E-01  8.50000000E-01  8.50000000E-01  8.50000000E-01  8.50000000E-01
  8.50000000E-01  8.50000000E-01  8.50000000E-01  8.50000000E-01  8.50000000E-01
  8.50000000E-01  8.50000000E-01  8.50000000E-01  8.50000000E-01  8.50000000E-01
  8.50000000E-01  8.50000000E-01  8.50000000E-01  8.50000000E-01  8.50000000E-01
  8.50000000E-01  8.50000000E-01  8.50000000E-01  8.50000000E-01  8.50000000E-01
  8.50000000E-01  8.50000000E-01  8.50000000E-01  8.50000000E-01  8.50000000E-01
  8.50000000E-01  8.50000000E-01  8.50000000E-01  8.50000000E-01  8.50000000E-01
  8.50000000E-01  8.50000000E-01  8.50000000E-01  8.50000000E-01  8.50000000E-01
  8.50000000E-01  8.50000000E-01  8.50000000E-01  8.50000000E-01  8.50000000E-01
  8.50000000E-01  8.50000000E-01  8.50000000E-01  8.50000000E-01  8.50000000E-01
  8.50000000E-01  8.50000000E-01  8.50000000E-01  8.50000000E-01  8.50000000E-01
  8.50000000E-01  8.50000000E-01  8.50000000E-01  8.50000000E-01  8.50000000E-01
  8.50000000E-01  8.50000000E-01  8.50000000E-01  8.50000000E-01  8.50000000E-01
  8.50000000E-01  8.50000000E-01  8.50000000E-01  8.50000000E-01  8.50000000E-01
  8.50000000E-01  8.50000000E-01  8.50000000E-01  8.50000000E-01  8.50000000E-01
  8.50000000E-01  8.50000000E-01  8.50000000E-01  8.50000000E-01  8.50000000E-01
  8.50000000E-01  8.50000000E-01  8.50000000E-01  8.50000000E-01  8.50000000E-01
  8.50000000E-01  8.50000000E-01  8.50000000E-01  8.50000000E-01  8.50000000E-01
  8.50000000E-01  8.50000000E-01  8.50000000E-01  8.50000000E-01  8.50000000E-01
  8.50000000E-01  8.50000000E-01  8.50000000E-01  8.50000000E-01  8.50000000E-01
  8.50000000E-01  8.50000000E-01  8.50000000E-01  8.50000000E-01  8.50000000E-01
  8.50000000E-01  8.50000000E-01  8.50000000E-01  8.50000000E-01  8.50000000E-01
  8.50000000E-01  8.50000000E-01  8.50000000E-01  8.50000000E-01  8.50000000E-01
  8.50000000E-01  8.50000000E-01  8.50000000E-01  8.50000000E-01  8.50000000E-01
  8.50000000E-01  8.50000000E-01  8.50000000E-01  8.50000000E-01  8.50000000E-01
  8.50000000E-01  8.50000000E-01  8.50000000E-01  8.50000000E-01  8.50000000E-01
  8.50000000E-01  8.50000000E-01  8.50000000E-01  8.50000000E-01  8.50000000E-01
  8.50000000E-01  8.50000000E-01  8.50000000E-01  8.50000000E-01  8.50000000E-01
  8.50000000E-01  8.50000000E-01  8.50000000E-01  8.50000000E-01  8.50000000E-01
  8.50000000E-01  8.50000000E-01  8.50000000E-01  8.50000000E-01  8.50000000E-01
  8.50000000E-01  8.50000000E-01  8.50000000E-01  8.50000000E-01  8.50000000E-01
  8.50000000E-01  8.50000000E-01  8.50000000E-01  8.50000000E-01  8.50000000E-01
  8.50000000E-01  8.50000000E-01  8.50000000E-01  8.50000000E-01  8.50000000E-01
  8.50000000E-01  8.50000000E-01  8.50000000E-01  8.50000000E-01  8.50000000E-01
  8.50000000E-01  8.50000000E-01  8.50000000E-01  8.50000000E-01  8.50000000E-01
  8.50000000E-01  8.50000000E-01  8.50000000E-01  8.50000000E-01  8.50000000E-01
  8.50000000E-01  8.50000000E-01  8.50000000E-01  8.50000000E-01  8.50000000E-01
  8.50000000E-01  8.50000000E-01  8.50000000E-01  8.50000000E-01  8.50000000E-01
  8.50000000E-01  8.50000000E-01  8.50000000E-01  8.50000000E-01  8.50000000E-01
  8.50000000E-01  8.50000000E-01  8.50000000E-01  8.50000000E-01  8.50000000E-01
  8.50000000E-01  8.50000000E-01  8.50000000E-01  8.50000000E-01  8.50000000E-01
  8.50000000E-01  8.50000000E-01  8.50000000E-01  8.50000000E-01  8.50000000E-01
  8.50000000E-01  8.50000000E-01  8.50000000E-01  8.50000000E-01  8.50000000E-01
  8.50000000E-01  8.50000000E-01  8.50000000E-01  8.50000000E-01  8.50000000E-01
  8.50000000E-01  8.50000000E-01  8.50000000E-01  8.50000000E-01  8.50000000E-01
  8.50000000E-01  8.50000000E-01  8.50000000E-01  8.50000000E-01  8.50000000E-01
  8.50000000E-01  8.50000000E-01  8.50000000E-01  8.50000000E-01  8.50000000E-01
  8.50000000E-01  8.50000000E-01  8.50000000E-01  8.50000000E-01  8.50000000E-01
  8.50000000E-01  8.50000000E-01  8.50000000E-01  8.50000000E-01  8.50000000E-01
  8.50000000E-01  8.50000000E-01  8.50000000E-01  8.50000000E-01  8.50000000E-01
  8.50000000E-01  8.50000000E-01  8.50000000E-01  8.50000000E-01  8.50000000E-01
  8.50000000E-01  8.50000000E-01  8.50000000E-01  8.50000000E-01  8.50000000E-01
  8.50000000E-01  8.50000000E-01  8.50000000E-01  8.50000000E-01  8.50000000E-01
  8.50000000E-01  8.50000000E-01  8.50000000E-01  8.50000000E-01  8.50000000E-01
  8.50000000E-01  8.50000000E-01  8.50000000E-01  8.50000000E-01  8.50000000E-01
  8.50000000E-01  8.50000000E-01  8.50000000E-01  8.50000000E-01  8.50000000E-01
  8.50000000E-01  8.50000000E-01  8.50000000E-01  8.50000000E-01  8.50000000E-01
  8.50000000E-01  8.50000000E-01  8.50000000E-01  8.50000000E-01  8.50000000E-01
  8.50000000E-01  8.50000000E-01  8.50000000E-01  8.50000000E-01  8.50000000E-01
  8.50000000E-01  8.50000000E-01  8.50000000E-01  8.50000000E-01  8.50000000E-01
  8.50000000E-01  8.50000000E-01  8.50000000E-01  8.50000000E-01  8.50000000E-01
  8.50000000E-01  8.50000000E-01  8.50000000E-01  8.50000000E-01  8.50000000E-01
  8.50000000E-01  8.50000000E-01  8.50000000E-01  8.50000000E-01  8.50000000E-01
  8.50000000E-01  8.50000000E-01  8.50000000E-01  8.50000000E-01  8.50000000E-01
  8.50000000E-01  8.50000000E-01  8.50000000E-01  8.50000000E-01  8.50000000E-01
  8.50000000E-01  8.50000000E-01  8.50000000E-01  8.50000000E-01  8.50000000E-01
  8.50000000E-01  8.50000000E-01  8.50000000E-01  8.50000000E-01  8.50000000E-01
  8.50000000E-01  8.50000000E-01  8.50000000E-01  8.50000000E-01  8.50000000E-01
  8.50000000E-01  8.50000000E-01  8.50000000E-01  8.50000000E-01  8.50000000E-01
  8.50000000E-01  8.50000000E-01  8.50000000E-01  8.50000000E-01  8.50000000E-01
  8.50000000E-01  8.50000000E-01  8.50000000E-01  8.50000000E-01  8.50000000E-01
  8.50000000E-01  8.50000000E-01  8.50000000E-01  8.50000000E-01  8.50000000E-01
  8.50000000E-01  8.50000000E-01  8.50000000E-01  8.50000000E-01  8.50000000E-01
  8.50000000E-01  8.50000000E-01  8.50000000E-01  8.50000000E-01  8.50000000E-01
  8.50000000E-01  8.50000000E-01  8.50000000E-01  8.50000000E-01  8.50000000E-01
  8.50000000E-01  8.50000000E-01  8.50000000E-01  8.50000000E-01  8.50000000E-01
  8.50000000E-01  8.50000000E-01  8.50000000E-01  8.50000000E-01  8.50000000E-01
  8.50000000E-01  8.50000000E-01  8.50000000E-01  8.50000000E-01  8.50000000E-01
  8.50000000E-01  8.50000000E-01  8.50000000E-01  8.50000000E-01  8.50000000E-01
  8.50000000E-01  8.50000000E-01  8.50000000E-01  8.50000000E-01  8.50000000E-01
  8.50000000E-01  8.50000000E-01  8.50000000E-01  8.50000000E-01  8.50000000E-01
  8.50000000E-01  8.50000000E-01  8.50000000E-01  8.50000000E-01  8.50000000E-01
  8.50000000E-01  8.50000000E-01  8.50000000E-01  8.50000000E-01  8.50000000E-01
  8.50000000E-01  8.50000000E-01  8.50000000E-01  8.50000000E-01  8.50000000E-01
  8.50000000E-01  8.50000000E-01  8.50000000E-01  8.50000000E-01  8.50000000E-01
  8.50000000E-01  8.50000000E-01  8.50000000E-01  8.50000000E-01  8.50000000E-01
  8.50000000E-01  8.50000000E-01  8.50000000E-01  8.50000000E-01  8.50000000E-01
  8.50000000E-01  8.50000000E-01  8.50000000E-01  8.50000000E-01  8.50000000E-01
  8.50000000E-01  8.50000000E-01  8.50000000E-01  8.50000000E-01  8.50000000E-01
  8.50000000E-01  8.50000000E-01  8.50000000E-01  8.50000000E-01  8.50000000E-01
  8.50000000E-01  8.50000000E-01  8.50000000E-01  8.50000000E-01  8.50000000E-01
  8.50000000E-01  8.50000000E-01  8.50000000E-01  8.50000000E-01  8.50000000E-01
  8.50000000E-01  8.50000000E-01  8.50000000E-01  8.50000000E-01  8.50000000E-01
  8.50000000E-01  8.50000000E-01  8.50000000E-01  8.50000000E-01  8.50000000E-01
  8.50000000E-01  8.50000000E-01  8.50000000E-01  8.50000000E-01  8.50000000E-01
  8.50000000E-01  8.50000000E-01  8.50000000E-01  8.50000000E-01  8.50000000E-01
  8.50000000E-01  8.50000000E-01  8.50000000E-01  8.50000000E-01  8.50000000E-01
  8.50000000E-01  8.50000000E-01  8.50000000E-01  8.50000000E-01  8.50000000E-01
  8.50000000E-01  8.50000000E-01  8.50000000E-01  8.50000000E-01  8.50000000E-01
  8.50000000E-01  8.50000000E-01  8.50000000E-01  8.50000000E-01  8.50000000E-01
  8.50000000E-01  8.50000000E-01  8.50000000E-01  8.50000000E-01  8.50000000E-01
  8.50000000E-01  8.50000000E-01  8.50000000E-01  8.50000000E-01  8.50000000E-01
  8.50000000E-01  8.50000000E-01  8.50000000E-01  8.50000000E-01  8.50000000E-01
  8.50000000E-01  8.50000000E-01  8.50000000E-01  8.50000000E-01  8.50000000E-01
  8.50000000E-01  8.50000000E-01  8.50000000E-01  8.50000000E-01  8.50000000E-01
  8.50000000E-01  8.50000000E-01  8.50000000E-01  8.50000000E-01  8.50000000E-01
  8.50000000E-01  8.50000000E-01  8.50000000E-01  8.50000000E-01  8.50000000E-01
  8.50000000E-01  8.50000000E-01  8.50000000E-01  8.50000000E-01  8.50000000E-01
  8.50000000E-01  8.50000000E-01  8.50000000E-01  8.50000000E-01  8.50000000E-01
  8.50000000E-01  8.50000000E-01  8.50000000E-01  8.50000000E-01  8.50000000E-01
  8.50000000E-01  8.50000000E-01  8.50000000E-01  8.50000000E-01  8.50000000E-01
  8.50000000E-01  8.50000000E-01  8.50000000E-01  8.50000000E-01  8.50000000E-01
  8.50000000E-01  8.50000000E-01  8.50000000E-01  8.50000000E-01  8.50000000E-01
  8.50000000E-01  8.50000000E-01  8.50000000E-01  8.50000000E-01  8.50000000E-01
  8.50000000E-01  8.50000000E-01  8.50000000E-01  8.50000000E-01  8.50000000E-01
  8.50000000E-01  8.50000000E-01  8.50000000E-01  8.50000000E-01  8.50000000E-01
  8.50000000E-01  8.50000000E-01  8.50000000E-01  8.50000000E-01  8.50000000E-01
  8.50000000E-01  8.50000000E-01  8.50000000E-01  8.50000000E-01  8.50000000E-01
  8.50000000E-01  8.50000000E-01  8.50000000E-01  8.50000000E-01  8.50000000E-01
  8.50000000E-01  8.50000000E-01  8.50000000E-01  8.50000000E-01  8.50000000E-01
  8.50000000E-01  8.50000000E-01  8.50000000E-01  8.50000000E-01  8.50000000E-01
  8.50000000E-01  8.50000000E-01  8.50000000E-01  8.50000000E-01  8.50000000E-01
  8.50000000E-01  8.50000000E-01  8.50000000E-01  8.50000000E-01  8.50000000E-01
  8.50000000E-01  8.50000000E-01  8.50000000E-01  8.50000000E-01  8.50000000E-01
  8.50000000E-01  8.50000000E-01  8.50000000E-01  8.50000000E-01  8.50000000E-01
  8.50000000E-01  8.50000000E-01  8.50000000E-01  8.50000000E-01  8.50000000E-01
  8.50000000E-01  8.50000000E-01  8.50000000E-01  8.50000000E-01  8.50000000E-01
  8.50000000E-01  8.50000000E-01  8.50000000E-01  8.50000000E-01  8.50000000E-01
  8.50000000E-01  8.50000000E-01  8.50000000E-01  8.50000000E-01  8.50000000E-01
  8.50000000E-01  8.50000000E-01  8.50000000E-01  8.50000000E-01  8.50000000E-01
  8.50000000E-01  8.50000000E-01  8.50000000E-01  8.50000000E-01  8.50000000E-01
  8.50000000E-01  8.50000000E-01  8.50000000E-01  8.50000000E-01  8.50000000E-01
  8.50000000E-01  8.50000000E-01  8.50000000E-01  8.50000000E-01  8.50000000E-01
  8.50000000E-01  8.50000000E-01  8.50000000E-01  8.50000000E-01  8.50000000E-01
  8.50000000E-01  8.50000000E-01  8.50000000E-01  8.50000000E-01  8.50000000E-01
  8.50000000E-01  8.50000000E-01  8.50000000E-01  8.50000000E-01  8.50000000E-01
  8.50000000E-01  8.50000000E-01  8.50000000E-01  8.50000000E-01  8.50000000E-01
  8.50000000E-01  8.50000000E-01  8.50000000E-01  8.50000000E-01  8.50000000E-01
  8.50000000E-01  8.50000000E-01  8.50000000E-01  8.50000000E-01  8.50000000E-01
  8.50000000E-01  8.50000000E-01  8.50000000E-01  8.50000000E-01  8.50000000E-01
  8.50000000E-01  8.50000000E-01  8.50000000E-01  8.50000000E-01  8.50000000E-01
  8.50000000E-01  8.50000000E-01  8.50000000E-01  8.50000000E-01  8.50000000E-01
  8.50000000E-01  8.50000000E-01  8.50000000E-01  8.50000000E-01  8.50000000E-01
  8.50000000E-01  8.50000000E-01  8.50000000E-01  8.50000000E-01  8.50000000E-01
  8.50000000E-01  8.50000000E-01  8.50000000E-01  8.50000000E-01  8.50000000E-01
  8.50000000E-01  8.50000000E-01  8.50000000E-01  8.50000000E-01  8.50000000E-01
  8.50000000E-01  8.50000000E-01  8.50000000E-01  8.50000000E-01  8.50000000E-01
  8.50000000E-01  8.50000000E-01  8.50000000E-01  8.50000000E-01  8.50000000E-01
  8.50000000E-01  8.50000000E-01  8.50000000E-01  8.50000000E-01  8.50000000E-01
  8.50000000E-01  8.50000000E-01  8.50000000E-01  8.50000000E-01  8.50000000E-01
  8.50000000E-01  8.50000000E-01  8.50000000E-01  8.50000000E-01  8.50000000E-01
  8.50000000E-01  8.50000000E-01  8.50000000E-01  8.50000000E-01  8.50000000E-01
  8.50000000E-01  8.50000000E-01  8.50000000E-01  8.50000000E-01  8.50000000E-01
  8.50000000E-01  8.50000000E-01  8.50000000E-01  8.50000000E-01  8.50000000E-01
  8.50000000E-01  8.50000000E-01  8.50000000E-01  8.50000000E-01  8.50000000E-01
  8.50000000E-01  8.50000000E-01  8.50000000E-01  8.50000000E-01  8.50000000E-01
  8.50000000E-01  8.50000000E-01  8.50000000E-01  8.50000000E-01  8.50000000E-01
  8.50000000E-01  8.50000000E-01  8.50000000E-01  8.50000000E-01  8.50000000E-01
  8.50000000E-01  8.50000000E-01  8.50000000E-01  8.50000000E-01  8.50000000E-01
  8.50000000E-01  8.50000000E-01  8.50000000E-01  8.50000000E-01  8.50000000E-01
  8.50000000E-01  8.50000000E-01  8.50000000E-01  8.50000000E-01  8.50000000E-01
  8.50000000E-01  8.50000000E-01  8.50000000E-01  8.50000000E-01  8.50000000E-01
  8.50000000E-01  8.50000000E-01  8.50000000E-01  8.50000000E-01  8.50000000E-01
  8.50000000E-01  8.50000000E-01  8.50000000E-01  8.50000000E-01  8.50000000E-01
  8.50000000E-01  8.50000000E-01  8.50000000E-01  8.50000000E-01  8.50000000E-01
  8.50000000E-01  8.50000000E-01  8.50000000E-01  8.50000000E-01  8.50000000E-01
  8.50000000E-01  8.50000000E-01  8.50000000E-01  8.50000000E-01  8.50000000E-01
  8.50000000E-01  8.50000000E-01  8.50000000E-01  8.50000000E-01  8.50000000E-01
  8.50000000E-01  8.50000000E-01  8.50000000E-01  8.50000000E-01  8.50000000E-01
  8.50000000E-01  8.50000000E-01  8.50000000E-01  8.50000000E-01  8.50000000E-01
  8.50000000E-01  8.50000000E-01  8.50000000E-01  8.50000000E-01  8.50000000E-01
  8.50000000E-01  8.50000000E-01  8.50000000E-01  8.50000000E-01  8.50000000E-01
  8.50000000E-01  8.50000000E-01  8.50000000E-01  8.50000000E-01  8.50000000E-01
  8.50000000E-01  8.50000000E-01  8.50000000E-01  8.50000000E-01  8.50000000E-01
  8.50000000E-01  8.50000000E-01  8.50000000E-01  8.50000000E-01  8.50000000E-01
  8.50000000E-01  8.50000000E-01  8.50000000E-01  8.50000000E-01  8.50000000E-01
  8.50000000E-01  8.50000000E-01  8.50000000E-01  8.50000000E-01  8.50000000E-01
  8.50000000E-01  8.50000000E-01  8.50000000E-01  8.50000000E-01  8.50000000E-01
  8.50000000E-01  8.50000000E-01  8.50000000E-01  8.50000000E-01  8.50000000E-01
  8.50000000E-01  8.50000000E-01  8.50000000E-01  8.50000000E-01  8.50000000E-01
  8.50000000E-01  8.50000000E-01  8.50000000E-01  8.50000000E-01  8.50000000E-01
  8.50000000E-01  8.50000000E-01  8.50000000E-01  8.50000000E-01  8.50000000E-01
  8.50000000E-01  8.50000000E-01  8.50000000E-01  8.50000000E-01  8.50000000E-01
  8.50000000E-01  8.50000000E-01  8.50000000E-01  8.50000000E-01  8.50000000E-01
  8.50000000E-01  8.50000000E-01  8.50000000E-01  8.50000000E-01  8.50000000E-01
  8.50000000E-01  8.50000000E-01  8.50000000E-01  8.50000000E-01  8.50000000E-01
  8.50000000E-01  8.50000000E-01  8.50000000E-01  8.50000000E-01  8.50000000E-01
  8.50000000E-01  8.50000000E-01  8.50000000E-01  8.50000000E-01  8.50000000E-01
  8.50000000E-01  8.50000000E-01  8.50000000E-01  8.50000000E-01  8.50000000E-01
  8.50000000E-01  8.50000000E-01  8.50000000E-01  8.50000000E-01  8.50000000E-01
  8.50000000E-01  8.50000000E-01  8.50000000E-01  8.50000000E-01  8.50000000E-01
  8.50000000E-01  8.50000000E-01  8.50000000E-01  8.50000000E-01  8.50000000E-01
  8.50000000E-01  8.50000000E-01  8.50000000E-01  8.50000000E-01  8.50000000E-01
  8.50000000E-01  8.50000000E-01  8.50000000E-01  8.50000000E-01  8.50000000E-01
  8.50000000E-01  8.50000000E-01  8.50000000E-01  8.50000000E-01  8.50000000E-01
  8.50000000E-01  8.50000000E-01  8.50000000E-01  8.50000000E-01  8.50000000E-01
  8.50000000E-01  8.50000000E-01  8.50000000E-01  8.50000000E-01  8.50000000E-01
  8.50000000E-01  8.50000000E-01  8.50000000E-01  8.50000000E-01  8.50000000E-01
  8.50000000E-01  8.50000000E-01  8.50000000E-01  8.50000000E-01  8.50000000E-01
  8.50000000E-01  8.50000000E-01  8.50000000E-01  8.50000000E-01  8.50000000E-01
  8.50000000E-01  8.50000000E-01  8.50000000E-01  8.50000000E-01  8.50000000E-01
  8.50000000E-01  8.50000000E-01  8.50000000E-01  8.50000000E-01  8.50000000E-01
  8.50000000E-01  8.50000000E-01  8.50000000E-01  8.50000000E-01  8.50000000E-01
  8.50000000E-01  8.50000000E-01  8.50000000E-01  8.50000000E-01  8.50000000E-01
  8.50000000E-01  8.50000000E-01  8.50000000E-01  8.50000000E-01  8.50000000E-01
  8.50000000E-01  8.50000000E-01  8.50000000E-01  8.50000000E-01  8.50000000E-01
  8.50000000E-01  8.50000000E-01  8.50000000E-01  8.50000000E-01  8.50000000E-01
  8.50000000E-01  8.50000000E-01  8.50000000E-01  8.50000000E-01  8.50000000E-01
  8.50000000E-01  8.50000000E-01  8.50000000E-01  8.50000000E-01  8.50000000E-01
  8.50000000E-01  8.50000000E-01  8.50000000E-01  8.50000000E-01  8.50000000E-01
  8.50000000E-01  8.50000000E-01  8.50000000E-01  8.50000000E-01  8.50000000E-01
  8.50000000E-01  8.50000000E-01  8.50000000E-01  8.50000000E-01  8.50000000E-01
  8.50000000E-01  8.50000000E-01  8.50000000E-01  8.50000000E-01  8.50000000E-01
  8.50000000E-01  8.50000000E-01  8.50000000E-01  8.50000000E-01  8.50000000E-01
  8.50000000E-01  8.50000000E-01  8.50000000E-01  8.50000000E-01  8.50000000E-01
  8.50000000E-01  8.50000000E-01  8.50000000E-01  8.50000000E-01  8.50000000E-01
  8.50000000E-01  8.50000000E-01  8.50000000E-01  8.50000000E-01  8.50000000E-01
  8.50000000E-01  8.50000000E-01  8.50000000E-01  8.50000000E-01  8.50000000E-01
  8.50000000E-01  8.50000000E-01  8.50000000E-01  8.50000000E-01  8.50000000E-01
  8.50000000E-01  8.50000000E-01  8.50000000E-01  8.50000000E-01  8.50000000E-01
  8.50000000E-01  8.50000000E-01  8.50000000E-01  8.50000000E-01  8.50000000E-01
  8.50000000E-01  8.50000000E-01  8.50000000E-01  8.50000000E-01  8.50000000E-01
  8.50000000E-01  8.50000000E-01  8.50000000E-01  8.50000000E-01  8.50000000E-01
  8.50000000E-01  8.50000000E-01  8.50000000E-01  8.50000000E-01  8.50000000E-01
  8.50000000E-01  8.50000000E-01  8.50000000E-01  8.50000000E-01  8.50000000E-01
  8.50000000E-01  8.50000000E-01  8.50000000E-01  8.50000000E-01  8.50000000E-01
  8.50000000E-01  8.50000000E-01  8.50000000E-01  8.50000000E-01  8.50000000E-01
  8.50000000E-01  8.50000000E-01  8.50000000E-01  8.50000000E-01  8.50000000E-01
  8.50000000E-01  8.50000000E-01  8.50000000E-01  8.50000000E-01  8.50000000E-01
  8.50000000E-01  8.50000000E-01  8.50000000E-01  8.50000000E-01  8.50000000E-01
  8.50000000E-01  8.50000000E-01  8.50000000E-01  8.50000000E-01  8.50000000E-01
  8.50000000E-01  8.50000000E-01  8.50000000E-01  8.50000000E-01  8.50000000E-01
  8.50000000E-01  8.50000000E-01  8.50000000E-01  8.50000000E-01  8.50000000E-01
  8.50000000E-01  8.50000000E-01  8.50000000E-01  8.50000000E-01  8.50000000E-01
  8.50000000E-01  8.50000000E-01  8.50000000E-01  8.50000000E-01  8.50000000E-01
  8.50000000E-01  8.50000000E-01  8.50000000E-01  8.50000000E-01  8.50000000E-01
  8.50000000E-01  8.50000000E-01  8.50000000E-01  8.50000000E-01  8.50000000E-01
  8.50000000E-01  8.50000000E-01  8.50000000E-01  8.50000000E-01  8.50000000E-01
  8.50000000E-01  8.50000000E-01  8.50000000E-01  8.50000000E-01  8.50000000E-01
  8.50000000E-01  8.50000000E-01  8.50000000E-01  8.50000000E-01  8.50000000E-01
  8.50000000E-01  8.50000000E-01  8.50000000E-01  8.50000000E-01  8.50000000E-01
  8.50000000E-01  8.50000000E-01  8.50000000E-01  8.50000000E-01  8.50000000E-01
  8.50000000E-01  8.50000000E-01  8.50000000E-01  8.50000000E-01  8.50000000E-01
  8.50000000E-01  8.50000000E-01  8.50000000E-01  8.50000000E-01  8.50000000E-01
  8.50000000E-01  8.50000000E-01  8.50000000E-01  8.50000000E-01  8.50000000E-01
  8.50000000E-01  8.50000000E-01  8.50000000E-01  8.50000000E-01  8.50000000E-01
  8.50000000E-01  8.50000000E-01  8.50000000E-01  8.50000000E-01  8.50000000E-01
  8.50000000E-01  8.50000000E-01  8.50000000E-01  8.50000000E-01  8.50000000E-01
  8.50000000E-01  8.50000000E-01  8.50000000E-01  8.50000000E-01  8.50000000E-01
  8.50000000E-01  8.50000000E-01  8.50000000E-01  8.50000000E-01  8.50000000E-01
  8.50000000E-01  8.50000000E-01  8.50000000E-01  8.50000000E-01  8.50000000E-01
  8.50000000E-01  8.50000000E-01  8.50000000E-01  8.50000000E-01  8.50000000E-01
  8.50000000E-01  8.50000000E-01  8.50000000E-01  8.50000000E-01  8.50000000E-01
  8.50000000E-01  8.50000000E-01  8.50000000E-01  8.50000000E-01  8.50000000E-01
  8.50000000E-01  8.50000000E-01  8.50000000E-01  8.50000000E-01  8.50000000E-01
  8.50000000E-01  8.50000000E-01  8.50000000E-01  8.50000000E-01  8.50000000E-01
  8.50000000E-01  8.50000000E-01  8.50000000E-01  8.50000000E-01  8.50000000E-01
  8.50000000E-01  8.50000000E-01  8.50000000E-01  8.50000000E-01  8.50000000E-01
  8.50000000E-01  8.50000000E-01  8.50000000E-01  8.50000000E-01  8.50000000E-01
  8.50000000E-01  8.50000000E-01  8.50000000E-01  8.50000000E-01  8.50000000E-01
  8.50000000E-01  8.50000000E-01  8.50000000E-01  8.50000000E-01  8.50000000E-01
  8.50000000E-01  8.50000000E-01  8.50000000E-01  8.50000000E-01  8.50000000E-01
  8.50000000E-01  8.50000000E-01  8.50000000E-01  8.50000000E-01  8.50000000E-01
  8.50000000E-01  8.50000000E-01  8.50000000E-01  8.50000000E-01  8.50000000E-01
  8.50000000E-01  8.50000000E-01  8.50000000E-01  8.50000000E-01  8.50000000E-01
  8.50000000E-01  8.50000000E-01  8.50000000E-01  8.50000000E-01  8.50000000E-01
  8.50000000E-01  8.50000000E-01  8.50000000E-01  8.50000000E-01  8.50000000E-01
  8.50000000E-01  8.50000000E-01  8.50000000E-01  8.50000000E-01  8.50000000E-01
  8.50000000E-01  8.50000000E-01  8.50000000E-01  8.50000000E-01  8.50000000E-01
  8.50000000E-01  8.50000000E-01  8.50000000E-01  8.50000000E-01  8.50000000E-01
  8.50000000E-01  8.50000000E-01  8.50000000E-01  8.50000000E-01  8.50000000E-01
  8.50000000E-01  8.50000000E-01  8.50000000E-01  8.50000000E-01  8.50000000E-01
  8.50000000E-01  8.50000000E-01  8.50000000E-01  8.50000000E-01  8.50000000E-01
  8.50000000E-01  8.50000000E-01  8.50000000E-01  8.50000000E-01  8.50000000E-01
  8.50000000E-01  8.50000000E-01  8.50000000E-01  8.50000000E-01  8.50000000E-01
  8.50000000E-01  8.50000000E-01  8.50000000E-01  8.50000000E-01  8.50000000E-01
  8.50000000E-01  8.50000000E-01  8.50000000E-01  8.50000000E-01  8.50000000E-01
  8.50000000E-01  8.50000000E-01  8.50000000E-01  8.50000000E-01  8.50000000E-01
  8.50000000E-01  8.50000000E-01  8.50000000E-01  8.50000000E-01  8.50000000E-01
  8.50000000E-01  8.50000000E-01  8.50000000E-01  8.50000000E-01  8.50000000E-01
  8.50000000E-01  8.50000000E-01  8.50000000E-01  8.50000000E-01  8.50000000E-01
  8.50000000E-01  8.50000000E-01  8.50000000E-01  8.50000000E-01  8.50000000E-01
  8.50000000E-01  8.50000000E-01  8.50000000E-01  8.50000000E-01  8.50000000E-01
  8.50000000E-01  8.50000000E-01  8.50000000E-01  8.50000000E-01  8.50000000E-01
  8.50000000E-01  8.50000000E-01  8.50000000E-01  8.50000000E-01  8.50000000E-01
  8.50000000E-01  8.50000000E-01  8.50000000E-01  8.50000000E-01  8.50000000E-01
  8.50000000E-01  8.50000000E-01  8.50000000E-01  8.50000000E-01  8.50000000E-01
  8.50000000E-01  8.50000000E-01  8.50000000E-01  8.50000000E-01  8.50000000E-01
  8.50000000E-01  8.50000000E-01  8.50000000E-01  8.50000000E-01  8.50000000E-01
  8.50000000E-01  8.50000000E-01  8.50000000E-01  8.50000000E-01  8.50000000E-01
  8.50000000E-01  8.50000000E-01  8.50000000E-01  8.50000000E-01  8.50000000E-01
  8.50000000E-01  8.50000000E-01  8.50000000E-01  8.50000000E-01  8.50000000E-01
  8.50000000E-01  8.50000000E-01  8.50000000E-01  8.50000000E-01  8.50000000E-01
  8.50000000E-01  8.50000000E-01  8.50000000E-01  8.50000000E-01  8.50000000E-01
  8.50000000E-01  8.50000000E-01  8.50000000E-01  8.50000000E-01  8.50000000E-01
  8.50000000E-01  8.50000000E-01  8.50000000E-01  8.50000000E-01  8.50000000E-01
  8.50000000E-01  8.50000000E-01  8.50000000E-01  8.50000000E-01  8.50000000E-01
  8.50000000E-01  8.50000000E-01  8.50000000E-01  8.50000000E-01  8.50000000E-01
  8.50000000E-01  8.50000000E-01  8.50000000E-01  8.50000000E-01  8.50000000E-01
  8.50000000E-01  8.50000000E-01  8.50000000E-01  8.50000000E-01  8.50000000E-01
  8.50000000E-01  8.50000000E-01  8.50000000E-01  8.50000000E-01  8.50000000E-01
  8.50000000E-01  8.50000000E-01  8.50000000E-01  8.50000000E-01  8.50000000E-01
  8.50000000E-01  8.50000000E-01  8.50000000E-01  8.50000000E-01  8.50000000E-01
  8.50000000E-01  8.50000000E-01  8.50000000E-01  8.50000000E-01  8.50000000E-01
  8.50000000E-01  8.50000000E-01  8.50000000E-01  8.50000000E-01  8.50000000E-01
  8.50000000E-01  8.50000000E-01  8.50000000E-01  8.50000000E-01  8.50000000E-01
  8.50000000E-01  8.50000000E-01  8.50000000E-01  8.50000000E-01  8.50000000E-01
  8.50000000E-01  8.50000000E-01  8.50000000E-01  8.50000000E-01  8.50000000E-01
  8.50000000E-01  8.50000000E-01  8.50000000E-01  8.50000000E-01  8.50000000E-01
  8.50000000E-01  8.50000000E-01  8.50000000E-01  8.50000000E-01  8.50000000E-01
  8.50000000E-01  8.50000000E-01  8.50000000E-01  8.50000000E-01  8.50000000E-01
  8.50000000E-01  8.50000000E-01  8.50000000E-01  8.50000000E-01  8.50000000E-01
  8.50000000E-01  8.50000000E-01  8.50000000E-01  8.50000000E-01  8.50000000E-01
  8.50000000E-01  8.50000000E-01  8.50000000E-01  8.50000000E-01  8.50000000E-01
  8.50000000E-01  8.50000000E-01  8.50000000E-01  8.50000000E-01  8.50000000E-01
  8.50000000E-01  8.50000000E-01  8.50000000E-01  8.50000000E-01  8.50000000E-01
  8.50000000E-01  8.50000000E-01  8.50000000E-01  8.50000000E-01  8.50000000E-01
  8.50000000E-01  8.50000000E-01  8.50000000E-01  8.50000000E-01  8.50000000E-01
  8.50000000E-01  8.50000000E-01  8.50000000E-01  8.50000000E-01  8.50000000E-01
  8.50000000E-01  8.50000000E-01  8.50000000E-01  8.50000000E-01  8.50000000E-01
  8.50000000E-01  8.50000000E-01  8.50000000E-01  8.50000000E-01  8.50000000E-01
  8.50000000E-01  8.50000000E-01  8.50000000E-01  8.50000000E-01  8.50000000E-01
  8.50000000E-01  8.50000000E-01  8.50000000E-01  8.50000000E-01  8.50000000E-01
  8.50000000E-01  8.50000000E-01  8.50000000E-01  8.50000000E-01  8.50000000E-01
  8.50000000E-01  8.50000000E-01  8.50000000E-01  8.50000000E-01  8.50000000E-01
  8.50000000E-01  8.50000000E-01  8.50000000E-01  8.50000000E-01  8.50000000E-01
  8.50000000E-01  8.50000000E-01  8.50000000E-01  8.50000000E-01  8.50000000E-01
  8.50000000E-01  8.50000000E-01  8.50000000E-01  8.50000000E-01  8.50000000E-01
  8.50000000E-01  8.50000000E-01  8.50000000E-01  8.50000000E-01  8.50000000E-01
  8.50000000E-01  8.50000000E-01  8.50000000E-01  8.50000000E-01  8.50000000E-01
  8.50000000E-01  8.50000000E-01  8.50000000E-01  8.50000000E-01  8.50000000E-01
  8.50000000E-01  8.50000000E-01  8.50000000E-01  8.50000000E-01  8.50000000E-01
  8.50000000E-01  8.50000000E-01  8.50000000E-01  8.50000000E-01  8.50000000E-01
  8.50000000E-01  8.50000000E-01  8.50000000E-01  8.50000000E-01  8.50000000E-01
  8.50000000E-01  8.50000000E-01  8.50000000E-01  8.50000000E-01  8.50000000E-01
  8.50000000E-01  8.50000000E-01  8.50000000E-01  8.50000000E-01  8.50000000E-01
  8.50000000E-01  8.50000000E-01  8.50000000E-01  8.50000000E-01  8.50000000E-01
  8.50000000E-01  8.50000000E-01  8.50000000E-01  8.50000000E-01  8.50000000E-01
  8.50000000E-01  8.50000000E-01  8.50000000E-01  8.50000000E-01  8.50000000E-01
  8.50000000E-01  8.50000000E-01  8.50000000E-01  8.50000000E-01  8.50000000E-01
  8.50000000E-01  8.50000000E-01  8.50000000E-01  8.50000000E-01  8.50000000E-01
  8.50000000E-01  8.50000000E-01  8.50000000E-01  8.50000000E-01  8.50000000E-01
  8.50000000E-01  8.50000000E-01  8.50000000E-01  8.50000000E-01  8.50000000E-01
  8.50000000E-01  8.50000000E-01  8.50000000E-01  8.50000000E-01  8.50000000E-01
  8.50000000E-01  8.50000000E-01  8.50000000E-01  8.50000000E-01  8.50000000E-01
  8.50000000E-01  8.50000000E-01  8.50000000E-01  8.50000000E-01  8.50000000E-01
  8.50000000E-01  8.50000000E-01  8.50000000E-01  8.50000000E-01  8.50000000E-01
  8.50000000E-01  8.50000000E-01  8.50000000E-01  8.50000000E-01  8.50000000E-01
  8.50000000E-01  8.50000000E-01  8.50000000E-01  8.50000000E-01  8.50000000E-01
  8.50000000E-01  8.50000000E-01  8.50000000E-01  8.50000000E-01  8.50000000E-01
  8.50000000E-01  8.50000000E-01  8.50000000E-01  8.50000000E-01  8.50000000E-01
  8.50000000E-01  8.50000000E-01  8.50000000E-01  8.50000000E-01  8.50000000E-01
  8.50000000E-01  8.50000000E-01  8.50000000E-01  8.50000000E-01  8.50000000E-01
  8.50000000E-01  8.50000000E-01  8.50000000E-01  8.50000000E-01  8.50000000E-01
  8.50000000E-01  8.50000000E-01  8.50000000E-01  8.50000000E-01  8.50000000E-01
  8.50000000E-01  8.50000000E-01  8.50000000E-01  8.50000000E-01  8.50000000E-01
  8.50000000E-01  8.50000000E-01  8.50000000E-01  8.50000000E-01  8.50000000E-01
  8.50000000E-01  8.50000000E-01  8.50000000E-01  8.50000000E-01  8.50000000E-01
  8.50000000E-01  8.50000000E-01  8.50000000E-01  8.50000000E-01  8.50000000E-01
  8.50000000E-01  8.50000000E-01  8.50000000E-01  8.50000000E-01  8.50000000E-01
  8.50000000E-01  8.50000000E-01  8.50000000E-01  8.50000000E-01  8.50000000E-01
  8.50000000E-01  8.50000000E-01  8.50000000E-01  8.50000000E-01  8.50000000E-01
  8.50000000E-01  8.50000000E-01  8.50000000E-01  8.50000000E-01  8.50000000E-01
  8.50000000E-01  8.50000000E-01  8.50000000E-01  8.50000000E-01  8.50000000E-01
  8.50000000E-01  8.50000000E-01  8.50000000E-01  8.50000000E-01  8.50000000E-01
  8.50000000E-01  8.50000000E-01  8.50000000E-01  8.50000000E-01  8.50000000E-01
  8.50000000E-01  8.50000000E-01  8.50000000E-01  8.50000000E-01  8.50000000E-01
  8.50000000E-01  8.50000000E-01  8.50000000E-01  8.50000000E-01  8.50000000E-01
  8.50000000E-01  8.50000000E-01  8.50000000E-01  8.50000000E-01  8.50000000E-01
  8.50000000E-01  8.50000000E-01  8.50000000E-01  8.50000000E-01  8.50000000E-01
  8.50000000E-01  8.50000000E-01  8.50000000E-01  8.50000000E-01  8.50000000E-01
  8.50000000E-01  8.50000000E-01  8.50000000E-01  8.50000000E-01  8.50000000E-01
  8.50000000E-01  8.50000000E-01  8.50000000E-01  8.50000000E-01  8.50000000E-01
  8.50000000E-01  8.50000000E-01  8.50000000E-01  8.50000000E-01  8.50000000E-01
  8.50000000E-01  8.50000000E-01  8.50000000E-01  8.50000000E-01  8.50000000E-01
  8.50000000E-01  8.50000000E-01  8.50000000E-01  8.50000000E-01  8.50000000E-01
  8.50000000E-01  8.50000000E-01  8.50000000E-01  8.50000000E-01  8.50000000E-01
  8.50000000E-01  8.50000000E-01  8.50000000E-01  8.50000000E-01  8.50000000E-01
  8.50000000E-01  8.50000000E-01  8.50000000E-01  8.50000000E-01  8.50000000E-01
  8.50000000E-01  8.50000000E-01  8.50000000E-01  8.50000000E-01  8.50000000E-01
  8.50000000E-01  8.50000000E-01  8.50000000E-01  8.50000000E-01  8.50000000E-01
  8.50000000E-01  8.50000000E-01  8.50000000E-01  8.50000000E-01  8.50000000E-01
  8.50000000E-01  8.50000000E-01  8.50000000E-01  8.50000000E-01  8.50000000E-01
  8.50000000E-01  8.50000000E-01  8.50000000E-01  8.50000000E-01  8.50000000E-01
  8.50000000E-01  8.50000000E-01  8.50000000E-01  8.50000000E-01  8.50000000E-01
  8.50000000E-01  8.50000000E-01  8.50000000E-01  8.50000000E-01  8.50000000E-01
  8.50000000E-01  8.50000000E-01  8.50000000E-01  8.50000000E-01  8.50000000E-01
  8.50000000E-01  8.50000000E-01  8.50000000E-01  8.50000000E-01  8.50000000E-01
  8.50000000E-01  8.50000000E-01  8.50000000E-01  8.50000000E-01  8.50000000E-01
  8.50000000E-01  8.50000000E-01  8.50000000E-01  8.50000000E-01  8.50000000E-01
  8.50000000E-01  8.50000000E-01  8.50000000E-01  8.50000000E-01  8.50000000E-01
  8.50000000E-01  8.50000000E-01  8.50000000E-01  8.50000000E-01  8.50000000E-01
  8.50000000E-01  8.50000000E-01  8.50000000E-01  8.50000000E-01  8.50000000E-01
  8.50000000E-01  8.50000000E-01  8.50000000E-01  8.50000000E-01  8.50000000E-01
  8.50000000E-01  8.50000000E-01  8.50000000E-01  8.50000000E-01  8.50000000E-01
  8.50000000E-01  8.50000000E-01  8.50000000E-01  8.50000000E-01  8.50000000E-01
  8.50000000E-01  8.50000000E-01  8.50000000E-01  8.50000000E-01  8.50000000E-01
  8.50000000E-01  8.50000000E-01  8.50000000E-01  8.50000000E-01  8.50000000E-01
  8.50000000E-01  8.50000000E-01  8.50000000E-01  8.50000000E-01  8.50000000E-01
  8.50000000E-01  8.50000000E-01  8.50000000E-01  8.50000000E-01  8.50000000E-01
  8.50000000E-01  8.50000000E-01  8.50000000E-01  8.50000000E-01  8.50000000E-01
  8.50000000E-01  8.50000000E-01  8.50000000E-01  8.50000000E-01  8.50000000E-01
  8.50000000E-01  8.50000000E-01  8.50000000E-01  8.50000000E-01  8.50000000E-01
  8.50000000E-01  8.50000000E-01  8.50000000E-01  8.50000000E-01  8.50000000E-01
  8.50000000E-01  8.50000000E-01  8.50000000E-01  8.50000000E-01  8.50000000E-01
  8.50000000E-01  8.50000000E-01  8.50000000E-01  8.50000000E-01  8.50000000E-01
  8.50000000E-01  8.50000000E-01  8.50000000E-01  8.50000000E-01  8.50000000E-01
  8.50000000E-01  8.50000000E-01  8.50000000E-01  8.50000000E-01  8.50000000E-01
  8.50000000E-01  8.50000000E-01  8.50000000E-01  8.50000000E-01  8.50000000E-01
  8.50000000E-01  8.50000000E-01  8.50000000E-01  8.50000000E-01  8.50000000E-01
  8.50000000E-01  8.50000000E-01  8.50000000E-01  8.50000000E-01  8.50000000E-01
  8.50000000E-01  8.50000000E-01  8.50000000E-01  8.50000000E-01  8.50000000E-01
  8.50000000E-01  8.50000000E-01  8.50000000E-01  8.50000000E-01  8.50000000E-01
  8.50000000E-01  8.50000000E-01  8.50000000E-01  8.50000000E-01  8.50000000E-01
  8.50000000E-01  8.50000000E-01  8.50000000E-01  8.50000000E-01  8.50000000E-01
  8.50000000E-01  8.50000000E-01  8.50000000E-01  8.50000000E-01  8.50000000E-01
  8.50000000E-01  8.50000000E-01  8.50000000E-01  8.50000000E-01  8.50000000E-01
  8.50000000E-01  8.50000000E-01  8.50000000E-01  8.50000000E-01  8.50000000E-01
  8.50000000E-01  8.50000000E-01  8.50000000E-01  8.50000000E-01  8.50000000E-01
  8.50000000E-01  8.50000000E-01  8.50000000E-01  8.50000000E-01  8.50000000E-01
  8.50000000E-01  8.50000000E-01  8.50000000E-01  8.50000000E-01  8.50000000E-01
  8.50000000E-01  8.50000000E-01  8.50000000E-01  8.50000000E-01  8.50000000E-01
  8.50000000E-01  8.50000000E-01  8.50000000E-01  8.50000000E-01  8.50000000E-01
  8.50000000E-01  8.50000000E-01  8.50000000E-01  8.50000000E-01  8.50000000E-01
  8.50000000E-01  8.50000000E-01  8.50000000E-01  8.50000000E-01  8.50000000E-01
  8.50000000E-01  8.50000000E-01  8.50000000E-01  8.50000000E-01  8.50000000E-01
  8.50000000E-01  8.50000000E-01  8.50000000E-01  8.50000000E-01  8.50000000E-01
  8.50000000E-01  8.50000000E-01  8.50000000E-01  8.50000000E-01  8.50000000E-01
  8.50000000E-01  8.50000000E-01  8.50000000E-01  8.50000000E-01  8.50000000E-01
  8.50000000E-01  8.50000000E-01  8.50000000E-01  8.50000000E-01  8.50000000E-01
  8.50000000E-01  8.50000000E-01  8.50000000E-01  8.50000000E-01  8.50000000E-01
  8.50000000E-01  8.50000000E-01  8.50000000E-01  8.50000000E-01  8.50000000E-01
  8.50000000E-01  8.50000000E-01  8.50000000E-01  8.50000000E-01  8.50000000E-01
  8.50000000E-01  8.50000000E-01  8.50000000E-01  8.50000000E-01  8.50000000E-01
  8.50000000E-01  8.50000000E-01  8.50000000E-01  8.50000000E-01  8.50000000E-01
  8.50000000E-01  8.50000000E-01  8.50000000E-01  8.50000000E-01  8.50000000E-01
  8.50000000E-01  8.50000000E-01  8.50000000E-01  8.50000000E-01  8.50000000E-01
  8.50000000E-01  8.50000000E-01  8.50000000E-01  8.50000000E-01  8.50000000E-01
  8.50000000E-01  8.50000000E-01  8.50000000E-01  8.50000000E-01  8.50000000E-01
  8.50000000E-01  8.50000000E-01  8.50000000E-01  8.50000000E-01  8.50000000E-01
  8.50000000E-01  8.50000000E-01  8.50000000E-01  8.50000000E-01  8.50000000E-01
  8.50000000E-01  8.50000000E-01  8.50000000E-01  8.50000000E-01  8.50000000E-01
  8.50000000E-01  8.50000000E-01  8.50000000E-01  8.50000000E-01  8.50000000E-01
  8.50000000E-01  8.50000000E-01  8.50000000E-01  8.50000000E-01  8.50000000E-01
  8.50000000E-01  8.50000000E-01  8.50000000E-01  8.50000000E-01  8.50000000E-01
  8.50000000E-01  8.50000000E-01  8.50000000E-01  8.50000000E-01  8.50000000E-01
  8.50000000E-01  8.50000000E-01  8.50000000E-01  8.50000000E-01  8.50000000E-01
  8.50000000E-01  8.50000000E-01  8.50000000E-01  8.50000000E-01  8.50000000E-01
  8.50000000E-01  8.50000000E-01  8.50000000E-01  8.50000000E-01  8.50000000E-01
  8.50000000E-01  8.50000000E-01  8.50000000E-01  8.50000000E-01  8.50000000E-01
  8.50000000E-01  8.50000000E-01  8.50000000E-01  8.50000000E-01  8.50000000E-01
  8.50000000E-01  8.50000000E-01  8.50000000E-01  8.50000000E-01  8.50000000E-01
  8.50000000E-01  8.50000000E-01  8.50000000E-01  8.50000000E-01  8.50000000E-01
  8.50000000E-01  8.50000000E-01  8.50000000E-01  8.50000000E-01  8.50000000E-01
  8.50000000E-01  8.50000000E-01  8.50000000E-01  8.50000000E-01  8.50000000E-01
  8.50000000E-01  8.50000000E-01  8.50000000E-01  8.50000000E-01  8.50000000E-01
  8.50000000E-01  8.50000000E-01  8.50000000E-01  8.50000000E-01  8.50000000E-01
  8.50000000E-01  8.50000000E-01  8.50000000E-01  8.50000000E-01  8.50000000E-01
  8.50000000E-01  8.50000000E-01  8.50000000E-01  8.50000000E-01  8.50000000E-01
  8.50000000E-01  8.50000000E-01  8.50000000E-01  8.50000000E-01  8.50000000E-01
  8.50000000E-01  8.50000000E-01  8.50000000E-01  8.50000000E-01  8.50000000E-01
  8.50000000E-01  8.50000000E-01  8.50000000E-01  8.50000000E-01  8.50000000E-01
  8.50000000E-01  8.50000000E-01  8.50000000E-01  8.50000000E-01  8.50000000E-01
  8.50000000E-01  8.50000000E-01  8.50000000E-01  8.50000000E-01  8.50000000E-01
  8.50000000E-01  8.50000000E-01  8.50000000E-01  8.50000000E-01  8.50000000E-01
  8.50000000E-01  8.50000000E-01  8.50000000E-01  8.50000000E-01  8.50000000E-01
  8.50000000E-01  8.50000000E-01  8.50000000E-01  8.50000000E-01  8.50000000E-01
  8.50000000E-01  8.50000000E-01  8.50000000E-01  8.50000000E-01  8.50000000E-01
  8.50000000E-01  8.50000000E-01  8.50000000E-01  8.50000000E-01  8.50000000E-01
  8.50000000E-01  8.50000000E-01  8.50000000E-01  8.50000000E-01  8.50000000E-01
  8.50000000E-01  8.50000000E-01  8.50000000E-01  8.50000000E-01  8.50000000E-01
  8.50000000E-01  8.50000000E-01  8.50000000E-01  8.50000000E-01  8.50000000E-01
  8.50000000E-01  8.50000000E-01  8.50000000E-01  8.50000000E-01  8.50000000E-01
  8.50000000E-01  8.50000000E-01  8.50000000E-01  8.50000000E-01  8.50000000E-01
  8.50000000E-01  8.50000000E-01  8.50000000E-01  8.50000000E-01  8.50000000E-01
  8.50000000E-01  8.50000000E-01  8.50000000E-01  8.50000000E-01  8.50000000E-01
  8.50000000E-01  8.50000000E-01  8.50000000E-01  8.50000000E-01  8.50000000E-01
  8.50000000E-01  8.50000000E-01  8.50000000E-01  8.50000000E-01  8.50000000E-01
  8.50000000E-01  8.50000000E-01  8.50000000E-01  8.50000000E-01  8.50000000E-01
  8.50000000E-01  8.50000000E-01  8.50000000E-01  8.50000000E-01  8.50000000E-01
  8.50000000E-01  8.50000000E-01  8.50000000E-01  8.50000000E-01  8.50000000E-01
  8.50000000E-01  8.50000000E-01  8.50000000E-01  8.50000000E-01  8.50000000E-01
  8.50000000E-01  8.50000000E-01  8.50000000E-01  8.50000000E-01  8.50000000E-01
  8.50000000E-01  8.50000000E-01  8.50000000E-01  8.50000000E-01  8.50000000E-01
  8.50000000E-01  8.50000000E-01  8.50000000E-01  8.50000000E-01  8.50000000E-01
  8.50000000E-01  8.50000000E-01  8.50000000E-01  8.50000000E-01  8.50000000E-01
  8.50000000E-01  8.50000000E-01  8.50000000E-01  8.50000000E-01  8.50000000E-01
  8.50000000E-01  8.50000000E-01  8.50000000E-01  8.50000000E-01  8.50000000E-01
  8.50000000E-01  8.50000000E-01  8.50000000E-01  8.50000000E-01  8.50000000E-01
  8.50000000E-01  8.50000000E-01  8.50000000E-01  8.50000000E-01  8.50000000E-01
  8.50000000E-01  8.50000000E-01  8.50000000E-01  8.50000000E-01  8.50000000E-01
  8.50000000E-01  8.50000000E-01  8.50000000E-01  8.50000000E-01  8.50000000E-01
  8.50000000E-01  8.50000000E-01  8.50000000E-01  8.50000000E-01  8.50000000E-01
  8.50000000E-01  8.50000000E-01  8.50000000E-01  8.50000000E-01  8.50000000E-01
  8.50000000E-01  8.50000000E-01  8.50000000E-01  8.50000000E-01  8.50000000E-01
  8.50000000E-01  8.50000000E-01  8.50000000E-01  8.50000000E-01  8.50000000E-01
  8.50000000E-01  8.50000000E-01  8.50000000E-01  8.50000000E-01  8.50000000E-01
  8.50000000E-01  8.50000000E-01  8.50000000E-01  8.50000000E-01  8.50000000E-01
  8.50000000E-01  8.50000000E-01  8.50000000E-01  8.50000000E-01  8.50000000E-01
  8.50000000E-01  8.50000000E-01  8.50000000E-01  8.50000000E-01  8.50000000E-01
  8.50000000E-01  8.50000000E-01  8.50000000E-01  8.50000000E-01  8.50000000E-01
  8.50000000E-01  8.50000000E-01  8.50000000E-01  8.50000000E-01  8.50000000E-01
  8.50000000E-01  8.50000000E-01  8.50000000E-01  8.50000000E-01  8.50000000E-01
  8.50000000E-01  8.50000000E-01  8.50000000E-01  8.50000000E-01  8.50000000E-01
  8.50000000E-01  8.50000000E-01  8.50000000E-01  8.50000000E-01  8.50000000E-01
  8.50000000E-01  8.50000000E-01  8.50000000E-01  8.50000000E-01  8.50000000E-01
  8.50000000E-01  8.50000000E-01  8.50000000E-01  8.50000000E-01  8.50000000E-01
  8.50000000E-01  8.50000000E-01  8.50000000E-01  8.50000000E-01  8.50000000E-01
  8.50000000E-01  8.50000000E-01  8.50000000E-01  8.50000000E-01  8.50000000E-01
  8.50000000E-01  8.50000000E-01  8.50000000E-01  8.50000000E-01  8.50000000E-01
  8.50000000E-01  8.50000000E-01  8.50000000E-01  8.50000000E-01  8.50000000E-01
  8.50000000E-01  8.50000000E-01  8.50000000E-01  8.50000000E-01  8.50000000E-01
  8.50000000E-01  8.50000000E-01  8.50000000E-01  8.50000000E-01  8.50000000E-01
  8.50000000E-01  8.50000000E-01  8.50000000E-01  8.50000000E-01  8.50000000E-01
  8.50000000E-01  8.50000000E-01  8.50000000E-01  8.50000000E-01  8.50000000E-01
  8.50000000E-01  8.50000000E-01  8.50000000E-01  8.50000000E-01  8.50000000E-01
  8.50000000E-01  8.50000000E-01  8.50000000E-01  8.50000000E-01  8.50000000E-01
  8.50000000E-01  8.50000000E-01  8.50000000E-01  8.50000000E-01  8.50000000E-01
  8.50000000E-01  8.50000000E-01  8.50000000E-01  8.50000000E-01  8.50000000E-01
  8.50000000E-01  8.50000000E-01  8.50000000E-01  8.50000000E-01  8.50000000E-01
  8.50000000E-01  8.50000000E-01  8.50000000E-01  8.50000000E-01  8.50000000E-01
  8.50000000E-01  8.50000000E-01  8.50000000E-01  8.50000000E-01  8.50000000E-01
  8.50000000E-01  8.50000000E-01  8.50000000E-01  8.50000000E-01  8.50000000E-01
  8.50000000E-01  8.50000000E-01  8.50000000E-01  8.50000000E-01  8.50000000E-01
  8.50000000E-01  8.50000000E-01  8.50000000E-01  8.50000000E-01  8.50000000E-01
  8.50000000E-01  8.50000000E-01  8.50000000E-01  8.50000000E-01  8.50000000E-01
  8.50000000E-01  8.50000000E-01  8.50000000E-01  8.50000000E-01  8.50000000E-01
  8.50000000E-01  8.50000000E-01  8.50000000E-01  8.50000000E-01  8.50000000E-01
  8.50000000E-01  8.50000000E-01  8.50000000E-01  8.50000000E-01  8.50000000E-01
  8.50000000E-01  8.50000000E-01  8.50000000E-01  8.50000000E-01  8.50000000E-01
  8.50000000E-01  8.50000000E-01  8.50000000E-01  8.50000000E-01  8.50000000E-01
  8.50000000E-01  8.50000000E-01  8.50000000E-01  8.50000000E-01  8.50000000E-01
  8.50000000E-01  8.50000000E-01  8.50000000E-01  8.50000000E-01  8.50000000E-01
  8.50000000E-01  8.50000000E-01  8.50000000E-01  8.50000000E-01  8.50000000E-01
  8.50000000E-01  8.50000000E-01  8.50000000E-01  8.50000000E-01  8.50000000E-01
  8.50000000E-01  8.50000000E-01  8.50000000E-01  8.50000000E-01  8.50000000E-01
  8.50000000E-01  8.50000000E-01  8.50000000E-01  8.50000000E-01  8.50000000E-01
  8.50000000E-01  8.50000000E-01  8.50000000E-01  8.50000000E-01  8.50000000E-01
  8.50000000E-01  8.50000000E-01  8.50000000E-01  8.50000000E-01  8.50000000E-01
  8.50000000E-01  8.50000000E-01  8.50000000E-01  8.50000000E-01  8.50000000E-01
  8.50000000E-01  8.50000000E-01  8.50000000E-01  8.50000000E-01  8.50000000E-01
  8.50000000E-01  8.50000000E-01  8.50000000E-01  8.50000000E-01  8.50000000E-01
  8.50000000E-01  8.50000000E-01  8.50000000E-01  8.50000000E-01  8.50000000E-01
  8.50000000E-01  8.50000000E-01  8.50000000E-01  8.50000000E-01  8.50000000E-01
  8.50000000E-01  8.50000000E-01  8.50000000E-01  8.50000000E-01  8.50000000E-01
  8.50000000E-01  8.50000000E-01  8.50000000E-01  8.50000000E-01  8.50000000E-01
  8.50000000E-01  8.50000000E-01  8.50000000E-01  8.50000000E-01  8.50000000E-01
  8.50000000E-01  8.50000000E-01  8.50000000E-01  8.50000000E-01  8.50000000E-01
  8.50000000E-01  8.50000000E-01  8.50000000E-01  8.50000000E-01  8.50000000E-01
  8.50000000E-01  8.50000000E-01  8.50000000E-01  8.50000000E-01  8.50000000E-01
  8.50000000E-01  8.50000000E-01  8.50000000E-01  8.50000000E-01  8.50000000E-01
  8.50000000E-01  8.50000000E-01  8.50000000E-01  8.50000000E-01  8.50000000E-01
  8.50000000E-01  8.50000000E-01  8.50000000E-01  8.50000000E-01  8.50000000E-01
  8.50000000E-01  8.50000000E-01  8.50000000E-01  8.50000000E-01  8.50000000E-01
  8.50000000E-01  8.50000000E-01  8.50000000E-01  8.50000000E-01  8.50000000E-01
  8.50000000E-01  8.50000000E-01  8.50000000E-01  8.50000000E-01  8.50000000E-01
  8.50000000E-01  8.50000000E-01  8.50000000E-01  8.50000000E-01  8.50000000E-01
  8.50000000E-01  8.50000000E-01  8.50000000E-01  8.50000000E-01  8.50000000E-01
  8.50000000E-01  8.50000000E-01  8.50000000E-01  8.50000000E-01  8.50000000E-01
  8.50000000E-01  8.50000000E-01  8.50000000E-01  8.50000000E-01  8.50000000E-01
  8.50000000E-01  8.50000000E-01  8.50000000E-01  8.50000000E-01  8.50000000E-01
  8.50000000E-01  8.50000000E-01  8.50000000E-01  8.50000000E-01  8.50000000E-01
  8.50000000E-01  8.50000000E-01  8.50000000E-01  8.50000000E-01  8.50000000E-01
  8.50000000E-01  8.50000000E-01  8.50000000E-01  8.50000000E-01  8.50000000E-01
  8.50000000E-01  8.50000000E-01  8.50000000E-01  8.50000000E-01  8.50000000E-01
  8.50000000E-01  8.50000000E-01  8.50000000E-01  8.50000000E-01  8.50000000E-01
  8.50000000E-01  8.50000000E-01  8.50000000E-01  8.50000000E-01  8.50000000E-01
  8.50000000E-01  8.50000000E-01  8.50000000E-01  8.50000000E-01  8.50000000E-01
  8.50000000E-01  8.50000000E-01  8.50000000E-01  8.50000000E-01  8.50000000E-01
  8.50000000E-01  8.50000000E-01  8.50000000E-01  8.50000000E-01  8.50000000E-01
  8.50000000E-01  8.50000000E-01  8.50000000E-01  8.50000000E-01  8.50000000E-01
  8.50000000E-01  8.50000000E-01  8.50000000E-01  8.50000000E-01  8.50000000E-01
  8.50000000E-01  8.50000000E-01  8.50000000E-01  8.50000000E-01  8.50000000E-01
  8.50000000E-01  8.50000000E-01  8.50000000E-01  8.50000000E-01  8.50000000E-01
  8.50000000E-01  8.50000000E-01  8.50000000E-01  8.50000000E-01  8.50000000E-01
  8.50000000E-01  8.50000000E-01  8.50000000E-01  8.50000000E-01  8.50000000E-01
  8.50000000E-01  8.50000000E-01  8.50000000E-01  8.50000000E-01  8.50000000E-01
  8.50000000E-01  8.50000000E-01  8.50000000E-01  8.50000000E-01  8.50000000E-01
  8.50000000E-01  8.50000000E-01  8.50000000E-01  8.50000000E-01  8.50000000E-01
  8.50000000E-01  8.50000000E-01  8.50000000E-01  8.50000000E-01  8.50000000E-01
  8.50000000E-01  8.50000000E-01  8.50000000E-01  8.50000000E-01  8.50000000E-01
  8.50000000E-01  8.50000000E-01  8.50000000E-01  8.50000000E-01  8.50000000E-01
  8.50000000E-01  8.50000000E-01  8.50000000E-01  8.50000000E-01  8.50000000E-01
  8.50000000E-01  8.50000000E-01  8.50000000E-01  8.50000000E-01  8.50000000E-01
  8.50000000E-01  8.50000000E-01  8.50000000E-01  8.50000000E-01  8.50000000E-01
  8.50000000E-01  8.50000000E-01  8.50000000E-01  8.50000000E-01  8.50000000E-01
  8.50000000E-01  8.50000000E-01  8.50000000E-01  8.50000000E-01  8.50000000E-01
  8.50000000E-01  8.50000000E-01  8.50000000E-01  8.50000000E-01  8.50000000E-01
  8.50000000E-01  8.50000000E-01  8.50000000E-01  8.50000000E-01  8.50000000E-01
  8.50000000E-01  8.50000000E-01  8.50000000E-01  8.50000000E-01  8.50000000E-01
  8.50000000E-01  8.50000000E-01  8.50000000E-01  8.50000000E-01  8.50000000E-01
  8.50000000E-01  8.50000000E-01  8.50000000E-01  8.50000000E-01  8.50000000E-01
  8.50000000E-01  8.50000000E-01  8.50000000E-01  8.50000000E-01  8.50000000E-01
  8.50000000E-01  8.50000000E-01  8.50000000E-01  8.50000000E-01  8.50000000E-01
  8.50000000E-01  8.50000000E-01  8.50000000E-01  8.50000000E-01  8.50000000E-01
  8.50000000E-01  8.50000000E-01  8.50000000E-01  8.50000000E-01  8.50000000E-01
  8.50000000E-01  8.50000000E-01  8.50000000E-01  8.50000000E-01  8.50000000E-01
  8.50000000E-01  8.50000000E-01  8.50000000E-01  8.50000000E-01  8.50000000E-01
  8.50000000E-01  8.50000000E-01  8.50000000E-01  8.50000000E-01  8.50000000E-01
  8.50000000E-01  8.50000000E-01  8.50000000E-01  8.50000000E-01  8.50000000E-01
  8.50000000E-01  8.50000000E-01  8.50000000E-01  8.50000000E-01  8.50000000E-01
  8.50000000E-01  8.50000000E-01  8.50000000E-01  8.50000000E-01  8.50000000E-01
  8.50000000E-01  8.50000000E-01  8.50000000E-01  8.50000000E-01  8.50000000E-01
  8.50000000E-01  8.50000000E-01  8.50000000E-01  8.50000000E-01  8.50000000E-01
  8.50000000E-01  8.50000000E-01  8.50000000E-01  8.50000000E-01  8.50000000E-01
  8.50000000E-01  8.50000000E-01  8.50000000E-01  8.50000000E-01  8.50000000E-01
  8.50000000E-01  8.50000000E-01  8.50000000E-01  8.50000000E-01  8.50000000E-01
  8.50000000E-01  8.50000000E-01  8.50000000E-01  8.50000000E-01  8.50000000E-01
  8.50000000E-01  8.50000000E-01  8.50000000E-01  8.50000000E-01  8.50000000E-01
  8.50000000E-01  8.50000000E-01  8.50000000E-01  8.50000000E-01  8.50000000E-01
  8.50000000E-01  8.50000000E-01  8.50000000E-01  8.50000000E-01  8.50000000E-01
  8.50000000E-01  8.50000000E-01  8.50000000E-01  8.50000000E-01  8.50000000E-01
  8.50000000E-01  8.50000000E-01  8.50000000E-01  8.50000000E-01  8.50000000E-01
  8.50000000E-01  8.50000000E-01  8.50000000E-01  8.50000000E-01  8.50000000E-01
  8.50000000E-01  8.50000000E-01  8.50000000E-01  8.50000000E-01  8.50000000E-01
  8.50000000E-01  8.50000000E-01  8.50000000E-01  8.50000000E-01  8.50000000E-01
  8.50000000E-01  8.50000000E-01  8.50000000E-01  8.50000000E-01  8.50000000E-01
  8.50000000E-01  8.50000000E-01  8.50000000E-01  8.50000000E-01  8.50000000E-01
  8.50000000E-01  8.50000000E-01  8.50000000E-01  8.50000000E-01  8.50000000E-01
  8.50000000E-01  8.50000000E-01  8.50000000E-01  8.50000000E-01  8.50000000E-01
  8.50000000E-01  8.50000000E-01  8.50000000E-01  8.50000000E-01  8.50000000E-01
  8.50000000E-01  8.50000000E-01  8.50000000E-01  8.50000000E-01  8.50000000E-01
  8.50000000E-01  8.50000000E-01  8.50000000E-01  8.50000000E-01  8.50000000E-01
  8.50000000E-01  8.50000000E-01  8.50000000E-01  8.50000000E-01  8.50000000E-01
  8.50000000E-01  8.50000000E-01  8.50000000E-01  8.50000000E-01  8.50000000E-01
  8.50000000E-01  8.50000000E-01  8.50000000E-01  8.50000000E-01  8.50000000E-01
  8.50000000E-01  8.50000000E-01  8.50000000E-01  8.50000000E-01  8.50000000E-01
  8.50000000E-01  8.50000000E-01  8.50000000E-01  8.50000000E-01  8.50000000E-01
  8.50000000E-01  8.50000000E-01  8.50000000E-01  8.50000000E-01  8.50000000E-01
  8.50000000E-01  8.50000000E-01  8.50000000E-01  8.50000000E-01  8.50000000E-01
  8.50000000E-01  8.50000000E-01  8.50000000E-01  8.50000000E-01  8.50000000E-01
  8.50000000E-01  8.50000000E-01  8.50000000E-01  8.50000000E-01  8.50000000E-01
  8.50000000E-01  8.50000000E-01  8.50000000E-01  8.50000000E-01  8.50000000E-01
  8.50000000E-01  8.50000000E-01  8.50000000E-01  8.50000000E-01  8.50000000E-01
  8.50000000E-01  8.50000000E-01  8.50000000E-01  8.50000000E-01  8.50000000E-01
  8.50000000E-01  8.50000000E-01  8.50000000E-01  8.50000000E-01  8.50000000E-01
  8.50000000E-01  8.50000000E-01  8.50000000E-01  8.50000000E-01  8.50000000E-01
  8.50000000E-01  8.50000000E-01  8.50000000E-01  8.50000000E-01  8.50000000E-01
  8.50000000E-01  8.50000000E-01  8.50000000E-01  8.50000000E-01  8.50000000E-01
  8.50000000E-01  8.50000000E-01  8.50000000E-01  8.50000000E-01  8.50000000E-01
  8.50000000E-01  8.50000000E-01  8.50000000E-01  8.50000000E-01  8.50000000E-01
  8.50000000E-01  8.50000000E-01  8.50000000E-01  8.50000000E-01  8.50000000E-01
  8.50000000E-01  8.50000000E-01  8.50000000E-01  8.50000000E-01  8.50000000E-01
  8.50000000E-01  8.50000000E-01  8.50000000E-01  8.50000000E-01  8.50000000E-01
  8.50000000E-01  8.50000000E-01  8.50000000E-01  8.50000000E-01  8.50000000E-01
  8.50000000E-01  8.50000000E-01  8.50000000E-01  8.50000000E-01  8.50000000E-01
  8.50000000E-01  8.50000000E-01  8.50000000E-01  8.50000000E-01  8.50000000E-01
  8.50000000E-01  8.50000000E-01  8.50000000E-01  8.50000000E-01  8.50000000E-01
  8.50000000E-01  8.50000000E-01  8.50000000E-01  8.50000000E-01  8.50000000E-01
  8.50000000E-01  8.50000000E-01  8.50000000E-01  8.50000000E-01  8.50000000E-01
  8.50000000E-01  8.50000000E-01  8.50000000E-01  8.50000000E-01  8.50000000E-01
  8.50000000E-01  8.50000000E-01  8.50000000E-01  8.50000000E-01  8.50000000E-01
  8.50000000E-01  8.50000000E-01  8.50000000E-01  8.50000000E-01  8.50000000E-01
  8.50000000E-01  8.50000000E-01  8.50000000E-01  8.50000000E-01  8.50000000E-01
  8.50000000E-01  8.50000000E-01  8.50000000E-01  8.50000000E-01  8.50000000E-01
  8.50000000E-01  8.50000000E-01  8.50000000E-01  8.50000000E-01  8.50000000E-01
  8.50000000E-01  8.50000000E-01  8.50000000E-01  8.50000000E-01  8.50000000E-01
  8.50000000E-01  8.50000000E-01  8.50000000E-01  8.50000000E-01  8.50000000E-01
  8.50000000E-01  8.50000000E-01  8.50000000E-01  8.50000000E-01  8.50000000E-01
  8.50000000E-01  8.50000000E-01  8.50000000E-01  8.50000000E-01  8.50000000E-01
  8.50000000E-01  8.50000000E-01  8.50000000E-01  8.50000000E-01  8.50000000E-01
  8.50000000E-01  8.50000000E-01  8.50000000E-01  8.50000000E-01  8.50000000E-01
  8.50000000E-01  8.50000000E-01  8.50000000E-01  8.50000000E-01  8.50000000E-01
  8.50000000E-01  8.50000000E-01  8.50000000E-01  8.50000000E-01  8.50000000E-01
  8.50000000E-01  8.50000000E-01  8.50000000E-01  8.50000000E-01  8.50000000E-01
  8.50000000E-01  8.50000000E-01  8.50000000E-01  8.50000000E-01  8.50000000E-01
  8.50000000E-01  8.50000000E-01  8.50000000E-01  8.50000000E-01  8.50000000E-01
  8.50000000E-01  8.50000000E-01  8.50000000E-01  8.50000000E-01  8.50000000E-01
  8.50000000E-01  8.50000000E-01  8.50000000E-01  8.50000000E-01  8.50000000E-01
  8.50000000E-01  8.50000000E-01  8.50000000E-01  8.50000000E-01  8.50000000E-01
  8.50000000E-01  8.50000000E-01  8.50000000E-01  8.50000000E-01  8.50000000E-01
  8.50000000E-01  8.50000000E-01  8.50000000E-01  8.50000000E-01  8.50000000E-01
  8.50000000E-01  8.50000000E-01  8.50000000E-01  8.50000000E-01  8.50000000E-01
  8.50000000E-01  8.50000000E-01  8.50000000E-01  8.50000000E-01  8.50000000E-01
  8.50000000E-01  8.50000000E-01  8.50000000E-01  8.50000000E-01  8.50000000E-01
  8.50000000E-01  8.50000000E-01  8.50000000E-01  8.50000000E-01  8.50000000E-01
  8.50000000E-01  8.50000000E-01  8.50000000E-01  8.50000000E-01  8.50000000E-01
  8.50000000E-01  8.50000000E-01  8.50000000E-01  8.50000000E-01  8.50000000E-01
  8.50000000E-01  8.50000000E-01  8.50000000E-01  8.50000000E-01  8.50000000E-01
  8.50000000E-01  8.50000000E-01  8.50000000E-01  8.50000000E-01  8.50000000E-01
  8.50000000E-01  8.50000000E-01  8.50000000E-01  8.50000000E-01  8.50000000E-01
  8.50000000E-01  8.50000000E-01  8.50000000E-01  8.50000000E-01  8.50000000E-01
  8.50000000E-01  8.50000000E-01  8.50000000E-01  8.50000000E-01  8.50000000E-01
  8.50000000E-01  8.50000000E-01  8.50000000E-01  8.50000000E-01  8.50000000E-01
  8.50000000E-01  8.50000000E-01  8.50000000E-01  8.50000000E-01  8.50000000E-01
  8.50000000E-01  8.50000000E-01  8.50000000E-01  8.50000000E-01  8.50000000E-01
  8.50000000E-01  8.50000000E-01  8.50000000E-01  8.50000000E-01  8.50000000E-01
  8.50000000E-01  8.50000000E-01  8.50000000E-01  8.50000000E-01  8.50000000E-01
  8.50000000E-01  8.50000000E-01  8.50000000E-01  8.50000000E-01  8.50000000E-01
  8.50000000E-01  8.50000000E-01  8.50000000E-01  8.50000000E-01  8.50000000E-01
  8.50000000E-01  8.50000000E-01  8.50000000E-01  8.50000000E-01  8.50000000E-01
  8.50000000E-01  8.50000000E-01  8.50000000E-01  8.50000000E-01  8.50000000E-01
  8.50000000E-01  8.50000000E-01  8.50000000E-01  8.50000000E-01  8.50000000E-01
  8.50000000E-01  8.50000000E-01  8.50000000E-01  8.50000000E-01  8.50000000E-01
  8.50000000E-01  8.50000000E-01  8.50000000E-01  8.50000000E-01  8.50000000E-01
  8.50000000E-01  8.50000000E-01  8.50000000E-01  8.50000000E-01  8.50000000E-01
  8.50000000E-01  8.50000000E-01  8.50000000E-01  8.50000000E-01  8.50000000E-01
  8.50000000E-01  8.50000000E-01  8.50000000E-01  8.50000000E-01  8.50000000E-01
  8.50000000E-01  8.50000000E-01  8.50000000E-01  8.50000000E-01  8.50000000E-01
  8.50000000E-01  8.50000000E-01  8.50000000E-01  8.50000000E-01  8.50000000E-01
  8.50000000E-01  8.50000000E-01  8.50000000E-01  8.50000000E-01  8.50000000E-01
  8.50000000E-01  8.50000000E-01  8.50000000E-01  8.50000000E-01  8.50000000E-01
  8.50000000E-01  8.50000000E-01  8.50000000E-01  8.50000000E-01  8.50000000E-01
  8.50000000E-01  8.50000000E-01  8.50000000E-01  8.50000000E-01  8.50000000E-01
  8.50000000E-01  8.50000000E-01  8.50000000E-01  8.50000000E-01  8.50000000E-01
  8.50000000E-01  8.50000000E-01  8.50000000E-01  8.50000000E-01  8.50000000E-01
  8.50000000E-01  8.50000000E-01  8.50000000E-01  8.50000000E-01  8.50000000E-01
  8.50000000E-01  8.50000000E-01  8.50000000E-01  8.50000000E-01  8.50000000E-01
  8.50000000E-01  8.50000000E-01  8.50000000E-01  8.50000000E-01  8.50000000E-01
  8.50000000E-01  8.50000000E-01  8.50000000E-01  8.50000000E-01  8.50000000E-01
  8.50000000E-01  8.50000000E-01  8.50000000E-01  8.50000000E-01  8.50000000E-01
  8.50000000E-01  8.50000000E-01  8.50000000E-01  8.50000000E-01  8.50000000E-01
  8.50000000E-01  8.50000000E-01  8.50000000E-01  8.50000000E-01  8.50000000E-01
  8.50000000E-01  8.50000000E-01  8.50000000E-01  8.50000000E-01  8.50000000E-01
  8.50000000E-01  8.50000000E-01  8.50000000E-01  8.50000000E-01  8.50000000E-01
  8.50000000E-01  8.50000000E-01  8.50000000E-01  8.50000000E-01  8.50000000E-01
  8.50000000E-01  8.50000000E-01  8.50000000E-01  8.50000000E-01  8.50000000E-01
  8.50000000E-01  8.50000000E-01  8.50000000E-01  8.50000000E-01  8.50000000E-01
  8.50000000E-01  8.50000000E-01  8.50000000E-01  8.50000000E-01  8.50000000E-01
  8.50000000E-01  8.50000000E-01  8.50000000E-01  8.50000000E-01  8.50000000E-01
  8.50000000E-01  8.50000000E-01  8.50000000E-01  8.50000000E-01  8.50000000E-01
  8.50000000E-01  8.50000000E-01  8.50000000E-01  8.50000000E-01  8.50000000E-01
  8.50000000E-01  8.50000000E-01  8.50000000E-01  8.50000000E-01  8.50000000E-01
  8.50000000E-01  8.50000000E-01  8.50000000E-01  8.50000000E-01  8.50000000E-01
  8.50000000E-01  8.50000000E-01  8.50000000E-01  8.50000000E-01  8.50000000E-01
  8.50000000E-01  8.50000000E-01  8.50000000E-01  8.50000000E-01  8.50000000E-01
  8.50000000E-01  8.50000000E-01  8.50000000E-01  8.50000000E-01  8.50000000E-01
  8.50000000E-01  8.50000000E-01  8.50000000E-01  8.50000000E-01  8.50000000E-01
  8.50000000E-01  8.50000000E-01  8.50000000E-01  8.50000000E-01  8.50000000E-01
  8.50000000E-01  8.50000000E-01  8.50000000E-01  8.50000000E-01  8.50000000E-01
  8.50000000E-01  8.50000000E-01  8.50000000E-01  8.50000000E-01  8.50000000E-01
  8.50000000E-01  8.50000000E-01  8.50000000E-01  8.50000000E-01  8.50000000E-01
  8.50000000E-01  8.50000000E-01  8.50000000E-01  8.50000000E-01  8.50000000E-01
  8.50000000E-01  8.50000000E-01  8.50000000E-01  8.50000000E-01  8.50000000E-01
  8.50000000E-01  8.50000000E-01  8.50000000E-01  8.50000000E-01  8.50000000E-01
  8.50000000E-01  8.50000000E-01  8.50000000E-01  8.50000000E-01  8.50000000E-01
  8.50000000E-01  8.50000000E-01  8.50000000E-01  8.50000000E-01  8.50000000E-01
  8.50000000E-01  8.50000000E-01  8.50000000E-01  8.50000000E-01  8.50000000E-01
  8.50000000E-01  8.50000000E-01  8.50000000E-01  8.50000000E-01  8.50000000E-01
  8.50000000E-01  8.50000000E-01  8.50000000E-01  8.50000000E-01  8.50000000E-01
  8.50000000E-01  8.50000000E-01  8.50000000E-01  8.50000000E-01  8.50000000E-01
  8.50000000E-01  8.50000000E-01  8.50000000E-01  8.50000000E-01  8.50000000E-01
  8.50000000E-01  8.50000000E-01  8.50000000E-01  8.50000000E-01  8.50000000E-01
  8.50000000E-01  8.50000000E-01  8.50000000E-01  8.50000000E-01  8.50000000E-01
  8.50000000E-01  8.50000000E-01  8.50000000E-01  8.50000000E-01  8.50000000E-01
  8.50000000E-01  8.50000000E-01  8.50000000E-01  8.50000000E-01  8.50000000E-01
  8.50000000E-01  8.50000000E-01  8.50000000E-01  8.50000000E-01  8.50000000E-01
  8.50000000E-01  8.50000000E-01  8.50000000E-01  8.50000000E-01  8.50000000E-01
  8.50000000E-01  8.50000000E-01  8.50000000E-01  8.50000000E-01  8.50000000E-01
  8.50000000E-01  8.50000000E-01  8.50000000E-01  8.50000000E-01  8.50000000E-01
  8.50000000E-01  8.50000000E-01  8.50000000E-01  8.50000000E-01  8.50000000E-01
  8.50000000E-01  8.50000000E-01  8.50000000E-01  8.50000000E-01  8.50000000E-01
  8.50000000E-01  8.50000000E-01  8.50000000E-01  8.50000000E-01  8.50000000E-01
  8.50000000E-01  8.50000000E-01  8.50000000E-01  8.50000000E-01  8.50000000E-01
  8.50000000E-01  8.50000000E-01  8.50000000E-01  8.50000000E-01  8.50000000E-01
  8.50000000E-01  8.50000000E-01  8.50000000E-01  8.50000000E-01  8.50000000E-01
  8.50000000E-01  8.50000000E-01  8.50000000E-01  8.50000000E-01  8.50000000E-01
  8.50000000E-01  8.50000000E-01  8.50000000E-01  8.50000000E-01  8.50000000E-01
  8.50000000E-01  8.50000000E-01  8.50000000E-01  8.50000000E-01  8.50000000E-01
  8.50000000E-01  8.50000000E-01  8.50000000E-01  8.50000000E-01  8.50000000E-01
  8.50000000E-01  8.50000000E-01  8.50000000E-01  8.50000000E-01  8.50000000E-01
  8.50000000E-01  8.50000000E-01  8.50000000E-01  8.50000000E-01  8.50000000E-01
  8.50000000E-01  8.50000000E-01  8.50000000E-01  8.50000000E-01  8.50000000E-01
  8.50000000E-01  8.50000000E-01  8.50000000E-01  8.50000000E-01  8.50000000E-01
  8.50000000E-01  8.50000000E-01  8.50000000E-01  8.50000000E-01  8.50000000E-01
  8.50000000E-01  8.50000000E-01  8.50000000E-01  8.50000000E-01  8.50000000E-01
  8.50000000E-01  8.50000000E-01  8.50000000E-01  8.50000000E-01  8.50000000E-01
  8.50000000E-01  8.50000000E-01  8.50000000E-01  8.50000000E-01  8.50000000E-01
  8.50000000E-01  8.50000000E-01  8.50000000E-01  8.50000000E-01  8.50000000E-01
  8.50000000E-01  8.50000000E-01  8.50000000E-01  8.50000000E-01  8.50000000E-01
  8.50000000E-01  8.50000000E-01  8.50000000E-01  8.50000000E-01  8.50000000E-01
  8.50000000E-01  8.50000000E-01  8.50000000E-01  8.50000000E-01  8.50000000E-01
  8.50000000E-01  8.50000000E-01  8.50000000E-01  8.50000000E-01  8.50000000E-01
  8.50000000E-01  8.50000000E-01  8.50000000E-01  8.50000000E-01  8.50000000E-01
  8.50000000E-01  8.50000000E-01  8.50000000E-01  8.50000000E-01  8.50000000E-01
  8.50000000E-01  8.50000000E-01  8.50000000E-01  8.50000000E-01  8.50000000E-01
  8.50000000E-01  8.50000000E-01  8.50000000E-01  8.50000000E-01  8.50000000E-01
  8.50000000E-01  8.50000000E-01  8.50000000E-01  8.50000000E-01  8.50000000E-01
  8.50000000E-01  8.50000000E-01  8.50000000E-01  8.50000000E-01  8.50000000E-01
  8.50000000E-01  8.50000000E-01  8.50000000E-01  8.50000000E-01  8.50000000E-01
  8.50000000E-01  8.50000000E-01  8.50000000E-01  8.50000000E-01  8.50000000E-01
  8.50000000E-01  8.50000000E-01  8.50000000E-01  8.50000000E-01  8.50000000E-01
  8.50000000E-01  8.50000000E-01  8.50000000E-01  8.50000000E-01  8.50000000E-01
  8.50000000E-01  8.50000000E-01  8.50000000E-01  8.50000000E-01  8.50000000E-01
  8.50000000E-01  8.50000000E-01  8.50000000E-01  8.50000000E-01  8.50000000E-01
  8.50000000E-01  8.50000000E-01  8.50000000E-01  8.50000000E-01  8.50000000E-01
  8.50000000E-01  8.50000000E-01  8.50000000E-01  8.50000000E-01  8.50000000E-01
  8.50000000E-01  8.50000000E-01  8.50000000E-01  8.50000000E-01  8.50000000E-01
  8.50000000E-01  8.50000000E-01  8.50000000E-01  8.50000000E-01  8.50000000E-01
  8.50000000E-01  8.50000000E-01  8.50000000E-01  8.50000000E-01  8.50000000E-01
  8.50000000E-01  8.50000000E-01  8.50000000E-01  8.50000000E-01  8.50000000E-01
  8.50000000E-01  8.50000000E-01  8.50000000E-01  8.50000000E-01  8.50000000E-01
  8.50000000E-01  8.50000000E-01  8.50000000E-01  8.50000000E-01  8.50000000E-01
  8.50000000E-01  8.50000000E-01  8.50000000E-01  8.50000000E-01  8.50000000E-01
  8.50000000E-01  8.50000000E-01  8.50000000E-01  8.50000000E-01  8.50000000E-01
  8.50000000E-01  8.50000000E-01  8.50000000E-01  8.50000000E-01  8.50000000E-01
  8.50000000E-01  8.50000000E-01  8.50000000E-01  8.50000000E-01  8.50000000E-01
  8.50000000E-01  8.50000000E-01  8.50000000E-01  8.50000000E-01  8.50000000E-01
  8.50000000E-01  8.50000000E-01  8.50000000E-01  8.50000000E-01  8.50000000E-01
  8.50000000E-01  8.50000000E-01  8.50000000E-01  8.50000000E-01  8.50000000E-01
  8.50000000E-01  8.50000000E-01  8.50000000E-01  8.50000000E-01  8.50000000E-01
  8.50000000E-01  8.50000000E-01  8.50000000E-01  8.50000000E-01  8.50000000E-01
  8.50000000E-01  8.50000000E-01  8.50000000E-01  8.50000000E-01  8.50000000E-01
  8.50000000E-01  8.50000000E-01  8.50000000E-01  8.50000000E-01  8.50000000E-01
  8.50000000E-01  8.50000000E-01  8.50000000E-01  8.50000000E-01  8.50000000E-01
  8.50000000E-01  8.50000000E-01  8.50000000E-01  8.50000000E-01  8.50000000E-01
  8.50000000E-01  8.50000000E-01  8.50000000E-01  8.50000000E-01  8.50000000E-01
  8.50000000E-01  8.50000000E-01  8.50000000E-01  8.50000000E-01  8.50000000E-01
  8.50000000E-01  8.50000000E-01  8.50000000E-01  8.50000000E-01  8.50000000E-01
  8.50000000E-01  8.50000000E-01  8.50000000E-01  8.50000000E-01  8.50000000E-01
  8.50000000E-01  8.50000000E-01  8.50000000E-01  8.50000000E-01  8.50000000E-01
  8.50000000E-01  8.50000000E-01  8.50000000E-01  8.50000000E-01  8.50000000E-01
  8.50000000E-01  8.50000000E-01  8.50000000E-01  8.50000000E-01  8.50000000E-01
  8.50000000E-01  8.50000000E-01  8.50000000E-01  8.50000000E-01  8.50000000E-01
  8.50000000E-01  8.50000000E-01  8.50000000E-01  8.50000000E-01  8.50000000E-01
  8.50000000E-01  8.50000000E-01  8.50000000E-01  8.50000000E-01  8.50000000E-01
  8.50000000E-01  8.50000000E-01  8.50000000E-01  8.50000000E-01  8.50000000E-01
  8.50000000E-01  8.50000000E-01  8.50000000E-01  8.50000000E-01  8.50000000E-01
  8.50000000E-01  8.50000000E-01  8.50000000E-01  8.50000000E-01  8.50000000E-01
  8.50000000E-01  8.50000000E-01  8.50000000E-01  8.50000000E-01  8.50000000E-01
  8.50000000E-01  8.50000000E-01  8.50000000E-01  8.50000000E-01  8.50000000E-01
  8.50000000E-01  8.50000000E-01  8.50000000E-01  8.50000000E-01  8.50000000E-01
  8.50000000E-01  8.50000000E-01  8.50000000E-01  8.50000000E-01  8.50000000E-01
  8.50000000E-01  8.50000000E-01  8.50000000E-01  8.50000000E-01  8.50000000E-01
  8.50000000E-01  8.50000000E-01  8.50000000E-01  8.50000000E-01  8.50000000E-01
  8.50000000E-01  8.50000000E-01  8.50000000E-01  8.50000000E-01  8.50000000E-01
  8.50000000E-01  8.50000000E-01  8.50000000E-01  8.50000000E-01  8.50000000E-01
  8.50000000E-01  8.50000000E-01  8.50000000E-01  8.50000000E-01  8.50000000E-01
  8.50000000E-01  8.50000000E-01  8.50000000E-01  8.50000000E-01  8.50000000E-01
  8.50000000E-01  8.50000000E-01  8.50000000E-01  8.50000000E-01  8.50000000E-01
  8.50000000E-01  8.50000000E-01  8.50000000E-01  8.50000000E-01  8.50000000E-01
  8.50000000E-01  8.50000000E-01  8.50000000E-01  8.50000000E-01  8.50000000E-01
  8.50000000E-01  8.50000000E-01  8.50000000E-01  8.50000000E-01  8.50000000E-01
  8.50000000E-01  8.50000000E-01  8.50000000E-01  8.50000000E-01  8.50000000E-01
  8.50000000E-01  8.50000000E-01  8.50000000E-01  8.50000000E-01  8.50000000E-01
  8.50000000E-01  8.50000000E-01  8.50000000E-01  8.50000000E-01  8.50000000E-01
  8.50000000E-01  8.50000000E-01  8.50000000E-01  8.50000000E-01  8.50000000E-01
  8.50000000E-01  8.50000000E-01  8.50000000E-01  8.50000000E-01  8.50000000E-01
  8.50000000E-01  8.50000000E-01  8.50000000E-01  8.50000000E-01  8.50000000E-01
  8.50000000E-01  8.50000000E-01  8.50000000E-01  8.50000000E-01  8.50000000E-01
  8.50000000E-01  8.50000000E-01  8.50000000E-01  8.50000000E-01  8.50000000E-01
  8.50000000E-01  8.50000000E-01  8.50000000E-01  8.50000000E-01  8.50000000E-01
  8.50000000E-01  8.50000000E-01  8.50000000E-01  8.50000000E-01  8.50000000E-01
  8.50000000E-01  8.50000000E-01  8.50000000E-01  8.50000000E-01  8.50000000E-01
  8.50000000E-01  8.50000000E-01  8.50000000E-01  8.50000000E-01  8.50000000E-01
  8.50000000E-01  8.50000000E-01  8.50000000E-01  8.50000000E-01  8.50000000E-01
  8.50000000E-01  8.50000000E-01  8.50000000E-01  8.50000000E-01  8.50000000E-01
  8.50000000E-01  8.50000000E-01  8.50000000E-01  8.50000000E-01  8.50000000E-01
  8.50000000E-01  8.50000000E-01  8.50000000E-01  8.50000000E-01  8.50000000E-01
  8.50000000E-01  8.50000000E-01  8.50000000E-01  8.50000000E-01  8.50000000E-01
  8.50000000E-01  8.50000000E-01  8.50000000E-01  8.50000000E-01  8.50000000E-01
  8.50000000E-01  8.50000000E-01  8.50000000E-01  8.50000000E-01  8.50000000E-01
  8.50000000E-01  8.50000000E-01  8.50000000E-01  8.50000000E-01  8.50000000E-01
  8.50000000E-01  8.50000000E-01  8.50000000E-01  8.50000000E-01  8.50000000E-01
  8.50000000E-01  8.50000000E-01  8.50000000E-01  8.50000000E-01  8.50000000E-01
  8.50000000E-01  8.50000000E-01  8.50000000E-01  8.50000000E-01  8.50000000E-01
  8.50000000E-01  8.50000000E-01  8.50000000E-01  8.50000000E-01  8.50000000E-01
  8.50000000E-01  8.50000000E-01  8.50000000E-01  8.50000000E-01  8.50000000E-01
  8.50000000E-01  8.50000000E-01  8.50000000E-01  8.50000000E-01  8.50000000E-01
  8.50000000E-01  8.50000000E-01  8.50000000E-01  8.50000000E-01  8.50000000E-01
  8.50000000E-01  8.50000000E-01  8.50000000E-01  8.50000000E-01  8.50000000E-01
  8.50000000E-01  8.50000000E-01  8.50000000E-01  8.50000000E-01  8.50000000E-01
  8.50000000E-01  8.50000000E-01  8.50000000E-01  8.50000000E-01  8.50000000E-01
  8.50000000E-01  8.50000000E-01  8.50000000E-01  8.50000000E-01  8.50000000E-01
  8.50000000E-01  8.50000000E-01  8.50000000E-01  8.50000000E-01  8.50000000E-01
  8.50000000E-01  8.50000000E-01  8.50000000E-01  8.50000000E-01  8.50000000E-01
  8.50000000E-01  8.50000000E-01  8.50000000E-01  8.50000000E-01  8.50000000E-01
  8.50000000E-01  8.50000000E-01  8.50000000E-01  8.50000000E-01  8.50000000E-01
  8.50000000E-01  8.50000000E-01  8.50000000E-01  8.50000000E-01  8.50000000E-01
  8.50000000E-01  8.50000000E-01  8.50000000E-01  8.50000000E-01  8.50000000E-01
  8.50000000E-01  8.50000000E-01  8.50000000E-01  8.50000000E-01  8.50000000E-01
  8.50000000E-01  8.50000000E-01  8.50000000E-01  8.50000000E-01  8.50000000E-01
  8.50000000E-01  8.50000000E-01  8.50000000E-01  8.50000000E-01  8.50000000E-01
  8.50000000E-01  8.50000000E-01  8.50000000E-01  8.50000000E-01  8.50000000E-01
  8.50000000E-01  8.50000000E-01  8.50000000E-01  8.50000000E-01  8.50000000E-01
  8.50000000E-01  8.50000000E-01  8.50000000E-01  8.50000000E-01  8.50000000E-01
  8.50000000E-01  8.50000000E-01  8.50000000E-01  8.50000000E-01  8.50000000E-01
  8.50000000E-01  8.50000000E-01  8.50000000E-01  8.50000000E-01  8.50000000E-01
  8.50000000E-01  8.50000000E-01  8.50000000E-01  8.50000000E-01  8.50000000E-01
  8.50000000E-01  8.50000000E-01  8.50000000E-01  8.50000000E-01  8.50000000E-01
  8.50000000E-01  8.50000000E-01  8.50000000E-01  8.50000000E-01  8.50000000E-01
  8.50000000E-01  8.50000000E-01  8.50000000E-01  8.50000000E-01  8.50000000E-01
  8.50000000E-01  8.50000000E-01  8.50000000E-01  8.50000000E-01  8.50000000E-01
  8.50000000E-01  8.50000000E-01  8.50000000E-01  8.50000000E-01  8.50000000E-01
  8.50000000E-01  8.50000000E-01  8.50000000E-01  8.50000000E-01  8.50000000E-01
  8.50000000E-01  8.50000000E-01  8.50000000E-01  8.50000000E-01  8.50000000E-01
  8.50000000E-01  8.50000000E-01  8.50000000E-01  8.50000000E-01  8.50000000E-01
  8.50000000E-01  8.50000000E-01  8.50000000E-01  8.50000000E-01  8.50000000E-01
  8.50000000E-01  8.50000000E-01  8.50000000E-01  8.50000000E-01  8.50000000E-01
  8.50000000E-01  8.50000000E-01  8.50000000E-01  8.50000000E-01  8.50000000E-01
  8.50000000E-01  8.50000000E-01  8.50000000E-01  8.50000000E-01  8.50000000E-01
  8.50000000E-01  8.50000000E-01  8.50000000E-01  8.50000000E-01  8.50000000E-01
  8.50000000E-01  8.50000000E-01  8.50000000E-01  8.50000000E-01  8.50000000E-01
  8.50000000E-01  8.50000000E-01  8.50000000E-01  8.50000000E-01  8.50000000E-01
  8.50000000E-01  8.50000000E-01  8.50000000E-01  8.50000000E-01  8.50000000E-01
  8.50000000E-01  8.50000000E-01  8.50000000E-01  8.50000000E-01  8.50000000E-01
  8.50000000E-01  8.50000000E-01  8.50000000E-01  8.50000000E-01  8.50000000E-01
  8.50000000E-01  8.50000000E-01  8.50000000E-01  8.50000000E-01  8.50000000E-01
  8.50000000E-01  8.50000000E-01  8.50000000E-01  8.50000000E-01  8.50000000E-01
  8.50000000E-01  8.50000000E-01  8.50000000E-01  8.50000000E-01  8.50000000E-01
  8.50000000E-01  8.50000000E-01  8.50000000E-01  8.50000000E-01  8.50000000E-01
  8.50000000E-01  8.50000000E-01  8.50000000E-01  8.50000000E-01  8.50000000E-01
  8.50000000E-01  8.50000000E-01  8.50000000E-01  8.50000000E-01  8.50000000E-01
  8.50000000E-01  8.50000000E-01  8.50000000E-01  8.50000000E-01  8.50000000E-01
  8.50000000E-01  8.50000000E-01  8.50000000E-01  8.50000000E-01  8.50000000E-01
  8.50000000E-01  8.50000000E-01  8.50000000E-01  8.50000000E-01  8.50000000E-01
  8.50000000E-01  8.50000000E-01  8.50000000E-01  8.50000000E-01  8.50000000E-01
  8.50000000E-01  8.50000000E-01  8.50000000E-01  8.50000000E-01  8.50000000E-01
  8.50000000E-01  8.50000000E-01  8.50000000E-01  8.50000000E-01  8.50000000E-01
  8.50000000E-01  8.50000000E-01  8.50000000E-01  8.50000000E-01  8.50000000E-01
  8.50000000E-01  8.50000000E-01  8.50000000E-01  8.50000000E-01  8.50000000E-01
  8.50000000E-01  8.50000000E-01  8.50000000E-01  8.50000000E-01  8.50000000E-01
  8.50000000E-01  8.50000000E-01  8.50000000E-01  8.50000000E-01  8.50000000E-01
  8.50000000E-01  8.50000000E-01  8.50000000E-01  8.50000000E-01  8.50000000E-01
  8.50000000E-01  8.50000000E-01  8.50000000E-01  8.50000000E-01  8.50000000E-01
  8.50000000E-01  8.50000000E-01  8.50000000E-01  8.50000000E-01  8.50000000E-01
  8.50000000E-01  8.50000000E-01  8.50000000E-01  8.50000000E-01  8.50000000E-01
  8.50000000E-01  8.50000000E-01  8.50000000E-01  8.50000000E-01  8.50000000E-01
  8.50000000E-01  8.50000000E-01  8.50000000E-01  8.50000000E-01  8.50000000E-01
  8.50000000E-01  8.50000000E-01  8.50000000E-01  8.50000000E-01  8.50000000E-01
  8.50000000E-01  8.50000000E-01  8.50000000E-01  8.50000000E-01  8.50000000E-01
  8.50000000E-01  8.50000000E-01  8.50000000E-01  8.50000000E-01  8.50000000E-01
  8.50000000E-01  8.50000000E-01  8.50000000E-01  8.50000000E-01  8.50000000E-01
  8.50000000E-01  8.50000000E-01  8.50000000E-01  8.50000000E-01  8.50000000E-01
  8.50000000E-01  8.50000000E-01  8.50000000E-01  8.50000000E-01  8.50000000E-01
  8.50000000E-01  8.50000000E-01  8.50000000E-01  8.50000000E-01  8.50000000E-01
  8.50000000E-01  8.50000000E-01  8.50000000E-01  8.50000000E-01  8.50000000E-01
  8.50000000E-01  8.50000000E-01  8.50000000E-01  8.50000000E-01  8.50000000E-01
  8.50000000E-01  8.50000000E-01  8.50000000E-01  8.50000000E-01  8.50000000E-01
  8.50000000E-01  8.50000000E-01  8.50000000E-01  8.50000000E-01  8.50000000E-01
  8.50000000E-01  8.50000000E-01  8.50000000E-01  8.50000000E-01  8.50000000E-01
  8.50000000E-01  8.50000000E-01  8.50000000E-01  8.50000000E-01  8.50000000E-01
  8.50000000E-01  8.50000000E-01  8.50000000E-01  8.50000000E-01  8.50000000E-01
  8.50000000E-01  8.50000000E-01  8.50000000E-01  8.50000000E-01  8.50000000E-01
  8.50000000E-01  8.50000000E-01  8.50000000E-01  8.50000000E-01  8.50000000E-01
  8.50000000E-01  8.50000000E-01  8.50000000E-01  8.50000000E-01  8.50000000E-01
  8.50000000E-01  8.50000000E-01  8.50000000E-01  8.50000000E-01  8.50000000E-01
  8.50000000E-01  8.50000000E-01  8.50000000E-01  8.50000000E-01  8.50000000E-01
  8.50000000E-01  8.50000000E-01  8.50000000E-01  8.50000000E-01  8.50000000E-01
  8.50000000E-01  8.50000000E-01  8.50000000E-01  8.50000000E-01  8.50000000E-01
  8.50000000E-01  8.50000000E-01  8.50000000E-01  8.50000000E-01  8.50000000E-01
  8.50000000E-01  8.50000000E-01  8.50000000E-01  8.50000000E-01  8.50000000E-01
  8.50000000E-01  8.50000000E-01  8.50000000E-01  8.50000000E-01  8.50000000E-01
  8.50000000E-01  8.50000000E-01  8.50000000E-01  8.50000000E-01  8.50000000E-01
  8.50000000E-01  8.50000000E-01  8.50000000E-01  8.50000000E-01  8.50000000E-01
  8.50000000E-01  8.50000000E-01  8.50000000E-01  8.50000000E-01  8.50000000E-01
  8.50000000E-01  8.50000000E-01  8.50000000E-01  8.50000000E-01  8.50000000E-01
  8.50000000E-01  8.50000000E-01  8.50000000E-01  8.50000000E-01  8.50000000E-01
  8.50000000E-01  8.50000000E-01  8.50000000E-01  8.50000000E-01  8.50000000E-01
  8.50000000E-01  8.50000000E-01  8.50000000E-01  8.50000000E-01  8.50000000E-01
  8.50000000E-01  8.50000000E-01  8.50000000E-01  8.50000000E-01  8.50000000E-01
  8.50000000E-01  8.50000000E-01  8.50000000E-01  8.50000000E-01  8.50000000E-01
  8.50000000E-01  8.50000000E-01  8.50000000E-01  8.50000000E-01  8.50000000E-01
  8.50000000E-01  8.50000000E-01  8.50000000E-01  8.50000000E-01  8.50000000E-01
  8.50000000E-01  8.50000000E-01  8.50000000E-01  8.50000000E-01  8.50000000E-01
  8.50000000E-01  8.50000000E-01  8.50000000E-01  8.50000000E-01  8.50000000E-01
  8.50000000E-01  8.50000000E-01  8.50000000E-01  8.50000000E-01  8.50000000E-01
  8.50000000E-01  8.50000000E-01  8.50000000E-01  8.50000000E-01  8.50000000E-01
  8.50000000E-01  8.50000000E-01  8.50000000E-01  8.50000000E-01  8.50000000E-01
  8.50000000E-01  8.50000000E-01  8.50000000E-01  8.50000000E-01  8.50000000E-01
  8.50000000E-01  8.50000000E-01  8.50000000E-01  8.50000000E-01  8.50000000E-01
  8.50000000E-01  8.50000000E-01  8.50000000E-01  8.50000000E-01  8.50000000E-01
  8.50000000E-01  8.50000000E-01  8.50000000E-01  8.50000000E-01  8.50000000E-01
  8.50000000E-01  8.50000000E-01  8.50000000E-01  8.50000000E-01  8.50000000E-01
  8.50000000E-01  8.50000000E-01  8.50000000E-01  8.50000000E-01  8.50000000E-01
  8.50000000E-01  8.50000000E-01  8.50000000E-01  8.50000000E-01  8.50000000E-01
  8.50000000E-01  8.50000000E-01  8.50000000E-01  8.50000000E-01  8.50000000E-01
  8.50000000E-01  8.50000000E-01  8.50000000E-01  8.50000000E-01  8.50000000E-01
  8.50000000E-01  8.50000000E-01  8.50000000E-01  8.50000000E-01  8.50000000E-01
  8.50000000E-01  8.50000000E-01  8.50000000E-01  8.50000000E-01  8.50000000E-01
  8.50000000E-01  8.50000000E-01  8.50000000E-01  8.50000000E-01  8.50000000E-01
  8.50000000E-01  8.50000000E-01  8.50000000E-01  8.50000000E-01  8.50000000E-01
  8.50000000E-01  8.50000000E-01  8.50000000E-01  8.50000000E-01  8.50000000E-01
  8.50000000E-01  8.50000000E-01  8.50000000E-01  8.50000000E-01  8.50000000E-01
  8.50000000E-01  8.50000000E-01  8.50000000E-01  8.50000000E-01  8.50000000E-01
  8.50000000E-01  8.50000000E-01  8.50000000E-01  8.50000000E-01  8.50000000E-01
  8.50000000E-01  8.50000000E-01  8.50000000E-01  8.50000000E-01  8.50000000E-01
  8.50000000E-01  8.50000000E-01  8.50000000E-01  8.50000000E-01  8.50000000E-01
  8.50000000E-01  8.50000000E-01  8.50000000E-01  8.50000000E-01  8.50000000E-01
  8.50000000E-01  8.50000000E-01  8.50000000E-01  8.50000000E-01  8.50000000E-01
  8.50000000E-01  8.50000000E-01  8.50000000E-01  8.50000000E-01  8.50000000E-01
  8.50000000E-01  8.50000000E-01  8.50000000E-01  8.50000000E-01  8.50000000E-01
  8.50000000E-01  8.50000000E-01  8.50000000E-01  8.50000000E-01  8.50000000E-01
  8.50000000E-01  8.50000000E-01  8.50000000E-01  8.50000000E-01  8.50000000E-01
  8.50000000E-01  8.50000000E-01  8.50000000E-01  8.50000000E-01  8.50000000E-01
  8.50000000E-01  8.50000000E-01  8.50000000E-01  8.50000000E-01  8.50000000E-01
  8.50000000E-01  8.50000000E-01  8.50000000E-01  8.50000000E-01  8.50000000E-01
  8.50000000E-01  8.50000000E-01  8.50000000E-01  8.50000000E-01  8.50000000E-01
  8.50000000E-01  8.50000000E-01  8.50000000E-01  8.50000000E-01  8.50000000E-01
  8.50000000E-01  8.50000000E-01  8.50000000E-01  8.50000000E-01  8.50000000E-01
  8.50000000E-01  8.50000000E-01  8.50000000E-01  8.50000000E-01  8.50000000E-01
  8.50000000E-01  8.50000000E-01  8.50000000E-01  8.50000000E-01  8.50000000E-01
  8.50000000E-01  8.50000000E-01  8.50000000E-01  8.50000000E-01  8.50000000E-01
  8.50000000E-01  8.50000000E-01  8.50000000E-01  8.50000000E-01  8.50000000E-01
  8.50000000E-01  8.50000000E-01  8.50000000E-01  8.50000000E-01  8.50000000E-01
  8.50000000E-01  8.50000000E-01  8.50000000E-01  8.50000000E-01  8.50000000E-01
  8.50000000E-01  8.50000000E-01  8.50000000E-01  8.50000000E-01  8.50000000E-01
  8.50000000E-01  8.50000000E-01  8.50000000E-01  8.50000000E-01  8.50000000E-01
  8.50000000E-01  8.50000000E-01  8.50000000E-01  8.50000000E-01  8.50000000E-01
  8.50000000E-01  8.50000000E-01  8.50000000E-01  8.50000000E-01  8.50000000E-01
  8.50000000E-01  8.50000000E-01  8.50000000E-01  8.50000000E-01  8.50000000E-01
  8.50000000E-01  8.50000000E-01  8.50000000E-01  8.50000000E-01  8.50000000E-01
  8.50000000E-01  8.50000000E-01  8.50000000E-01  8.50000000E-01  8.50000000E-01
  8.50000000E-01  8.50000000E-01  8.50000000E-01  8.50000000E-01  8.50000000E-01
  8.50000000E-01  8.50000000E-01  8.50000000E-01  8.50000000E-01  8.50000000E-01
  8.50000000E-01  8.50000000E-01  8.50000000E-01  8.50000000E-01  8.50000000E-01
  8.50000000E-01  8.50000000E-01  8.50000000E-01  8.50000000E-01  8.50000000E-01
  8.50000000E-01  8.50000000E-01  8.50000000E-01  8.50000000E-01  8.50000000E-01
  8.50000000E-01  8.50000000E-01  8.50000000E-01  8.50000000E-01  8.50000000E-01
  8.50000000E-01  8.50000000E-01  8.50000000E-01  8.50000000E-01  8.50000000E-01
  8.50000000E-01  8.50000000E-01  8.50000000E-01  8.50000000E-01  8.50000000E-01
  8.50000000E-01  8.50000000E-01  8.50000000E-01  8.50000000E-01  8.50000000E-01
  8.50000000E-01  8.50000000E-01  8.50000000E-01  8.50000000E-01  8.50000000E-01
  8.50000000E-01  8.50000000E-01  8.50000000E-01  8.50000000E-01  8.50000000E-01
  8.50000000E-01  8.50000000E-01  8.50000000E-01  8.50000000E-01  8.50000000E-01
  8.50000000E-01  8.50000000E-01  8.50000000E-01  8.50000000E-01  8.50000000E-01
  8.50000000E-01  8.50000000E-01  8.50000000E-01  8.50000000E-01  8.50000000E-01
  8.50000000E-01  8.50000000E-01  8.50000000E-01  8.50000000E-01  8.50000000E-01
  8.50000000E-01  8.50000000E-01  8.50000000E-01  8.50000000E-01  8.50000000E-01
  8.50000000E-01  8.50000000E-01  8.50000000E-01  8.50000000E-01  8.50000000E-01
  8.50000000E-01  8.50000000E-01  8.50000000E-01  8.50000000E-01  8.50000000E-01
  8.50000000E-01  8.50000000E-01  8.50000000E-01  8.50000000E-01  8.50000000E-01
  8.50000000E-01  8.50000000E-01  8.50000000E-01  8.50000000E-01  8.50000000E-01
  8.50000000E-01  8.50000000E-01  8.50000000E-01  8.50000000E-01  8.50000000E-01
  8.50000000E-01  8.50000000E-01  8.50000000E-01  8.50000000E-01  8.50000000E-01
  8.50000000E-01  8.50000000E-01  8.50000000E-01  8.50000000E-01  8.50000000E-01
  8.50000000E-01  8.50000000E-01  8.50000000E-01  8.50000000E-01  8.50000000E-01
  8.50000000E-01  8.50000000E-01  8.50000000E-01  8.50000000E-01  8.50000000E-01
  8.50000000E-01  8.50000000E-01  8.50000000E-01  8.50000000E-01  8.50000000E-01
  8.50000000E-01  8.50000000E-01  8.50000000E-01  8.50000000E-01  8.50000000E-01
  8.50000000E-01  8.50000000E-01  8.50000000E-01  8.50000000E-01  8.50000000E-01
  8.50000000E-01  8.50000000E-01  8.50000000E-01  8.50000000E-01  8.50000000E-01
  8.50000000E-01  8.50000000E-01  8.50000000E-01  8.50000000E-01  8.50000000E-01
  8.50000000E-01  8.50000000E-01  8.50000000E-01  8.50000000E-01  8.50000000E-01
  8.50000000E-01  8.50000000E-01  8.50000000E-01  8.50000000E-01  8.50000000E-01
  8.50000000E-01  8.50000000E-01  8.50000000E-01  8.50000000E-01  8.50000000E-01
  8.50000000E-01  8.50000000E-01  8.50000000E-01  8.50000000E-01  8.50000000E-01
  8.50000000E-01  8.50000000E-01  8.50000000E-01  8.50000000E-01  8.50000000E-01
  8.50000000E-01  8.50000000E-01  8.50000000E-01  8.50000000E-01  8.50000000E-01
  8.50000000E-01  8.50000000E-01  8.50000000E-01  8.50000000E-01  8.50000000E-01
  8.50000000E-01  8.50000000E-01  8.50000000E-01  8.50000000E-01  8.50000000E-01
  8.50000000E-01  8.50000000E-01  8.50000000E-01  8.50000000E-01  8.50000000E-01
  8.50000000E-01  8.50000000E-01  8.50000000E-01  8.50000000E-01  8.50000000E-01
  8.50000000E-01  8.50000000E-01  8.50000000E-01  8.50000000E-01  8.50000000E-01
  8.50000000E-01  8.50000000E-01  8.50000000E-01  8.50000000E-01  8.50000000E-01
  8.50000000E-01  8.50000000E-01  8.50000000E-01  8.50000000E-01  8.50000000E-01
  8.50000000E-01  8.50000000E-01  8.50000000E-01  8.50000000E-01  8.50000000E-01
  8.50000000E-01  8.50000000E-01  8.50000000E-01  8.50000000E-01  8.50000000E-01
  8.50000000E-01  8.50000000E-01  8.50000000E-01  8.50000000E-01  8.50000000E-01
  8.50000000E-01  8.50000000E-01  8.50000000E-01  8.50000000E-01  8.50000000E-01
  8.50000000E-01  8.50000000E-01  8.50000000E-01  8.50000000E-01  8.50000000E-01
  8.50000000E-01  8.50000000E-01  8.50000000E-01  8.50000000E-01  8.50000000E-01
  8.50000000E-01  8.50000000E-01  8.50000000E-01  8.50000000E-01  8.50000000E-01
  8.50000000E-01  8.50000000E-01  8.50000000E-01  8.50000000E-01  8.50000000E-01
  8.50000000E-01  8.50000000E-01  8.50000000E-01  8.50000000E-01  8.50000000E-01
  8.50000000E-01  8.50000000E-01  8.50000000E-01  8.50000000E-01  8.50000000E-01
  8.50000000E-01  8.50000000E-01  8.50000000E-01  8.50000000E-01  8.50000000E-01
  8.50000000E-01  8.50000000E-01  8.50000000E-01  8.50000000E-01  8.50000000E-01
  8.50000000E-01  8.50000000E-01  8.50000000E-01  8.50000000E-01  8.50000000E-01
  8.50000000E-01  8.50000000E-01  8.50000000E-01  8.50000000E-01  8.50000000E-01
  8.50000000E-01  8.50000000E-01  8.50000000E-01  8.50000000E-01  8.50000000E-01
  8.50000000E-01  8.50000000E-01  8.50000000E-01  8.50000000E-01  8.50000000E-01
  8.50000000E-01  8.50000000E-01  8.50000000E-01  8.50000000E-01  8.50000000E-01
  8.50000000E-01  8.50000000E-01  8.50000000E-01  8.50000000E-01  8.50000000E-01
  8.50000000E-01  8.50000000E-01  8.50000000E-01  8.50000000E-01  8.50000000E-01
  8.50000000E-01  8.50000000E-01  8.50000000E-01  8.50000000E-01  8.50000000E-01
  8.50000000E-01  8.50000000E-01  8.50000000E-01  8.50000000E-01  8.50000000E-01
  8.50000000E-01  8.50000000E-01  8.50000000E-01  8.50000000E-01  8.50000000E-01
  8.50000000E-01  8.50000000E-01  8.50000000E-01  8.50000000E-01  8.50000000E-01
  8.50000000E-01  8.50000000E-01  8.50000000E-01  8.50000000E-01  8.50000000E-01
  8.50000000E-01  8.50000000E-01  8.50000000E-01  8.50000000E-01  8.50000000E-01
  8.50000000E-01  8.50000000E-01  8.50000000E-01  8.50000000E-01  8.50000000E-01
  8.50000000E-01  8.50000000E-01  8.50000000E-01  8.50000000E-01  8.50000000E-01
  8.50000000E-01  8.50000000E-01  8.50000000E-01  8.50000000E-01  8.50000000E-01
  8.50000000E-01  8.50000000E-01  8.50000000E-01  8.50000000E-01  8.50000000E-01
  8.50000000E-01  8.50000000E-01  8.50000000E-01  8.50000000E-01  8.50000000E-01
  8.50000000E-01  8.50000000E-01  8.50000000E-01  8.50000000E-01  8.50000000E-01
  8.50000000E-01  8.50000000E-01  8.50000000E-01  8.50000000E-01  8.50000000E-01
  8.50000000E-01  8.50000000E-01  8.50000000E-01  8.50000000E-01  8.50000000E-01
  8.50000000E-01  8.50000000E-01  8.50000000E-01  8.50000000E-01  8.50000000E-01
  8.50000000E-01  8.50000000E-01  8.50000000E-01  8.50000000E-01  8.50000000E-01
  8.50000000E-01  8.50000000E-01  8.50000000E-01  8.50000000E-01  8.50000000E-01
  8.50000000E-01  8.50000000E-01  8.50000000E-01  8.50000000E-01  8.50000000E-01
  8.50000000E-01  8.50000000E-01  8.50000000E-01  8.50000000E-01  8.50000000E-01
  8.50000000E-01  8.50000000E-01  8.50000000E-01  8.50000000E-01  8.50000000E-01
  8.50000000E-01  8.50000000E-01  8.50000000E-01  8.50000000E-01  8.50000000E-01
  8.50000000E-01  8.50000000E-01  8.50000000E-01  8.50000000E-01  8.50000000E-01
  8.50000000E-01  8.50000000E-01  8.50000000E-01  8.50000000E-01  8.50000000E-01
  8.50000000E-01  8.50000000E-01  8.50000000E-01  8.50000000E-01  8.50000000E-01
  8.50000000E-01  8.50000000E-01  8.50000000E-01  8.50000000E-01  8.50000000E-01
  8.50000000E-01  8.50000000E-01  8.50000000E-01  8.50000000E-01  8.50000000E-01
  8.50000000E-01  8.50000000E-01  8.50000000E-01  8.50000000E-01  8.50000000E-01
  8.50000000E-01  8.50000000E-01  8.50000000E-01  8.50000000E-01  8.50000000E-01
  8.50000000E-01  8.50000000E-01  8.50000000E-01  8.50000000E-01  8.50000000E-01
  8.50000000E-01  8.50000000E-01  8.50000000E-01  8.50000000E-01  8.50000000E-01
  8.50000000E-01  8.50000000E-01  8.50000000E-01  8.50000000E-01  8.50000000E-01
  8.50000000E-01  8.50000000E-01  8.50000000E-01  8.50000000E-01  8.50000000E-01
  8.50000000E-01  8.50000000E-01  8.50000000E-01  8.50000000E-01  8.50000000E-01
  8.50000000E-01  8.50000000E-01  8.50000000E-01  8.50000000E-01  8.50000000E-01
  8.50000000E-01  8.50000000E-01  8.50000000E-01  8.50000000E-01  8.50000000E-01
  8.50000000E-01  8.50000000E-01  8.50000000E-01  8.50000000E-01  8.50000000E-01
  8.50000000E-01  8.50000000E-01  8.50000000E-01  8.50000000E-01  8.50000000E-01
  8.50000000E-01  8.50000000E-01  8.50000000E-01  8.50000000E-01  8.50000000E-01
  8.50000000E-01  8.50000000E-01  8.50000000E-01  8.50000000E-01  8.50000000E-01
  8.50000000E-01  8.50000000E-01  8.50000000E-01  8.50000000E-01  8.50000000E-01
  8.50000000E-01  8.50000000E-01  8.50000000E-01  8.50000000E-01  8.50000000E-01
  8.50000000E-01  8.50000000E-01  8.50000000E-01  8.50000000E-01  8.50000000E-01
  8.50000000E-01  8.50000000E-01  8.50000000E-01  8.50000000E-01  8.50000000E-01
  8.50000000E-01  8.50000000E-01  8.50000000E-01  8.50000000E-01  8.50000000E-01
  8.50000000E-01  8.50000000E-01  8.50000000E-01  8.50000000E-01  8.50000000E-01
  8.50000000E-01  8.50000000E-01  8.50000000E-01  8.50000000E-01  8.50000000E-01
  8.50000000E-01  8.50000000E-01  8.50000000E-01  8.50000000E-01  8.50000000E-01
  8.50000000E-01  8.50000000E-01  8.50000000E-01  8.50000000E-01  8.50000000E-01
  8.50000000E-01  8.50000000E-01  8.50000000E-01  8.50000000E-01  8.50000000E-01
  8.50000000E-01  8.50000000E-01  8.50000000E-01  8.50000000E-01  8.50000000E-01
  8.50000000E-01  8.50000000E-01  8.50000000E-01  8.50000000E-01  8.50000000E-01
  8.50000000E-01  8.50000000E-01  8.50000000E-01  8.50000000E-01  8.50000000E-01
  8.50000000E-01  8.50000000E-01  8.50000000E-01  8.50000000E-01  8.50000000E-01
  8.50000000E-01  8.50000000E-01  8.50000000E-01  8.50000000E-01  8.50000000E-01
  8.50000000E-01  8.50000000E-01  8.50000000E-01  8.50000000E-01  8.50000000E-01
  8.50000000E-01  8.50000000E-01  8.50000000E-01  8.50000000E-01  8.50000000E-01
  8.50000000E-01  8.50000000E-01  8.50000000E-01  8.50000000E-01  8.50000000E-01
  8.50000000E-01  8.50000000E-01  8.50000000E-01  8.50000000E-01  8.50000000E-01
  8.50000000E-01  8.50000000E-01  8.50000000E-01  8.50000000E-01  8.50000000E-01
  8.50000000E-01  8.50000000E-01  8.50000000E-01  8.50000000E-01  8.50000000E-01
  8.50000000E-01  8.50000000E-01  8.50000000E-01  8.50000000E-01  8.50000000E-01
  8.50000000E-01  8.50000000E-01  8.50000000E-01  8.50000000E-01  8.50000000E-01
  8.50000000E-01  8.50000000E-01  8.50000000E-01  8.50000000E-01  8.50000000E-01
  8.50000000E-01  8.50000000E-01  8.50000000E-01  8.50000000E-01  8.50000000E-01
  8.50000000E-01  8.50000000E-01  8.50000000E-01  8.50000000E-01  8.50000000E-01
  8.50000000E-01  8.50000000E-01  8.50000000E-01  8.50000000E-01  8.50000000E-01
  8.50000000E-01  8.50000000E-01  8.50000000E-01  8.50000000E-01  8.50000000E-01
  8.50000000E-01  8.50000000E-01  8.50000000E-01  8.50000000E-01  8.50000000E-01
  8.50000000E-01  8.50000000E-01  8.50000000E-01  8.50000000E-01  8.50000000E-01
  8.50000000E-01  8.50000000E-01  8.50000000E-01  8.50000000E-01  8.50000000E-01
  8.50000000E-01  8.50000000E-01  8.50000000E-01  8.50000000E-01  8.50000000E-01
  8.50000000E-01  8.50000000E-01  8.50000000E-01  8.50000000E-01  8.50000000E-01
  8.50000000E-01  8.50000000E-01  8.50000000E-01  8.50000000E-01  8.50000000E-01
  8.50000000E-01  8.50000000E-01  8.50000000E-01  8.50000000E-01  8.50000000E-01
  8.50000000E-01  8.50000000E-01  8.50000000E-01  8.50000000E-01  8.50000000E-01
  8.50000000E-01  8.50000000E-01  8.50000000E-01  8.50000000E-01  8.50000000E-01
  8.50000000E-01  8.50000000E-01  8.50000000E-01  8.50000000E-01  8.50000000E-01
  8.50000000E-01  8.50000000E-01  8.50000000E-01  8.50000000E-01  8.50000000E-01
  8.50000000E-01  8.50000000E-01  8.50000000E-01  8.50000000E-01  8.50000000E-01
  8.50000000E-01  8.50000000E-01  8.50000000E-01  8.50000000E-01  8.50000000E-01
  8.50000000E-01  8.50000000E-01  8.50000000E-01  8.50000000E-01  8.50000000E-01
  8.50000000E-01  8.50000000E-01  8.50000000E-01  8.50000000E-01  8.50000000E-01
  8.50000000E-01  8.50000000E-01  8.50000000E-01  8.50000000E-01  8.50000000E-01
  8.50000000E-01  8.50000000E-01  8.50000000E-01  8.50000000E-01  8.50000000E-01
  8.50000000E-01  8.50000000E-01  8.50000000E-01  8.50000000E-01  8.50000000E-01
  8.50000000E-01  8.50000000E-01  8.50000000E-01  8.50000000E-01  8.50000000E-01
  8.50000000E-01  8.50000000E-01  8.50000000E-01  8.50000000E-01  8.50000000E-01
  8.50000000E-01  8.50000000E-01  8.50000000E-01  8.50000000E-01  8.50000000E-01
  8.50000000E-01  8.50000000E-01  8.50000000E-01  8.50000000E-01  8.50000000E-01
  8.50000000E-01  8.50000000E-01  8.50000000E-01  8.50000000E-01  8.50000000E-01
  8.50000000E-01  8.50000000E-01  8.50000000E-01  8.50000000E-01  8.50000000E-01
  8.50000000E-01  8.50000000E-01  8.50000000E-01  8.50000000E-01  8.50000000E-01
  8.50000000E-01  8.50000000E-01  8.50000000E-01  8.50000000E-01  8.50000000E-01
  8.50000000E-01  8.50000000E-01  8.50000000E-01  8.50000000E-01  8.50000000E-01
  8.50000000E-01  8.50000000E-01  8.50000000E-01  8.50000000E-01  8.50000000E-01
  8.50000000E-01  8.50000000E-01  8.50000000E-01  8.50000000E-01  8.50000000E-01
  8.50000000E-01  8.50000000E-01  8.50000000E-01  8.50000000E-01  8.50000000E-01
  8.50000000E-01  8.50000000E-01  8.50000000E-01  8.50000000E-01  8.50000000E-01
  8.50000000E-01  8.50000000E-01  8.50000000E-01  8.50000000E-01  8.50000000E-01
  8.50000000E-01  8.50000000E-01  8.50000000E-01  8.50000000E-01  8.50000000E-01
  8.50000000E-01  8.50000000E-01  8.50000000E-01  8.50000000E-01  8.50000000E-01
  8.50000000E-01  8.50000000E-01  8.50000000E-01  8.50000000E-01  8.50000000E-01
  8.50000000E-01  8.50000000E-01  8.50000000E-01  8.50000000E-01  8.50000000E-01
  8.50000000E-01  8.50000000E-01  8.50000000E-01  8.50000000E-01  8.50000000E-01
  8.50000000E-01  8.50000000E-01  8.50000000E-01  8.50000000E-01  8.50000000E-01
  8.50000000E-01  8.50000000E-01  8.50000000E-01  8.50000000E-01  8.50000000E-01
  8.50000000E-01  8.50000000E-01  8.50000000E-01  8.50000000E-01  8.50000000E-01
  8.50000000E-01  8.50000000E-01  8.50000000E-01  8.50000000E-01  8.50000000E-01
  8.50000000E-01  8.50000000E-01  8.50000000E-01  8.50000000E-01  8.50000000E-01
  8.50000000E-01  8.50000000E-01  8.50000000E-01  8.50000000E-01  8.50000000E-01
  8.50000000E-01  8.50000000E-01  8.50000000E-01  8.50000000E-01  8.50000000E-01
  8.50000000E-01  8.50000000E-01  8.50000000E-01  8.50000000E-01  8.50000000E-01
  8.50000000E-01  8.50000000E-01  8.50000000E-01  8.50000000E-01  8.50000000E-01
  8.50000000E-01  8.50000000E-01  8.50000000E-01  8.50000000E-01  8.50000000E-01
  8.50000000E-01  8.50000000E-01  8.50000000E-01  8.50000000E-01  8.50000000E-01
  8.50000000E-01  8.50000000E-01  8.50000000E-01  8.50000000E-01  8.50000000E-01
  8.50000000E-01  8.50000000E-01  8.50000000E-01  8.50000000E-01  8.50000000E-01
  8.50000000E-01  8.50000000E-01  8.50000000E-01  8.50000000E-01  8.50000000E-01
  8.50000000E-01  8.50000000E-01  8.50000000E-01  8.50000000E-01  8.50000000E-01
  8.50000000E-01  8.50000000E-01  8.50000000E-01  8.50000000E-01  8.50000000E-01
  8.50000000E-01  8.50000000E-01  8.50000000E-01  8.50000000E-01  8.50000000E-01
  8.50000000E-01  8.50000000E-01  8.50000000E-01  8.50000000E-01  8.50000000E-01
  8.50000000E-01  8.50000000E-01  8.50000000E-01  8.50000000E-01  8.50000000E-01
  8.50000000E-01  8.50000000E-01  8.50000000E-01  8.50000000E-01  8.50000000E-01
  8.50000000E-01  8.50000000E-01  8.50000000E-01  8.50000000E-01  8.50000000E-01
  8.50000000E-01  8.50000000E-01  8.50000000E-01  8.50000000E-01  8.50000000E-01
  8.50000000E-01  8.50000000E-01  8.50000000E-01  8.50000000E-01  8.50000000E-01
  8.50000000E-01  8.50000000E-01  8.50000000E-01  8.50000000E-01  8.50000000E-01
  8.50000000E-01  8.50000000E-01  8.50000000E-01  8.50000000E-01  8.50000000E-01
  8.50000000E-01  8.50000000E-01  8.50000000E-01  8.50000000E-01  8.50000000E-01
  8.50000000E-01  8.50000000E-01  8.50000000E-01  8.50000000E-01  8.50000000E-01
  8.50000000E-01  8.50000000E-01  8.50000000E-01  8.50000000E-01  8.50000000E-01
  8.50000000E-01  8.50000000E-01  8.50000000E-01  8.50000000E-01  8.50000000E-01
  8.50000000E-01  8.50000000E-01  8.50000000E-01  8.50000000E-01  8.50000000E-01
  8.50000000E-01  8.50000000E-01  8.50000000E-01  8.50000000E-01  8.50000000E-01
  8.50000000E-01  8.50000000E-01  8.50000000E-01  8.50000000E-01  8.50000000E-01
  8.50000000E-01  8.50000000E-01  8.50000000E-01  8.50000000E-01  8.50000000E-01
  8.50000000E-01  8.50000000E-01  8.50000000E-01  8.50000000E-01  8.50000000E-01
  8.50000000E-01  8.50000000E-01  8.50000000E-01  8.50000000E-01  8.50000000E-01
  8.50000000E-01  8.50000000E-01  8.50000000E-01  8.50000000E-01  8.50000000E-01
  8.50000000E-01  8.50000000E-01  8.50000000E-01  8.50000000E-01  8.50000000E-01
  8.50000000E-01  8.50000000E-01  8.50000000E-01  8.50000000E-01  8.50000000E-01
  8.50000000E-01  8.50000000E-01  8.50000000E-01  8.50000000E-01  8.50000000E-01
  8.50000000E-01  8.50000000E-01  8.50000000E-01  8.50000000E-01  8.50000000E-01
  8.50000000E-01  8.50000000E-01  8.50000000E-01  8.50000000E-01  8.50000000E-01
  8.50000000E-01  8.50000000E-01  8.50000000E-01  8.50000000E-01  8.50000000E-01
  8.50000000E-01  8.50000000E-01  8.50000000E-01  8.50000000E-01  8.50000000E-01
  8.50000000E-01  8.50000000E-01  8.50000000E-01  8.50000000E-01  8.50000000E-01
  8.50000000E-01  8.50000000E-01  8.50000000E-01  8.50000000E-01  8.50000000E-01
  8.50000000E-01  8.50000000E-01  8.50000000E-01  8.50000000E-01  8.50000000E-01
  8.50000000E-01  8.50000000E-01  8.50000000E-01  8.50000000E-01  8.50000000E-01
  8.50000000E-01  8.50000000E-01  8.50000000E-01  8.50000000E-01  8.50000000E-01
  8.50000000E-01  8.50000000E-01  8.50000000E-01  8.50000000E-01  8.50000000E-01
  8.50000000E-01  8.50000000E-01  8.50000000E-01  8.50000000E-01  8.50000000E-01
  8.50000000E-01  8.50000000E-01  8.50000000E-01  8.50000000E-01  8.50000000E-01
  8.50000000E-01  8.50000000E-01  8.50000000E-01  8.50000000E-01  8.50000000E-01
  8.50000000E-01  8.50000000E-01  8.50000000E-01  8.50000000E-01  8.50000000E-01
  8.50000000E-01  8.50000000E-01  8.50000000E-01  8.50000000E-01  8.50000000E-01
  8.50000000E-01  8.50000000E-01  8.50000000E-01  8.50000000E-01  8.50000000E-01
  8.50000000E-01  8.50000000E-01  8.50000000E-01  8.50000000E-01  8.50000000E-01
  8.50000000E-01  8.50000000E-01  8.50000000E-01  8.50000000E-01  8.50000000E-01
  8.50000000E-01  8.50000000E-01  8.50000000E-01  8.50000000E-01  8.50000000E-01
  8.50000000E-01  8.50000000E-01  8.50000000E-01  8.50000000E-01  8.50000000E-01
  8.50000000E-01  8.50000000E-01  8.50000000E-01  8.50000000E-01  8.50000000E-01
  8.50000000E-01  8.50000000E-01  8.50000000E-01  8.50000000E-01  8.50000000E-01
  8.50000000E-01  8.50000000E-01  8.50000000E-01  8.50000000E-01  8.50000000E-01
  8.50000000E-01  8.50000000E-01  8.50000000E-01  8.50000000E-01  8.50000000E-01
  8.50000000E-01  8.50000000E-01  8.50000000E-01  8.50000000E-01  8.50000000E-01
  8.50000000E-01  8.50000000E-01  8.50000000E-01  8.50000000E-01  8.50000000E-01
  8.50000000E-01  8.50000000E-01  8.50000000E-01  8.50000000E-01  8.50000000E-01
  8.50000000E-01  8.50000000E-01  8.50000000E-01  8.50000000E-01  8.50000000E-01
  8.50000000E-01  8.50000000E-01  8.50000000E-01  8.50000000E-01  8.50000000E-01
  8.50000000E-01  8.50000000E-01  8.50000000E-01  8.50000000E-01  8.50000000E-01
  8.50000000E-01  8.50000000E-01  8.50000000E-01  8.50000000E-01  8.50000000E-01
  8.50000000E-01  8.50000000E-01  8.50000000E-01  8.50000000E-01  8.50000000E-01
  8.50000000E-01  8.50000000E-01  8.50000000E-01  8.50000000E-01  8.50000000E-01
  8.50000000E-01  8.50000000E-01  8.50000000E-01  8.50000000E-01  8.50000000E-01
  8.50000000E-01  8.50000000E-01  8.50000000E-01  8.50000000E-01  8.50000000E-01
  8.50000000E-01  8.50000000E-01  8.50000000E-01  8.50000000E-01  8.50000000E-01
  8.50000000E-01  8.50000000E-01  8.50000000E-01  8.50000000E-01  8.50000000E-01
  8.50000000E-01  8.50000000E-01  8.50000000E-01  8.50000000E-01  8.50000000E-01
  8.50000000E-01  8.50000000E-01  8.50000000E-01  8.50000000E-01  8.50000000E-01
  8.50000000E-01  8.50000000E-01  8.50000000E-01  8.50000000E-01  8.50000000E-01
  8.50000000E-01  8.50000000E-01  8.50000000E-01  8.50000000E-01  8.50000000E-01
  8.50000000E-01  8.50000000E-01  8.50000000E-01  8.50000000E-01  8.50000000E-01
  8.50000000E-01  8.50000000E-01  8.50000000E-01  8.50000000E-01  8.50000000E-01
  8.50000000E-01  8.50000000E-01  8.50000000E-01  8.50000000E-01  8.50000000E-01
  8.50000000E-01  8.50000000E-01  8.50000000E-01  8.50000000E-01  8.50000000E-01
  8.50000000E-01  8.50000000E-01  8.50000000E-01  8.50000000E-01  8.50000000E-01
  8.50000000E-01  8.50000000E-01  8.50000000E-01  8.50000000E-01  8.50000000E-01
  8.50000000E-01  8.50000000E-01  8.50000000E-01  8.50000000E-01  8.50000000E-01
  8.50000000E-01  8.50000000E-01  8.50000000E-01  8.50000000E-01  8.50000000E-01
  8.50000000E-01  8.50000000E-01  8.50000000E-01  8.50000000E-01  8.50000000E-01
  8.50000000E-01  8.50000000E-01  8.50000000E-01  8.50000000E-01  8.50000000E-01
  8.50000000E-01  8.50000000E-01  8.50000000E-01  8.50000000E-01  8.50000000E-01
  8.50000000E-01  8.50000000E-01  8.50000000E-01  8.50000000E-01  8.50000000E-01
  8.50000000E-01  8.50000000E-01  8.50000000E-01  8.50000000E-01  8.50000000E-01
  8.50000000E-01  8.50000000E-01  8.50000000E-01  8.50000000E-01  8.50000000E-01
  8.50000000E-01  8.50000000E-01  8.50000000E-01  8.50000000E-01  8.50000000E-01
  8.50000000E-01  8.50000000E-01  8.50000000E-01  8.50000000E-01  8.50000000E-01
  8.50000000E-01  8.50000000E-01  8.50000000E-01  8.50000000E-01  8.50000000E-01
  8.50000000E-01  8.50000000E-01  8.50000000E-01  8.50000000E-01  8.50000000E-01
  8.50000000E-01  8.50000000E-01  8.50000000E-01  8.50000000E-01  8.50000000E-01
  8.50000000E-01  8.50000000E-01  8.50000000E-01  8.50000000E-01  8.50000000E-01
  8.50000000E-01  8.50000000E-01  8.50000000E-01  8.50000000E-01  8.50000000E-01
  8.50000000E-01  8.50000000E-01  8.50000000E-01  8.50000000E-01  8.50000000E-01
  8.50000000E-01  8.50000000E-01  8.50000000E-01  8.50000000E-01  8.50000000E-01
  8.50000000E-01  8.50000000E-01  8.50000000E-01  8.50000000E-01  8.50000000E-01
  8.50000000E-01  8.50000000E-01  8.50000000E-01  8.50000000E-01  8.50000000E-01
  8.50000000E-01  8.50000000E-01  8.50000000E-01  8.50000000E-01  8.50000000E-01
  8.50000000E-01  8.50000000E-01  8.50000000E-01  8.50000000E-01  8.50000000E-01
  8.50000000E-01  8.50000000E-01  8.50000000E-01  8.50000000E-01  8.50000000E-01
  8.50000000E-01  8.50000000E-01  8.50000000E-01  8.50000000E-01  8.50000000E-01
  8.50000000E-01  8.50000000E-01  8.50000000E-01  8.50000000E-01  8.50000000E-01
  8.50000000E-01  8.50000000E-01  8.50000000E-01  8.50000000E-01  8.50000000E-01
  8.50000000E-01  8.50000000E-01  8.50000000E-01  8.50000000E-01  8.50000000E-01
  8.50000000E-01  8.50000000E-01  8.50000000E-01  8.50000000E-01  8.50000000E-01
  8.50000000E-01  8.50000000E-01  8.50000000E-01  8.50000000E-01  8.50000000E-01
  8.50000000E-01  8.50000000E-01  8.50000000E-01  8.50000000E-01  8.50000000E-01
  8.50000000E-01  8.50000000E-01  8.50000000E-01  8.50000000E-01  8.50000000E-01
  8.50000000E-01  8.50000000E-01  8.50000000E-01  8.50000000E-01  8.50000000E-01
  8.50000000E-01  8.50000000E-01  8.50000000E-01  8.50000000E-01  8.50000000E-01
  8.50000000E-01  8.50000000E-01  8.50000000E-01  8.50000000E-01  8.50000000E-01
  8.50000000E-01  8.50000000E-01  8.50000000E-01  8.50000000E-01  8.50000000E-01
  8.50000000E-01  8.50000000E-01  8.50000000E-01  8.50000000E-01  8.50000000E-01
  8.50000000E-01  8.50000000E-01  8.50000000E-01  8.50000000E-01  8.50000000E-01
  8.50000000E-01  8.50000000E-01  8.50000000E-01  8.50000000E-01  8.50000000E-01
  8.50000000E-01  8.50000000E-01  8.50000000E-01  8.50000000E-01  8.50000000E-01
  8.50000000E-01  8.50000000E-01  8.50000000E-01  8.50000000E-01  8.50000000E-01
  8.50000000E-01  8.50000000E-01  8.50000000E-01  8.50000000E-01  8.50000000E-01
  8.50000000E-01  8.50000000E-01  8.50000000E-01  8.50000000E-01  8.50000000E-01
  8.50000000E-01  8.50000000E-01  8.50000000E-01  8.50000000E-01  8.50000000E-01
  8.50000000E-01  8.50000000E-01  8.50000000E-01  8.50000000E-01  8.50000000E-01
  8.50000000E-01  8.50000000E-01  8.50000000E-01  8.50000000E-01  8.50000000E-01
  8.50000000E-01  8.50000000E-01  8.50000000E-01  8.50000000E-01  8.50000000E-01
  8.50000000E-01  8.50000000E-01  8.50000000E-01  8.50000000E-01  8.50000000E-01
  8.50000000E-01  8.50000000E-01  8.50000000E-01  8.50000000E-01  8.50000000E-01
  8.50000000E-01  8.50000000E-01  8.50000000E-01  8.50000000E-01  8.50000000E-01
  8.50000000E-01  8.50000000E-01  8.50000000E-01  8.50000000E-01  8.50000000E-01
  8.50000000E-01  8.50000000E-01  8.50000000E-01  8.50000000E-01  8.50000000E-01
  8.50000000E-01  8.50000000E-01  8.50000000E-01  8.50000000E-01  8.50000000E-01
  8.50000000E-01  8.50000000E-01  8.50000000E-01  8.50000000E-01  8.50000000E-01
  8.50000000E-01  8.50000000E-01  8.50000000E-01  8.50000000E-01  8.50000000E-01
  8.50000000E-01  8.50000000E-01  8.50000000E-01  8.50000000E-01  8.50000000E-01
  8.50000000E-01  8.50000000E-01  8.50000000E-01  8.50000000E-01  8.50000000E-01
  8.50000000E-01  8.50000000E-01  8.50000000E-01  8.50000000E-01  8.50000000E-01
  8.50000000E-01  8.50000000E-01  8.50000000E-01  8.50000000E-01  8.50000000E-01
  8.50000000E-01  8.50000000E-01  8.50000000E-01  8.50000000E-01  8.50000000E-01
  8.50000000E-01  8.50000000E-01  8.50000000E-01  8.50000000E-01  8.50000000E-01
  8.50000000E-01  8.50000000E-01  8.50000000E-01  8.50000000E-01  8.50000000E-01
  8.50000000E-01  8.50000000E-01  8.50000000E-01  8.50000000E-01  8.50000000E-01
  8.50000000E-01  8.50000000E-01  8.50000000E-01  8.50000000E-01  8.50000000E-01
  8.50000000E-01  8.50000000E-01  8.50000000E-01  8.50000000E-01  8.50000000E-01
  8.50000000E-01  8.50000000E-01  8.50000000E-01  8.50000000E-01  8.50000000E-01
  8.50000000E-01  8.50000000E-01  8.50000000E-01  8.50000000E-01  8.50000000E-01
  8.50000000E-01  8.50000000E-01  8.50000000E-01  8.50000000E-01  8.50000000E-01
  8.50000000E-01  8.50000000E-01  8.50000000E-01  8.50000000E-01  8.50000000E-01
  8.50000000E-01  8.50000000E-01  8.50000000E-01  8.50000000E-01  8.50000000E-01
  8.50000000E-01  8.50000000E-01  8.50000000E-01  8.50000000E-01  8.50000000E-01
  8.50000000E-01  8.50000000E-01  8.50000000E-01  8.50000000E-01  8.50000000E-01
  8.50000000E-01  8.50000000E-01  8.50000000E-01  8.50000000E-01  8.50000000E-01
  8.50000000E-01  8.50000000E-01  8.50000000E-01  8.50000000E-01  8.50000000E-01
  8.50000000E-01  8.50000000E-01  8.50000000E-01  8.50000000E-01  8.50000000E-01
  8.50000000E-01  8.50000000E-01  8.50000000E-01  8.50000000E-01  8.50000000E-01
  8.50000000E-01  8.50000000E-01  8.50000000E-01  8.50000000E-01  8.50000000E-01
  8.50000000E-01  8.50000000E-01  8.50000000E-01  8.50000000E-01  8.50000000E-01
  8.50000000E-01  8.50000000E-01  8.50000000E-01  8.50000000E-01  8.50000000E-01
  8.50000000E-01  8.50000000E-01  8.50000000E-01  8.50000000E-01  8.50000000E-01
  8.50000000E-01  8.50000000E-01  8.50000000E-01  8.50000000E-01  8.50000000E-01
  8.50000000E-01  8.50000000E-01  8.50000000E-01  8.50000000E-01  8.50000000E-01
  8.50000000E-01  8.50000000E-01  8.50000000E-01  8.50000000E-01  8.50000000E-01
  8.50000000E-01  8.50000000E-01  8.50000000E-01  8.50000000E-01  8.50000000E-01
  8.50000000E-01  8.50000000E-01  8.50000000E-01  8.50000000E-01  8.50000000E-01
  8.50000000E-01  8.50000000E-01  8.50000000E-01  8.50000000E-01  8.50000000E-01
  8.50000000E-01  8.50000000E-01  8.50000000E-01  8.50000000E-01  8.50000000E-01
  8.50000000E-01  8.50000000E-01  8.50000000E-01  8.50000000E-01  8.50000000E-01
  8.50000000E-01  8.50000000E-01  8.50000000E-01  8.50000000E-01  8.50000000E-01
  8.50000000E-01  8.50000000E-01  8.50000000E-01  8.50000000E-01  8.50000000E-01
  8.50000000E-01  8.50000000E-01  8.50000000E-01  8.50000000E-01  8.50000000E-01
  8.50000000E-01  8.50000000E-01  8.50000000E-01  8.50000000E-01  8.50000000E-01
  8.50000000E-01  8.50000000E-01  8.50000000E-01  8.50000000E-01  8.50000000E-01
  8.50000000E-01  8.50000000E-01  8.50000000E-01  8.50000000E-01  8.50000000E-01
  8.50000000E-01  8.50000000E-01  8.50000000E-01  8.50000000E-01  8.50000000E-01
  8.50000000E-01  8.50000000E-01  8.50000000E-01  8.50000000E-01  8.50000000E-01
  8.50000000E-01  8.50000000E-01  8.50000000E-01  8.50000000E-01  8.50000000E-01
  8.50000000E-01  8.50000000E-01  8.50000000E-01  8.50000000E-01  8.50000000E-01
  8.50000000E-01  8.50000000E-01  8.50000000E-01  8.50000000E-01  8.50000000E-01
  8.50000000E-01  8.50000000E-01  8.50000000E-01  8.50000000E-01  8.50000000E-01
  8.50000000E-01  8.50000000E-01  8.50000000E-01  8.50000000E-01  8.50000000E-01
  8.50000000E-01  8.50000000E-01  8.50000000E-01  8.50000000E-01  8.50000000E-01
  8.50000000E-01  8.50000000E-01  8.50000000E-01  8.50000000E-01  8.50000000E-01
  8.50000000E-01  8.50000000E-01  8.50000000E-01  8.50000000E-01  8.50000000E-01
  8.50000000E-01  8.50000000E-01  8.50000000E-01  8.50000000E-01  8.50000000E-01
  8.50000000E-01  8.50000000E-01  8.50000000E-01  8.50000000E-01  8.50000000E-01
  8.50000000E-01  8.50000000E-01  8.50000000E-01  8.50000000E-01  8.50000000E-01
  8.50000000E-01  8.50000000E-01  8.50000000E-01  8.50000000E-01  8.50000000E-01
  8.50000000E-01  8.50000000E-01  8.50000000E-01  8.50000000E-01  8.50000000E-01
  8.50000000E-01  8.50000000E-01  8.50000000E-01  8.50000000E-01  8.50000000E-01
  8.50000000E-01  8.50000000E-01  8.50000000E-01  8.50000000E-01  8.50000000E-01
  8.50000000E-01  8.50000000E-01  8.50000000E-01  8.50000000E-01  8.50000000E-01
  8.50000000E-01  8.50000000E-01  8.50000000E-01  8.50000000E-01  8.50000000E-01
  8.50000000E-01  8.50000000E-01  8.50000000E-01  8.50000000E-01  8.50000000E-01
  8.50000000E-01  8.50000000E-01  8.50000000E-01  8.50000000E-01  8.50000000E-01
  8.50000000E-01  8.50000000E-01  8.50000000E-01  8.50000000E-01  8.50000000E-01
  8.50000000E-01  8.50000000E-01  8.50000000E-01  8.50000000E-01  8.50000000E-01
  8.50000000E-01  8.50000000E-01  8.50000000E-01  8.50000000E-01  8.50000000E-01
  8.50000000E-01  8.50000000E-01  8.50000000E-01  8.50000000E-01  8.50000000E-01
  8.50000000E-01  8.50000000E-01  8.50000000E-01  8.50000000E-01  8.50000000E-01
  8.50000000E-01  8.50000000E-01  8.50000000E-01  8.50000000E-01  8.50000000E-01
  8.50000000E-01  8.50000000E-01  8.50000000E-01  8.50000000E-01  8.50000000E-01
  8.50000000E-01  8.50000000E-01  8.50000000E-01  8.50000000E-01  8.50000000E-01
  8.50000000E-01  8.50000000E-01  8.50000000E-01  8.50000000E-01  8.50000000E-01
  8.50000000E-01  8.50000000E-01  8.50000000E-01  8.50000000E-01  8.50000000E-01
  8.50000000E-01  8.50000000E-01  8.50000000E-01  8.50000000E-01  8.50000000E-01
  8.50000000E-01  8.50000000E-01  8.50000000E-01  8.50000000E-01  8.50000000E-01
  8.50000000E-01  8.50000000E-01  8.50000000E-01  8.50000000E-01  8.50000000E-01
  8.50000000E-01  8.50000000E-01  8.50000000E-01  8.50000000E-01  8.50000000E-01
  8.50000000E-01  8.50000000E-01  8.50000000E-01  8.50000000E-01  8.50000000E-01
  8.50000000E-01  8.50000000E-01  8.50000000E-01  8.50000000E-01  8.50000000E-01
  8.50000000E-01  8.50000000E-01  8.50000000E-01  8.50000000E-01  8.50000000E-01
  8.50000000E-01  8.50000000E-01  8.50000000E-01  8.50000000E-01  8.50000000E-01
  8.50000000E-01  8.50000000E-01  8.50000000E-01  8.50000000E-01  8.50000000E-01
  8.50000000E-01  8.50000000E-01  8.50000000E-01  8.50000000E-01  8.50000000E-01
  8.50000000E-01  8.50000000E-01  8.50000000E-01  8.50000000E-01  8.50000000E-01
  8.50000000E-01  8.50000000E-01  8.50000000E-01  8.50000000E-01  8.50000000E-01
  8.50000000E-01  8.50000000E-01  8.50000000E-01  8.50000000E-01  8.50000000E-01
  8.50000000E-01  8.50000000E-01  8.50000000E-01  8.50000000E-01  8.50000000E-01
  8.50000000E-01  8.50000000E-01  8.50000000E-01  8.50000000E-01  8.50000000E-01
  8.50000000E-01  8.50000000E-01  8.50000000E-01  8.50000000E-01  8.50000000E-01
  8.50000000E-01  8.50000000E-01  8.50000000E-01  8.50000000E-01  8.50000000E-01
  8.50000000E-01  8.50000000E-01  8.50000000E-01  8.50000000E-01  8.50000000E-01
  8.50000000E-01  8.50000000E-01  8.50000000E-01  8.50000000E-01  8.50000000E-01
  8.50000000E-01  8.50000000E-01  8.50000000E-01  8.50000000E-01  8.50000000E-01
  8.50000000E-01  8.50000000E-01  8.50000000E-01  8.50000000E-01  8.50000000E-01
  8.50000000E-01  8.50000000E-01  8.50000000E-01  8.50000000E-01  8.50000000E-01
  8.50000000E-01  8.50000000E-01  8.50000000E-01  8.50000000E-01  8.50000000E-01
  8.50000000E-01  8.50000000E-01  8.50000000E-01  8.50000000E-01  8.50000000E-01
  8.50000000E-01  8.50000000E-01  8.50000000E-01  8.50000000E-01  8.50000000E-01
  8.50000000E-01  8.50000000E-01  8.50000000E-01  8.50000000E-01  8.50000000E-01
  8.50000000E-01  8.50000000E-01  8.50000000E-01  8.50000000E-01  8.50000000E-01
  8.50000000E-01  8.50000000E-01  8.50000000E-01  8.50000000E-01  8.50000000E-01
  8.50000000E-01  8.50000000E-01  8.50000000E-01  8.50000000E-01  8.50000000E-01
  8.50000000E-01  8.50000000E-01  8.50000000E-01  8.50000000E-01  8.50000000E-01
  8.50000000E-01  8.50000000E-01  8.50000000E-01  8.50000000E-01  8.50000000E-01
  8.50000000E-01  8.50000000E-01  8.50000000E-01  8.50000000E-01  8.50000000E-01
  8.50000000E-01  8.50000000E-01  8.50000000E-01  8.50000000E-01  8.50000000E-01
  8.50000000E-01  8.50000000E-01  8.50000000E-01  8.50000000E-01  8.50000000E-01
  8.50000000E-01  8.50000000E-01  8.50000000E-01  8.50000000E-01  8.50000000E-01
  8.50000000E-01  8.50000000E-01  8.50000000E-01  8.50000000E-01  8.50000000E-01
  8.50000000E-01  8.50000000E-01  8.50000000E-01  8.50000000E-01  8.50000000E-01
  8.50000000E-01  8.50000000E-01  8.50000000E-01  8.50000000E-01  8.50000000E-01
  8.50000000E-01  8.50000000E-01  8.50000000E-01  8.50000000E-01  8.50000000E-01
  8.50000000E-01  8.50000000E-01  8.50000000E-01  8.50000000E-01  8.50000000E-01
  8.50000000E-01  8.50000000E-01  8.50000000E-01  8.50000000E-01  8.50000000E-01
  8.50000000E-01  8.50000000E-01  8.50000000E-01  8.50000000E-01  8.50000000E-01
  8.50000000E-01  8.50000000E-01  8.50000000E-01  8.50000000E-01  8.50000000E-01
  8.50000000E-01  8.50000000E-01  8.50000000E-01  8.50000000E-01  8.50000000E-01
  8.50000000E-01  8.50000000E-01  8.50000000E-01  8.50000000E-01  8.50000000E-01
  8.50000000E-01  8.50000000E-01  8.50000000E-01  8.50000000E-01  8.50000000E-01
  8.50000000E-01  8.50000000E-01  8.50000000E-01  8.50000000E-01  8.50000000E-01
  8.50000000E-01  8.50000000E-01  8.50000000E-01  8.50000000E-01  8.50000000E-01
  8.50000000E-01  8.50000000E-01  8.50000000E-01  8.50000000E-01  8.50000000E-01
  8.50000000E-01  8.50000000E-01  8.50000000E-01  8.50000000E-01  8.50000000E-01
  8.50000000E-01  8.50000000E-01  8.50000000E-01  8.50000000E-01  8.50000000E-01
  8.50000000E-01  8.50000000E-01  8.50000000E-01  8.50000000E-01  8.50000000E-01
  8.50000000E-01  8.50000000E-01  8.50000000E-01  8.50000000E-01  8.50000000E-01
  8.50000000E-01  8.50000000E-01  8.50000000E-01  8.50000000E-01  8.50000000E-01
  8.50000000E-01  8.50000000E-01  8.50000000E-01  8.50000000E-01  8.50000000E-01
  8.50000000E-01  8.50000000E-01  8.50000000E-01  8.50000000E-01  8.50000000E-01
  8.50000000E-01  8.50000000E-01  8.50000000E-01  8.50000000E-01  8.50000000E-01
  8.50000000E-01  8.50000000E-01  8.50000000E-01  8.50000000E-01  8.50000000E-01
  8.50000000E-01  8.50000000E-01  8.50000000E-01  8.50000000E-01  8.50000000E-01
  8.50000000E-01  8.50000000E-01  8.50000000E-01  8.50000000E-01  8.50000000E-01
  8.50000000E-01  8.50000000E-01  8.50000000E-01  8.50000000E-01  8.50000000E-01
  8.50000000E-01  8.50000000E-01  8.50000000E-01  8.50000000E-01  8.50000000E-01
  8.50000000E-01  8.50000000E-01  8.50000000E-01  8.50000000E-01  8.50000000E-01
  8.50000000E-01  8.50000000E-01  8.50000000E-01  8.50000000E-01  8.50000000E-01
  8.50000000E-01  8.50000000E-01  8.50000000E-01  8.50000000E-01  8.50000000E-01
  8.50000000E-01  8.50000000E-01  8.50000000E-01  8.50000000E-01  8.50000000E-01
  8.50000000E-01  8.50000000E-01  8.50000000E-01  8.50000000E-01  8.50000000E-01
  8.50000000E-01  8.50000000E-01  8.50000000E-01  8.50000000E-01  8.50000000E-01
  8.50000000E-01  8.50000000E-01  8.50000000E-01  8.50000000E-01  8.50000000E-01
  8.50000000E-01  8.50000000E-01  8.50000000E-01  8.50000000E-01  8.50000000E-01
  8.50000000E-01  8.50000000E-01  8.50000000E-01  8.50000000E-01  8.50000000E-01
  8.50000000E-01  8.50000000E-01  8.50000000E-01  8.50000000E-01  8.50000000E-01
  8.50000000E-01  8.50000000E-01  8.50000000E-01  8.50000000E-01  8.50000000E-01
  8.50000000E-01  8.50000000E-01  8.50000000E-01  8.50000000E-01  8.50000000E-01
  8.50000000E-01  8.50000000E-01  8.50000000E-01  8.50000000E-01  8.50000000E-01
  8.50000000E-01  8.50000000E-01  8.50000000E-01  8.50000000E-01  8.50000000E-01
  8.50000000E-01  8.50000000E-01  8.50000000E-01  8.50000000E-01  8.50000000E-01
  8.50000000E-01  8.50000000E-01  8.50000000E-01  8.50000000E-01  8.50000000E-01
  8.50000000E-01  8.50000000E-01  8.50000000E-01  8.50000000E-01  8.50000000E-01
  8.50000000E-01  8.50000000E-01  8.50000000E-01  8.50000000E-01  8.50000000E-01
  8.50000000E-01  8.50000000E-01  8.50000000E-01  8.50000000E-01  8.50000000E-01
  8.50000000E-01  8.50000000E-01  8.50000000E-01  8.50000000E-01  8.50000000E-01
  8.50000000E-01  8.50000000E-01  8.50000000E-01  8.50000000E-01  8.50000000E-01
  8.50000000E-01  8.50000000E-01  8.50000000E-01  8.50000000E-01  8.50000000E-01
  8.50000000E-01  8.50000000E-01  8.50000000E-01  8.50000000E-01  8.50000000E-01
  8.50000000E-01  8.50000000E-01  8.50000000E-01  8.50000000E-01  8.50000000E-01
  8.50000000E-01  8.50000000E-01  8.50000000E-01  8.50000000E-01  8.50000000E-01
  8.50000000E-01  8.50000000E-01  8.50000000E-01  8.50000000E-01  8.50000000E-01
  8.50000000E-01  8.50000000E-01  8.50000000E-01  8.50000000E-01  8.50000000E-01
  8.50000000E-01  8.50000000E-01  8.50000000E-01  8.50000000E-01  8.50000000E-01
  8.50000000E-01  8.50000000E-01  8.50000000E-01  8.50000000E-01  8.50000000E-01
  8.50000000E-01  8.50000000E-01  8.50000000E-01  8.50000000E-01  8.50000000E-01
  8.50000000E-01  8.50000000E-01  8.50000000E-01  8.50000000E-01  8.50000000E-01
  8.50000000E-01  8.50000000E-01  8.50000000E-01  8.50000000E-01  8.50000000E-01
  8.50000000E-01  8.50000000E-01  8.50000000E-01  8.50000000E-01  8.50000000E-01
  8.50000000E-01  8.50000000E-01  8.50000000E-01  8.50000000E-01  8.50000000E-01
  8.50000000E-01  8.50000000E-01  8.50000000E-01  8.50000000E-01  8.50000000E-01
  8.50000000E-01  8.50000000E-01  8.50000000E-01  8.50000000E-01  8.50000000E-01
  8.50000000E-01  8.50000000E-01  8.50000000E-01  8.50000000E-01  8.50000000E-01
  8.50000000E-01  8.50000000E-01  8.50000000E-01  8.50000000E-01  8.50000000E-01
  8.50000000E-01  8.50000000E-01  8.50000000E-01  8.50000000E-01  8.50000000E-01
  8.50000000E-01  8.50000000E-01  8.50000000E-01  8.50000000E-01  8.50000000E-01
  8.50000000E-01  8.50000000E-01  8.50000000E-01  8.50000000E-01  8.50000000E-01
  8.50000000E-01  8.50000000E-01  8.50000000E-01  8.50000000E-01  8.50000000E-01
  8.50000000E-01  8.50000000E-01  8.50000000E-01  8.50000000E-01  8.50000000E-01
  8.50000000E-01  8.50000000E-01  8.50000000E-01  8.50000000E-01  8.50000000E-01
  8.50000000E-01  8.50000000E-01  8.50000000E-01  8.50000000E-01  8.50000000E-01
  8.50000000E-01  8.50000000E-01  8.50000000E-01  8.50000000E-01  8.50000000E-01
  8.50000000E-01  8.50000000E-01  8.50000000E-01  8.50000000E-01  8.50000000E-01
  8.50000000E-01  8.50000000E-01  8.50000000E-01  8.50000000E-01  8.50000000E-01
  8.50000000E-01  8.50000000E-01  8.50000000E-01  8.50000000E-01  8.50000000E-01
  8.50000000E-01  8.50000000E-01  8.50000000E-01  8.50000000E-01  8.50000000E-01
  8.50000000E-01  8.50000000E-01  8.50000000E-01  8.50000000E-01  8.50000000E-01
  8.50000000E-01  8.50000000E-01  8.50000000E-01  8.50000000E-01  8.50000000E-01
  8.50000000E-01  8.50000000E-01  8.50000000E-01  8.50000000E-01  8.50000000E-01
  8.50000000E-01  8.50000000E-01  8.50000000E-01  8.50000000E-01  8.50000000E-01
  8.50000000E-01  8.50000000E-01  8.50000000E-01  8.50000000E-01  8.50000000E-01
  8.50000000E-01  8.50000000E-01  8.50000000E-01  8.50000000E-01  8.50000000E-01
  8.50000000E-01  8.50000000E-01  8.50000000E-01  8.50000000E-01  8.50000000E-01
  8.50000000E-01  8.50000000E-01  8.50000000E-01  8.50000000E-01  8.50000000E-01
  8.50000000E-01  8.50000000E-01  8.50000000E-01  8.50000000E-01  8.50000000E-01
  8.50000000E-01  8.50000000E-01  8.50000000E-01  8.50000000E-01  8.50000000E-01
  8.50000000E-01  8.50000000E-01  8.50000000E-01  8.50000000E-01  8.50000000E-01
  8.50000000E-01  8.50000000E-01  8.50000000E-01  8.50000000E-01  8.50000000E-01
  8.50000000E-01  8.50000000E-01  8.50000000E-01  8.50000000E-01  8.50000000E-01
  8.50000000E-01  8.50000000E-01  8.50000000E-01  8.50000000E-01  8.50000000E-01
  8.50000000E-01  8.50000000E-01  8.50000000E-01  8.50000000E-01  8.50000000E-01
  8.50000000E-01  8.50000000E-01  8.50000000E-01  8.50000000E-01  8.50000000E-01
  8.50000000E-01  8.50000000E-01  8.50000000E-01  8.50000000E-01  8.50000000E-01
  8.50000000E-01  8.50000000E-01  8.50000000E-01  8.50000000E-01  8.50000000E-01
  8.50000000E-01  8.50000000E-01  8.50000000E-01  8.50000000E-01  8.50000000E-01
  8.50000000E-01  8.50000000E-01  8.50000000E-01  8.50000000E-01  8.50000000E-01
  8.50000000E-01  8.50000000E-01  8.50000000E-01  8.50000000E-01  8.50000000E-01
  8.50000000E-01  8.50000000E-01  8.50000000E-01  8.50000000E-01  8.50000000E-01
  8.50000000E-01  8.50000000E-01  8.50000000E-01  8.50000000E-01  8.50000000E-01
  8.50000000E-01  8.50000000E-01  8.50000000E-01  8.50000000E-01  8.50000000E-01
  8.50000000E-01  8.50000000E-01  8.50000000E-01  8.50000000E-01  8.50000000E-01
  8.50000000E-01  8.50000000E-01  8.50000000E-01  8.50000000E-01  8.50000000E-01
  8.50000000E-01  8.50000000E-01  8.50000000E-01  8.50000000E-01  8.50000000E-01
  8.50000000E-01  8.50000000E-01  8.50000000E-01  8.50000000E-01  8.50000000E-01
  8.50000000E-01  8.50000000E-01  8.50000000E-01  8.50000000E-01  8.50000000E-01
  8.50000000E-01  8.50000000E-01  8.50000000E-01  8.50000000E-01  8.50000000E-01
  8.50000000E-01  8.50000000E-01  8.50000000E-01  8.50000000E-01  8.50000000E-01
  8.50000000E-01  8.50000000E-01  8.50000000E-01  8.50000000E-01  8.50000000E-01
  8.50000000E-01  8.50000000E-01  8.50000000E-01  8.50000000E-01  8.50000000E-01
  8.50000000E-01  8.50000000E-01  8.50000000E-01  8.50000000E-01  8.50000000E-01
  8.50000000E-01  8.50000000E-01  8.50000000E-01  8.50000000E-01  8.50000000E-01
  8.50000000E-01  8.50000000E-01  8.50000000E-01  8.50000000E-01  8.50000000E-01
  8.50000000E-01  8.50000000E-01  8.50000000E-01  8.50000000E-01  8.50000000E-01
  8.50000000E-01  8.50000000E-01  8.50000000E-01  8.50000000E-01  8.50000000E-01
  8.50000000E-01  8.50000000E-01  8.50000000E-01  8.50000000E-01  8.50000000E-01
  8.50000000E-01  8.50000000E-01  8.50000000E-01  8.50000000E-01  8.50000000E-01
  8.50000000E-01  8.50000000E-01  8.50000000E-01  8.50000000E-01  8.50000000E-01
  8.50000000E-01  8.50000000E-01  8.50000000E-01  8.50000000E-01  8.50000000E-01
  8.50000000E-01  8.50000000E-01  8.50000000E-01  8.50000000E-01  8.50000000E-01
  8.50000000E-01  8.50000000E-01  8.50000000E-01  8.50000000E-01  8.50000000E-01
  8.50000000E-01  8.50000000E-01  8.50000000E-01  8.50000000E-01  8.50000000E-01
  8.50000000E-01  8.50000000E-01  8.50000000E-01  8.50000000E-01  8.50000000E-01
  8.50000000E-01  8.50000000E-01  8.50000000E-01  8.50000000E-01  8.50000000E-01
  8.50000000E-01  8.50000000E-01  8.50000000E-01  8.50000000E-01  8.50000000E-01
  8.50000000E-01  8.50000000E-01  8.50000000E-01  8.50000000E-01  8.50000000E-01
  8.50000000E-01  8.50000000E-01  8.50000000E-01  8.50000000E-01  8.50000000E-01
  8.50000000E-01  8.50000000E-01  8.50000000E-01  8.50000000E-01  8.50000000E-01
  8.50000000E-01  8.50000000E-01  8.50000000E-01  8.50000000E-01  8.50000000E-01
  8.50000000E-01  8.50000000E-01  8.50000000E-01  8.50000000E-01  8.50000000E-01
  8.50000000E-01  8.50000000E-01  8.50000000E-01  8.50000000E-01  8.50000000E-01
  8.50000000E-01  8.50000000E-01  8.50000000E-01  8.50000000E-01  8.50000000E-01
  8.50000000E-01  8.50000000E-01  8.50000000E-01  8.50000000E-01  8.50000000E-01
  8.50000000E-01  8.50000000E-01  8.50000000E-01  8.50000000E-01  8.50000000E-01
  8.50000000E-01  8.50000000E-01  8.50000000E-01  8.50000000E-01  8.50000000E-01
  8.50000000E-01  8.50000000E-01  8.50000000E-01  8.50000000E-01  8.50000000E-01
  8.50000000E-01  8.50000000E-01  8.50000000E-01  8.50000000E-01  8.50000000E-01
  8.50000000E-01  8.50000000E-01  8.50000000E-01  8.50000000E-01  8.50000000E-01
  8.50000000E-01  8.50000000E-01  8.50000000E-01  8.50000000E-01  8.50000000E-01
  8.50000000E-01  8.50000000E-01  8.50000000E-01  8.50000000E-01  8.50000000E-01
  8.50000000E-01  8.50000000E-01  8.50000000E-01  8.50000000E-01  8.50000000E-01
  8.50000000E-01  8.50000000E-01  8.50000000E-01  8.50000000E-01  8.50000000E-01
  8.50000000E-01  8.50000000E-01  8.50000000E-01  8.50000000E-01  8.50000000E-01
  8.50000000E-01  8.50000000E-01  8.50000000E-01  8.50000000E-01  8.50000000E-01
  8.50000000E-01  8.50000000E-01  8.50000000E-01  8.50000000E-01  8.50000000E-01
  8.50000000E-01  8.50000000E-01  8.50000000E-01  8.50000000E-01  8.50000000E-01
  8.50000000E-01  8.50000000E-01  8.50000000E-01  8.50000000E-01  8.50000000E-01
  8.50000000E-01  8.50000000E-01  8.50000000E-01  8.50000000E-01  8.50000000E-01
  8.50000000E-01  8.50000000E-01  8.50000000E-01  8.50000000E-01  8.50000000E-01
  8.50000000E-01  8.50000000E-01  8.50000000E-01  8.50000000E-01  8.50000000E-01
  8.50000000E-01  8.50000000E-01  8.50000000E-01  8.50000000E-01  8.50000000E-01
  8.50000000E-01  8.50000000E-01  8.50000000E-01  8.50000000E-01  8.50000000E-01
  8.50000000E-01  8.50000000E-01  8.50000000E-01  8.50000000E-01  8.50000000E-01
  8.50000000E-01  8.50000000E-01  8.50000000E-01  8.50000000E-01  8.50000000E-01
  8.50000000E-01  8.50000000E-01  8.50000000E-01  8.50000000E-01  8.50000000E-01
  8.50000000E-01  8.50000000E-01  8.50000000E-01  8.50000000E-01  8.50000000E-01
  8.50000000E-01  8.50000000E-01  8.50000000E-01  8.50000000E-01  8.50000000E-01
  8.50000000E-01  8.50000000E-01  8.50000000E-01  8.50000000E-01  8.50000000E-01
  8.50000000E-01  8.50000000E-01  8.50000000E-01  8.50000000E-01  8.50000000E-01
  8.50000000E-01  8.50000000E-01  8.50000000E-01  8.50000000E-01  8.50000000E-01
  8.50000000E-01  8.50000000E-01  8.50000000E-01  8.50000000E-01  8.50000000E-01
  8.50000000E-01  8.50000000E-01  8.50000000E-01  8.50000000E-01  8.50000000E-01
  8.50000000E-01  8.50000000E-01  8.50000000E-01  8.50000000E-01  8.50000000E-01
  8.50000000E-01  8.50000000E-01  8.50000000E-01  8.50000000E-01  8.50000000E-01
  8.50000000E-01  8.50000000E-01  8.50000000E-01  8.50000000E-01  8.50000000E-01
  8.50000000E-01  8.50000000E-01  8.50000000E-01  8.50000000E-01  8.50000000E-01
  8.50000000E-01  8.50000000E-01  8.50000000E-01  8.50000000E-01  8.50000000E-01
  8.50000000E-01  8.50000000E-01  8.50000000E-01  8.50000000E-01  8.50000000E-01
  8.50000000E-01  8.50000000E-01  8.50000000E-01  8.50000000E-01  8.50000000E-01
  8.50000000E-01  8.50000000E-01  8.50000000E-01  8.50000000E-01  8.50000000E-01
  8.50000000E-01  8.50000000E-01  8.50000000E-01  8.50000000E-01  8.50000000E-01
  8.50000000E-01  8.50000000E-01  8.50000000E-01  8.50000000E-01  8.50000000E-01
  8.50000000E-01  8.50000000E-01  8.50000000E-01  8.50000000E-01  8.50000000E-01
  8.50000000E-01  8.50000000E-01  8.50000000E-01  8.50000000E-01  8.50000000E-01
  8.50000000E-01  8.50000000E-01  8.50000000E-01  8.50000000E-01  8.50000000E-01
  8.50000000E-01  8.50000000E-01  8.50000000E-01  8.50000000E-01  8.50000000E-01
  8.50000000E-01  8.50000000E-01  8.50000000E-01  8.50000000E-01  8.50000000E-01
  8.50000000E-01  8.50000000E-01  8.50000000E-01  8.50000000E-01  8.50000000E-01
  8.50000000E-01  8.50000000E-01  8.50000000E-01  8.50000000E-01  8.50000000E-01
  8.50000000E-01  8.50000000E-01  8.50000000E-01  8.50000000E-01  8.50000000E-01
  8.50000000E-01  8.50000000E-01  8.50000000E-01  8.50000000E-01  8.50000000E-01
  8.50000000E-01  8.50000000E-01  8.50000000E-01  8.50000000E-01  8.50000000E-01
  8.50000000E-01  8.50000000E-01  8.50000000E-01  8.50000000E-01  8.50000000E-01
  8.50000000E-01  8.50000000E-01  8.50000000E-01  8.50000000E-01  8.50000000E-01
  8.50000000E-01  8.50000000E-01  8.50000000E-01  8.50000000E-01  8.50000000E-01
  8.50000000E-01  8.50000000E-01  8.50000000E-01  8.50000000E-01  8.50000000E-01
  8.50000000E-01  8.50000000E-01  8.50000000E-01  8.50000000E-01  8.50000000E-01
  8.50000000E-01  8.50000000E-01  8.50000000E-01  8.50000000E-01  8.50000000E-01
  8.50000000E-01  8.50000000E-01  8.50000000E-01  8.50000000E-01  8.50000000E-01
  8.50000000E-01  8.50000000E-01  8.50000000E-01  8.50000000E-01  8.50000000E-01
  8.50000000E-01  8.50000000E-01  8.50000000E-01  8.50000000E-01  8.50000000E-01
  8.50000000E-01  8.50000000E-01  8.50000000E-01  8.50000000E-01  8.50000000E-01
  8.50000000E-01  8.50000000E-01  8.50000000E-01  8.50000000E-01  8.50000000E-01
  8.50000000E-01  8.50000000E-01  8.50000000E-01  8.50000000E-01  8.50000000E-01
  8.50000000E-01  8.50000000E-01  8.50000000E-01  8.50000000E-01  8.50000000E-01
  8.50000000E-01  8.50000000E-01  8.50000000E-01  8.50000000E-01  8.50000000E-01
  8.50000000E-01  8.50000000E-01  8.50000000E-01  8.50000000E-01  8.50000000E-01
  8.50000000E-01  8.50000000E-01  8.50000000E-01  8.50000000E-01  8.50000000E-01
  8.50000000E-01  8.50000000E-01  8.50000000E-01  8.50000000E-01  8.50000000E-01
  8.50000000E-01  8.50000000E-01  8.50000000E-01  8.50000000E-01  8.50000000E-01
  8.50000000E-01  8.50000000E-01  8.50000000E-01  8.50000000E-01  8.50000000E-01
  8.50000000E-01  8.50000000E-01  8.50000000E-01  8.50000000E-01  8.50000000E-01
  8.50000000E-01  8.50000000E-01  8.50000000E-01  8.50000000E-01  8.50000000E-01
  8.50000000E-01  8.50000000E-01  8.50000000E-01  8.50000000E-01  8.50000000E-01
  8.50000000E-01  8.50000000E-01  8.50000000E-01  8.50000000E-01  8.50000000E-01
  8.50000000E-01  8.50000000E-01  8.50000000E-01  8.50000000E-01  8.50000000E-01
  8.50000000E-01  8.50000000E-01  8.50000000E-01  8.50000000E-01  8.50000000E-01
  8.50000000E-01  8.50000000E-01  8.50000000E-01  8.50000000E-01  8.50000000E-01
  8.50000000E-01  8.50000000E-01  8.50000000E-01  8.50000000E-01  8.50000000E-01
  8.50000000E-01  8.50000000E-01  8.50000000E-01  8.50000000E-01  8.50000000E-01
  8.50000000E-01  8.50000000E-01  8.50000000E-01  8.50000000E-01  8.50000000E-01
  8.50000000E-01  8.50000000E-01  8.50000000E-01  8.50000000E-01  8.50000000E-01
  8.50000000E-01  8.50000000E-01  8.50000000E-01  8.50000000E-01  8.50000000E-01
  8.50000000E-01  8.50000000E-01  8.50000000E-01  8.50000000E-01  8.50000000E-01
  8.50000000E-01  8.50000000E-01  8.50000000E-01  8.50000000E-01  8.50000000E-01
  8.50000000E-01  8.50000000E-01  8.50000000E-01  8.50000000E-01  8.50000000E-01
  8.50000000E-01  8.50000000E-01  8.50000000E-01  8.50000000E-01  8.50000000E-01
  8.50000000E-01  8.50000000E-01  8.50000000E-01  8.50000000E-01  8.50000000E-01
  8.50000000E-01  8.50000000E-01  8.50000000E-01  8.50000000E-01  8.50000000E-01
  8.50000000E-01  8.50000000E-01  8.50000000E-01  8.50000000E-01  8.50000000E-01
  8.50000000E-01  8.50000000E-01  8.50000000E-01  8.50000000E-01  8.50000000E-01
  8.50000000E-01  8.50000000E-01  8.50000000E-01  8.50000000E-01  8.50000000E-01
  8.50000000E-01  8.50000000E-01  8.50000000E-01  8.50000000E-01  8.50000000E-01
  8.50000000E-01  8.50000000E-01  8.50000000E-01  8.50000000E-01  8.50000000E-01
  8.50000000E-01  8.50000000E-01  8.50000000E-01  8.50000000E-01  8.50000000E-01
  8.50000000E-01  8.50000000E-01  8.50000000E-01  8.50000000E-01  8.50000000E-01
  8.50000000E-01  8.50000000E-01  8.50000000E-01  8.50000000E-01  8.50000000E-01
  8.50000000E-01  8.50000000E-01  8.50000000E-01  8.50000000E-01  8.50000000E-01
  8.50000000E-01  8.50000000E-01  8.50000000E-01  8.50000000E-01  8.50000000E-01
  8.50000000E-01  8.50000000E-01  8.50000000E-01  8.50000000E-01  8.50000000E-01
  8.50000000E-01  8.50000000E-01  8.50000000E-01  8.50000000E-01  8.50000000E-01
  8.50000000E-01  8.50000000E-01  8.50000000E-01  8.50000000E-01  8.50000000E-01
  8.50000000E-01  8.50000000E-01  8.50000000E-01  8.50000000E-01  8.50000000E-01
  8.50000000E-01  8.50000000E-01  8.50000000E-01  8.50000000E-01  8.50000000E-01
  8.50000000E-01  8.50000000E-01  8.50000000E-01  8.50000000E-01  8.50000000E-01
  8.50000000E-01  8.50000000E-01  8.50000000E-01  8.50000000E-01  8.50000000E-01
  8.50000000E-01  8.50000000E-01  8.50000000E-01  8.50000000E-01  8.50000000E-01
  8.50000000E-01  8.50000000E-01  8.50000000E-01  8.50000000E-01  8.50000000E-01
  8.50000000E-01  8.50000000E-01  8.50000000E-01  8.50000000E-01  8.50000000E-01
  8.50000000E-01  8.50000000E-01  8.50000000E-01  8.50000000E-01  8.50000000E-01
  8.50000000E-01  8.50000000E-01  8.50000000E-01  8.50000000E-01  8.50000000E-01
  8.50000000E-01  8.50000000E-01  8.50000000E-01  8.50000000E-01  8.50000000E-01
  8.50000000E-01  8.50000000E-01  8.50000000E-01  8.50000000E-01  8.50000000E-01
  8.50000000E-01  8.50000000E-01  8.50000000E-01  8.50000000E-01  8.50000000E-01
  8.50000000E-01  8.50000000E-01  8.50000000E-01  8.50000000E-01  8.50000000E-01
  8.50000000E-01  8.50000000E-01  8.50000000E-01  8.50000000E-01  8.50000000E-01
  8.50000000E-01  8.50000000E-01  8.50000000E-01  8.50000000E-01  8.50000000E-01
  8.50000000E-01  8.50000000E-01  8.50000000E-01  8.50000000E-01  8.50000000E-01
  8.50000000E-01  8.50000000E-01  8.50000000E-01  8.50000000E-01  8.50000000E-01
  8.50000000E-01  8.50000000E-01  8.50000000E-01  8.50000000E-01  8.50000000E-01
  8.50000000E-01  8.50000000E-01  8.50000000E-01  8.50000000E-01  8.50000000E-01
  8.50000000E-01  8.50000000E-01  8.50000000E-01  8.50000000E-01  8.50000000E-01
  8.50000000E-01  8.50000000E-01  8.50000000E-01  8.50000000E-01  8.50000000E-01
  8.50000000E-01  8.50000000E-01  8.50000000E-01  8.50000000E-01  8.50000000E-01
  8.50000000E-01  8.50000000E-01  8.50000000E-01  8.50000000E-01  8.50000000E-01
  8.50000000E-01  8.50000000E-01  8.50000000E-01  8.50000000E-01  8.50000000E-01
  8.50000000E-01  8.50000000E-01  8.50000000E-01  8.50000000E-01  8.50000000E-01
  8.50000000E-01  8.50000000E-01  8.50000000E-01  8.50000000E-01  8.50000000E-01
  8.50000000E-01  8.50000000E-01  8.50000000E-01  8.50000000E-01  8.50000000E-01
  8.50000000E-01  8.50000000E-01  8.50000000E-01  8.50000000E-01  8.50000000E-01
  8.50000000E-01  8.50000000E-01  8.50000000E-01  8.50000000E-01  8.50000000E-01
  8.50000000E-01  8.50000000E-01  8.50000000E-01  8.50000000E-01  8.50000000E-01
  8.50000000E-01  8.50000000E-01  8.50000000E-01  8.50000000E-01  8.50000000E-01
  8.50000000E-01  8.50000000E-01  8.50000000E-01  8.50000000E-01  8.50000000E-01
  8.50000000E-01  8.50000000E-01  8.50000000E-01  8.50000000E-01  8.50000000E-01
  8.50000000E-01  8.50000000E-01  8.50000000E-01  8.50000000E-01  8.50000000E-01
  8.50000000E-01  8.50000000E-01  8.50000000E-01  8.50000000E-01  8.50000000E-01
  8.50000000E-01  8.50000000E-01  8.50000000E-01  8.50000000E-01  8.50000000E-01
  8.50000000E-01  8.50000000E-01  8.50000000E-01  8.50000000E-01  8.50000000E-01
  8.50000000E-01  8.50000000E-01  8.50000000E-01  8.50000000E-01  8.50000000E-01
  8.50000000E-01  8.50000000E-01  8.50000000E-01  8.50000000E-01  8.50000000E-01
  8.50000000E-01  8.50000000E-01  8.50000000E-01  8.50000000E-01  8.50000000E-01
  8.50000000E-01  8.50000000E-01  8.50000000E-01  8.50000000E-01  8.50000000E-01
  8.50000000E-01  8.50000000E-01  8.50000000E-01  8.50000000E-01  8.50000000E-01
  8.50000000E-01  8.50000000E-01  8.50000000E-01  8.50000000E-01  8.50000000E-01
  8.50000000E-01  8.50000000E-01  8.50000000E-01  8.50000000E-01  8.50000000E-01
  8.50000000E-01  8.50000000E-01  8.50000000E-01  8.50000000E-01  8.50000000E-01
  8.50000000E-01  8.50000000E-01  8.50000000E-01  8.50000000E-01  8.50000000E-01
  8.50000000E-01  8.50000000E-01  8.50000000E-01  8.50000000E-01  8.50000000E-01
  8.50000000E-01  8.50000000E-01  8.50000000E-01  8.50000000E-01  8.50000000E-01
  8.50000000E-01  8.50000000E-01  8.50000000E-01  8.50000000E-01  8.50000000E-01
  8.50000000E-01  8.50000000E-01  8.50000000E-01  8.50000000E-01  8.50000000E-01
  8.50000000E-01  8.50000000E-01  8.50000000E-01  8.50000000E-01  8.50000000E-01
  8.50000000E-01  8.50000000E-01  8.50000000E-01  8.50000000E-01  8.50000000E-01
  8.50000000E-01  8.50000000E-01  8.50000000E-01  8.50000000E-01  8.50000000E-01
  8.50000000E-01  8.50000000E-01  8.50000000E-01  8.50000000E-01  8.50000000E-01
  8.50000000E-01  8.50000000E-01  8.50000000E-01  8.50000000E-01  8.50000000E-01
  8.50000000E-01  8.50000000E-01  8.50000000E-01  8.50000000E-01  8.50000000E-01
  8.50000000E-01  8.50000000E-01  8.50000000E-01  8.50000000E-01  8.50000000E-01
  8.50000000E-01  8.50000000E-01  8.50000000E-01  8.50000000E-01  8.50000000E-01
  8.50000000E-01  8.50000000E-01  8.50000000E-01  8.50000000E-01  8.50000000E-01
  8.50000000E-01  8.50000000E-01  8.50000000E-01  8.50000000E-01  8.50000000E-01
  8.50000000E-01  8.50000000E-01  8.50000000E-01  8.50000000E-01  8.50000000E-01
  8.50000000E-01  8.50000000E-01  8.50000000E-01  8.50000000E-01  8.50000000E-01
  8.50000000E-01  8.50000000E-01  8.50000000E-01  8.50000000E-01  8.50000000E-01
  8.50000000E-01  8.50000000E-01  8.50000000E-01  8.50000000E-01  8.50000000E-01
  8.50000000E-01  8.50000000E-01  8.50000000E-01  8.50000000E-01  8.50000000E-01
  8.50000000E-01  8.50000000E-01  8.50000000E-01  8.50000000E-01  8.50000000E-01
  8.50000000E-01  8.50000000E-01  8.50000000E-01  8.50000000E-01  8.50000000E-01
  8.50000000E-01  8.50000000E-01  8.50000000E-01  8.50000000E-01  8.50000000E-01
  8.50000000E-01  8.50000000E-01  8.50000000E-01  8.50000000E-01  8.50000000E-01
  8.50000000E-01  8.50000000E-01  8.50000000E-01  8.50000000E-01  8.50000000E-01
  8.50000000E-01  8.50000000E-01  8.50000000E-01  8.50000000E-01  8.50000000E-01
  8.50000000E-01  8.50000000E-01  8.50000000E-01  8.50000000E-01  8.50000000E-01
  8.50000000E-01  8.50000000E-01  8.50000000E-01  8.50000000E-01  8.50000000E-01
  8.50000000E-01  8.50000000E-01  8.50000000E-01  8.50000000E-01  8.50000000E-01
  8.50000000E-01  8.50000000E-01  8.50000000E-01  8.50000000E-01  8.50000000E-01
  8.50000000E-01  8.50000000E-01  8.50000000E-01  8.50000000E-01  8.50000000E-01
  8.50000000E-01  8.50000000E-01  8.50000000E-01  8.50000000E-01  8.50000000E-01
  8.50000000E-01  8.50000000E-01  8.50000000E-01  8.50000000E-01  8.50000000E-01
  8.50000000E-01  8.50000000E-01  8.50000000E-01  8.50000000E-01  8.50000000E-01
  8.50000000E-01  8.50000000E-01  8.50000000E-01  8.50000000E-01  8.50000000E-01
  8.50000000E-01  8.50000000E-01  8.50000000E-01  8.50000000E-01  8.50000000E-01
  8.50000000E-01  8.50000000E-01  8.50000000E-01  8.50000000E-01  8.50000000E-01
  8.50000000E-01  8.50000000E-01  8.50000000E-01  8.50000000E-01  8.50000000E-01
  8.50000000E-01  8.50000000E-01  8.50000000E-01  8.50000000E-01  8.50000000E-01
  8.50000000E-01  8.50000000E-01  8.50000000E-01  8.50000000E-01  8.50000000E-01
  8.50000000E-01  8.50000000E-01  8.50000000E-01  8.50000000E-01  8.50000000E-01
  8.50000000E-01  8.50000000E-01  8.50000000E-01  8.50000000E-01  8.50000000E-01
  8.50000000E-01  8.50000000E-01  8.50000000E-01  8.50000000E-01  8.50000000E-01
  8.50000000E-01  8.50000000E-01  8.50000000E-01  8.50000000E-01  8.50000000E-01
  8.50000000E-01  8.50000000E-01  8.50000000E-01  8.50000000E-01  8.50000000E-01
  8.50000000E-01  8.50000000E-01  8.50000000E-01  8.50000000E-01  8.50000000E-01
  8.50000000E-01  8.50000000E-01  8.50000000E-01  8.50000000E-01  8.50000000E-01
  8.50000000E-01  8.50000000E-01  8.50000000E-01  8.50000000E-01  8.50000000E-01
  8.50000000E-01  8.50000000E-01  8.50000000E-01  8.50000000E-01  8.50000000E-01
  8.50000000E-01  8.50000000E-01  8.50000000E-01  8.50000000E-01  8.50000000E-01
  8.50000000E-01  8.50000000E-01  8.50000000E-01  8.50000000E-01  8.50000000E-01
  8.50000000E-01  8.50000000E-01  8.50000000E-01  8.50000000E-01  8.50000000E-01
  8.50000000E-01  8.50000000E-01  8.50000000E-01  8.50000000E-01  8.50000000E-01
  8.50000000E-01  8.50000000E-01  8.50000000E-01  8.50000000E-01  8.50000000E-01
  8.50000000E-01  8.50000000E-01  8.50000000E-01  8.50000000E-01  8.50000000E-01
  8.50000000E-01  8.50000000E-01  8.50000000E-01  8.50000000E-01  8.50000000E-01
  8.50000000E-01  8.50000000E-01  8.50000000E-01  8.50000000E-01  8.50000000E-01
  8.50000000E-01  8.50000000E-01  8.50000000E-01  8.50000000E-01  8.50000000E-01
  8.50000000E-01  8.50000000E-01  8.50000000E-01  8.50000000E-01  8.50000000E-01
  8.50000000E-01  8.50000000E-01  8.50000000E-01  8.50000000E-01  8.50000000E-01
  8.50000000E-01  8.50000000E-01  8.50000000E-01  8.50000000E-01  8.50000000E-01
  8.50000000E-01  8.50000000E-01  8.50000000E-01  8.50000000E-01  8.50000000E-01
  8.50000000E-01  8.50000000E-01  8.50000000E-01  8.50000000E-01  8.50000000E-01
  8.50000000E-01  8.50000000E-01  8.50000000E-01  8.50000000E-01  8.50000000E-01
  8.50000000E-01  8.50000000E-01  8.50000000E-01  8.50000000E-01  8.50000000E-01
  8.50000000E-01  8.50000000E-01  8.50000000E-01  8.50000000E-01  8.50000000E-01
  8.50000000E-01  8.50000000E-01  8.50000000E-01  8.50000000E-01  8.50000000E-01
  8.50000000E-01  8.50000000E-01  8.50000000E-01  8.50000000E-01  8.50000000E-01
  8.50000000E-01  8.50000000E-01  8.50000000E-01  8.50000000E-01  8.50000000E-01
  8.50000000E-01  8.50000000E-01  8.50000000E-01  8.50000000E-01  8.50000000E-01
  8.50000000E-01  8.50000000E-01  8.50000000E-01  8.50000000E-01  8.50000000E-01
  8.50000000E-01  8.50000000E-01  8.50000000E-01  8.50000000E-01  8.50000000E-01
  8.50000000E-01  8.50000000E-01  8.50000000E-01  8.50000000E-01  8.50000000E-01
  8.50000000E-01  8.50000000E-01  8.50000000E-01  8.50000000E-01  8.50000000E-01
  8.50000000E-01  8.50000000E-01  8.50000000E-01  8.50000000E-01  8.50000000E-01
  8.50000000E-01  8.50000000E-01  8.50000000E-01  8.50000000E-01  8.50000000E-01
  8.50000000E-01  8.50000000E-01  8.50000000E-01  8.50000000E-01  8.50000000E-01
  8.50000000E-01  8.50000000E-01  8.50000000E-01  8.50000000E-01  8.50000000E-01
  8.50000000E-01  8.50000000E-01  8.50000000E-01  8.50000000E-01  8.50000000E-01
  8.50000000E-01  8.50000000E-01  8.50000000E-01  8.50000000E-01  8.50000000E-01
  8.50000000E-01  8.50000000E-01  8.50000000E-01  8.50000000E-01  8.50000000E-01
  8.50000000E-01  8.50000000E-01  8.50000000E-01  8.50000000E-01  8.50000000E-01
  8.50000000E-01  8.50000000E-01  8.50000000E-01  8.50000000E-01  8.50000000E-01
  8.50000000E-01  8.50000000E-01  8.50000000E-01  8.50000000E-01  8.50000000E-01
  8.50000000E-01  8.50000000E-01  8.50000000E-01  8.50000000E-01  8.50000000E-01
  8.50000000E-01  8.50000000E-01  8.50000000E-01  8.50000000E-01  8.50000000E-01
  8.50000000E-01  8.50000000E-01  8.50000000E-01  8.50000000E-01  8.50000000E-01
  8.50000000E-01  8.50000000E-01  8.50000000E-01  8.50000000E-01  8.50000000E-01
  8.50000000E-01  8.50000000E-01  8.50000000E-01  8.50000000E-01  8.50000000E-01
  8.50000000E-01  8.50000000E-01  8.50000000E-01  8.50000000E-01  8.50000000E-01
  8.50000000E-01  8.50000000E-01  8.50000000E-01  8.50000000E-01  8.50000000E-01
  8.50000000E-01  8.50000000E-01  8.50000000E-01  8.50000000E-01  8.50000000E-01
  8.50000000E-01  8.50000000E-01  8.50000000E-01  8.50000000E-01  8.50000000E-01
  8.50000000E-01  8.50000000E-01  8.50000000E-01  8.50000000E-01  8.50000000E-01
  8.50000000E-01  8.50000000E-01  8.50000000E-01  8.50000000E-01  8.50000000E-01
  8.50000000E-01  8.50000000E-01  8.50000000E-01  8.50000000E-01  8.50000000E-01
  8.50000000E-01  8.50000000E-01  8.50000000E-01  8.50000000E-01  8.50000000E-01
  8.50000000E-01  8.50000000E-01  8.50000000E-01  8.50000000E-01  8.50000000E-01
  8.50000000E-01  8.50000000E-01  8.50000000E-01  8.50000000E-01  8.50000000E-01
  8.50000000E-01  8.50000000E-01  8.50000000E-01  8.50000000E-01  8.50000000E-01
  8.50000000E-01  8.50000000E-01  8.50000000E-01  8.50000000E-01  8.50000000E-01
  8.50000000E-01  8.50000000E-01  8.50000000E-01  8.50000000E-01  8.50000000E-01
  8.50000000E-01  8.50000000E-01  8.50000000E-01  8.50000000E-01  8.50000000E-01
  8.50000000E-01  8.50000000E-01  8.50000000E-01  8.50000000E-01  8.50000000E-01
  8.50000000E-01  8.50000000E-01  8.50000000E-01  8.50000000E-01  8.50000000E-01
  8.50000000E-01  8.50000000E-01  8.50000000E-01  8.50000000E-01  8.50000000E-01
  8.50000000E-01  8.50000000E-01  8.50000000E-01  8.50000000E-01  8.50000000E-01
  8.50000000E-01  8.50000000E-01  8.50000000E-01  8.50000000E-01  8.50000000E-01
  8.50000000E-01  8.50000000E-01  8.50000000E-01  8.50000000E-01  8.50000000E-01
  8.50000000E-01  8.50000000E-01  8.50000000E-01  8.50000000E-01  8.50000000E-01
  8.50000000E-01  8.50000000E-01  8.50000000E-01  8.50000000E-01  8.50000000E-01
  8.50000000E-01  8.50000000E-01  8.50000000E-01  8.50000000E-01  8.50000000E-01
  8.50000000E-01  8.50000000E-01  8.50000000E-01  8.50000000E-01  8.50000000E-01
  8.50000000E-01  8.50000000E-01  8.50000000E-01  8.50000000E-01  8.50000000E-01
  8.50000000E-01  8.50000000E-01  8.50000000E-01  8.50000000E-01  8.50000000E-01
  8.50000000E-01  8.50000000E-01  8.50000000E-01  8.50000000E-01  8.50000000E-01
  8.50000000E-01  8.50000000E-01  8.50000000E-01  8.50000000E-01  8.50000000E-01
  8.50000000E-01  8.50000000E-01  8.50000000E-01  8.50000000E-01  8.50000000E-01
  8.50000000E-01  8.50000000E-01  8.50000000E-01  8.50000000E-01  8.50000000E-01
  8.50000000E-01  8.50000000E-01  8.50000000E-01  8.50000000E-01  8.50000000E-01
  8.50000000E-01  8.50000000E-01  8.50000000E-01  8.50000000E-01  8.50000000E-01
  8.50000000E-01  8.50000000E-01  8.50000000E-01  8.50000000E-01  8.50000000E-01
  8.50000000E-01  8.50000000E-01  8.50000000E-01  8.50000000E-01  8.50000000E-01
  8.50000000E-01  8.50000000E-01  8.50000000E-01  8.50000000E-01  8.50000000E-01
  8.50000000E-01  8.50000000E-01  8.50000000E-01  8.50000000E-01  8.50000000E-01
  8.50000000E-01  8.50000000E-01  8.50000000E-01  8.50000000E-01  8.50000000E-01
  8.50000000E-01  8.50000000E-01  8.50000000E-01  8.50000000E-01  8.50000000E-01
  8.50000000E-01  8.50000000E-01  8.50000000E-01  8.50000000E-01  8.50000000E-01
  8.50000000E-01  8.50000000E-01  8.50000000E-01  8.50000000E-01  8.50000000E-01
  8.50000000E-01  8.50000000E-01  8.50000000E-01  8.50000000E-01  8.50000000E-01
  8.50000000E-01  8.50000000E-01  8.50000000E-01  8.50000000E-01  8.50000000E-01
  8.50000000E-01  8.50000000E-01  8.50000000E-01  8.50000000E-01  8.50000000E-01
  8.50000000E-01  8.50000000E-01  8.50000000E-01  8.50000000E-01  8.50000000E-01
  8.50000000E-01  8.50000000E-01  8.50000000E-01  8.50000000E-01  8.50000000E-01
  8.50000000E-01  8.50000000E-01  8.50000000E-01  8.50000000E-01  8.50000000E-01
  8.50000000E-01  8.50000000E-01  8.50000000E-01  8.50000000E-01  8.50000000E-01
  8.50000000E-01  8.50000000E-01  8.50000000E-01  8.50000000E-01  8.50000000E-01
  8.50000000E-01  8.50000000E-01  8.50000000E-01  8.50000000E-01  8.50000000E-01
  8.50000000E-01  8.50000000E-01  8.50000000E-01  8.50000000E-01  8.50000000E-01
  8.50000000E-01  8.50000000E-01  8.50000000E-01  8.50000000E-01  8.50000000E-01
  8.50000000E-01  8.50000000E-01  8.50000000E-01  8.50000000E-01  8.50000000E-01
  8.50000000E-01  8.50000000E-01  8.50000000E-01  8.50000000E-01  8.50000000E-01
  8.50000000E-01  8.50000000E-01  8.50000000E-01  8.50000000E-01  8.50000000E-01
  8.50000000E-01  8.50000000E-01  8.50000000E-01  8.50000000E-01  8.50000000E-01
  8.50000000E-01  8.50000000E-01  8.50000000E-01  8.50000000E-01  8.50000000E-01
  8.50000000E-01  8.50000000E-01  8.50000000E-01  8.50000000E-01  8.50000000E-01
  8.50000000E-01  8.50000000E-01  8.50000000E-01  8.50000000E-01  8.50000000E-01
  8.50000000E-01  8.50000000E-01  8.50000000E-01  8.50000000E-01  8.50000000E-01
  8.50000000E-01  8.50000000E-01  8.50000000E-01  8.50000000E-01  8.50000000E-01
  8.50000000E-01  8.50000000E-01  8.50000000E-01  8.50000000E-01  8.50000000E-01
  8.50000000E-01  8.50000000E-01  8.50000000E-01  8.50000000E-01  8.50000000E-01
  8.50000000E-01  8.50000000E-01  8.50000000E-01  8.50000000E-01  8.50000000E-01
  8.50000000E-01  8.50000000E-01  8.50000000E-01  8.50000000E-01  8.50000000E-01
  8.50000000E-01  8.50000000E-01  8.50000000E-01  8.50000000E-01  8.50000000E-01
  8.50000000E-01  8.50000000E-01  8.50000000E-01  8.50000000E-01  8.50000000E-01
  8.50000000E-01  8.50000000E-01  8.50000000E-01  8.50000000E-01  8.50000000E-01
  8.50000000E-01  8.50000000E-01  8.50000000E-01  8.50000000E-01  8.50000000E-01
  8.50000000E-01  8.50000000E-01  8.50000000E-01  8.50000000E-01  8.50000000E-01
  8.50000000E-01  8.50000000E-01  8.50000000E-01  8.50000000E-01  8.50000000E-01
  8.50000000E-01  8.50000000E-01  8.50000000E-01  8.50000000E-01  8.50000000E-01
  8.50000000E-01  8.50000000E-01  8.50000000E-01  8.50000000E-01  8.50000000E-01
  8.50000000E-01  8.50000000E-01  8.50000000E-01  8.50000000E-01  8.50000000E-01
  8.50000000E-01  8.50000000E-01  8.50000000E-01  8.50000000E-01  8.50000000E-01
  8.50000000E-01  8.50000000E-01  8.50000000E-01  8.50000000E-01  8.50000000E-01
  8.50000000E-01  8.50000000E-01  8.50000000E-01  8.50000000E-01  8.50000000E-01
  8.50000000E-01  8.50000000E-01  8.50000000E-01  8.50000000E-01  8.50000000E-01
  8.50000000E-01  8.50000000E-01  8.50000000E-01  8.50000000E-01  8.50000000E-01
  8.50000000E-01  8.50000000E-01  8.50000000E-01  8.50000000E-01  8.50000000E-01
  8.50000000E-01  8.50000000E-01  8.50000000E-01  8.50000000E-01  8.50000000E-01
  8.50000000E-01  8.50000000E-01  8.50000000E-01  8.50000000E-01  8.50000000E-01
  8.50000000E-01  8.50000000E-01  8.50000000E-01  8.50000000E-01  8.50000000E-01
  8.50000000E-01  8.50000000E-01  8.50000000E-01  8.50000000E-01  8.50000000E-01
  8.50000000E-01  8.50000000E-01  8.50000000E-01  8.50000000E-01  8.50000000E-01
  8.50000000E-01  8.50000000E-01  8.50000000E-01  8.50000000E-01  8.50000000E-01
  8.50000000E-01  8.50000000E-01  8.50000000E-01  8.50000000E-01  8.50000000E-01
  8.50000000E-01  8.50000000E-01  8.50000000E-01  8.50000000E-01  8.50000000E-01
  8.50000000E-01  8.50000000E-01  8.50000000E-01  8.50000000E-01  8.50000000E-01
  8.50000000E-01  8.50000000E-01  8.50000000E-01  8.50000000E-01  8.50000000E-01
  8.50000000E-01  8.50000000E-01  8.50000000E-01  8.50000000E-01  8.50000000E-01
  8.50000000E-01  8.50000000E-01  8.50000000E-01  8.50000000E-01  8.50000000E-01
  8.50000000E-01  8.50000000E-01  8.50000000E-01  8.50000000E-01  8.50000000E-01
  8.50000000E-01  8.50000000E-01  8.50000000E-01  8.50000000E-01  8.50000000E-01
  8.50000000E-01  8.50000000E-01  8.50000000E-01  8.50000000E-01  8.50000000E-01
  8.50000000E-01  8.50000000E-01  8.50000000E-01  8.50000000E-01  8.50000000E-01
  8.50000000E-01  8.50000000E-01  8.50000000E-01  8.50000000E-01  8.50000000E-01
  8.50000000E-01  8.50000000E-01  8.50000000E-01  8.50000000E-01  8.50000000E-01
  8.50000000E-01  8.50000000E-01  8.50000000E-01  8.50000000E-01  8.50000000E-01
  8.50000000E-01  8.50000000E-01  8.50000000E-01  8.50000000E-01  8.50000000E-01
  8.50000000E-01  8.50000000E-01  8.50000000E-01  8.50000000E-01  8.50000000E-01
  8.50000000E-01  8.50000000E-01  8.50000000E-01  8.50000000E-01  8.50000000E-01
  8.50000000E-01  8.50000000E-01  8.50000000E-01  8.50000000E-01  8.50000000E-01
  8.50000000E-01  8.50000000E-01  8.50000000E-01  8.50000000E-01  8.50000000E-01
  8.50000000E-01  8.50000000E-01  8.50000000E-01  8.50000000E-01  8.50000000E-01
  8.50000000E-01  8.50000000E-01  8.50000000E-01  8.50000000E-01  8.50000000E-01
  8.50000000E-01  8.50000000E-01  8.50000000E-01  8.50000000E-01  8.50000000E-01
  8.50000000E-01  8.50000000E-01  8.50000000E-01  8.50000000E-01  8.50000000E-01
  8.50000000E-01  8.50000000E-01  8.50000000E-01  8.50000000E-01  8.50000000E-01
  8.50000000E-01  8.50000000E-01  8.50000000E-01  8.50000000E-01  8.50000000E-01
  8.50000000E-01  8.50000000E-01  8.50000000E-01  8.50000000E-01  8.50000000E-01
  8.50000000E-01  8.50000000E-01  8.50000000E-01  8.50000000E-01  8.50000000E-01
  8.50000000E-01  8.50000000E-01  8.50000000E-01  8.50000000E-01  8.50000000E-01
  8.50000000E-01  8.50000000E-01  8.50000000E-01  8.50000000E-01  8.50000000E-01
  8.50000000E-01  8.50000000E-01  8.50000000E-01  8.50000000E-01  8.50000000E-01
  8.50000000E-01  8.50000000E-01  8.50000000E-01  8.50000000E-01  8.50000000E-01
  8.50000000E-01  8.50000000E-01  8.50000000E-01  8.50000000E-01  8.50000000E-01
  8.50000000E-01  8.50000000E-01  8.50000000E-01  8.50000000E-01  8.50000000E-01
  8.50000000E-01  8.50000000E-01  8.50000000E-01  8.50000000E-01  8.50000000E-01
  8.50000000E-01  8.50000000E-01  8.50000000E-01  8.50000000E-01  8.50000000E-01
  8.50000000E-01  8.50000000E-01  8.50000000E-01  8.50000000E-01  8.50000000E-01
  8.50000000E-01  8.50000000E-01  8.50000000E-01  8.50000000E-01  8.50000000E-01
  8.50000000E-01  8.50000000E-01  8.50000000E-01  8.50000000E-01  8.50000000E-01
  8.50000000E-01  8.50000000E-01  8.50000000E-01  8.50000000E-01  8.50000000E-01
  8.50000000E-01  8.50000000E-01  8.50000000E-01  8.50000000E-01  8.50000000E-01
  8.50000000E-01  8.50000000E-01  8.50000000E-01  8.50000000E-01  8.50000000E-01
  8.50000000E-01  8.50000000E-01  8.50000000E-01  8.50000000E-01  8.50000000E-01
  8.50000000E-01  8.50000000E-01  8.50000000E-01  8.50000000E-01  8.50000000E-01
  8.50000000E-01  8.50000000E-01  8.50000000E-01  8.50000000E-01  8.50000000E-01
  8.50000000E-01  8.50000000E-01  8.50000000E-01  8.50000000E-01  8.50000000E-01
  8.50000000E-01  8.50000000E-01  8.50000000E-01  8.50000000E-01  8.50000000E-01
  8.50000000E-01  8.50000000E-01  8.50000000E-01  8.50000000E-01  8.50000000E-01
  8.50000000E-01  8.50000000E-01  8.50000000E-01  8.50000000E-01  8.50000000E-01
  8.50000000E-01  8.50000000E-01  8.50000000E-01  8.50000000E-01  8.50000000E-01
  8.50000000E-01  8.50000000E-01  8.50000000E-01  8.50000000E-01  8.50000000E-01
  8.50000000E-01  8.50000000E-01  8.50000000E-01  8.50000000E-01  8.50000000E-01
  8.50000000E-01  8.50000000E-01  8.50000000E-01  8.50000000E-01  8.50000000E-01
  8.50000000E-01  8.50000000E-01  8.50000000E-01  8.50000000E-01  8.50000000E-01
  8.50000000E-01  8.50000000E-01  8.50000000E-01  8.50000000E-01  8.50000000E-01
  8.50000000E-01  8.50000000E-01  8.50000000E-01  8.50000000E-01  8.50000000E-01
  8.50000000E-01  8.50000000E-01  8.50000000E-01  8.50000000E-01  8.50000000E-01
  8.50000000E-01  8.50000000E-01  8.50000000E-01  8.50000000E-01  8.50000000E-01
  8.50000000E-01  8.50000000E-01  8.50000000E-01  8.50000000E-01  8.50000000E-01
  8.50000000E-01  8.50000000E-01  8.50000000E-01  8.50000000E-01  8.50000000E-01
  8.50000000E-01  8.50000000E-01  8.50000000E-01  8.50000000E-01  8.50000000E-01
  8.50000000E-01  8.50000000E-01  8.50000000E-01  8.50000000E-01  8.50000000E-01
  8.50000000E-01  8.50000000E-01  8.50000000E-01  8.50000000E-01  8.50000000E-01
  8.50000000E-01  8.50000000E-01  8.50000000E-01  8.50000000E-01  8.50000000E-01
  8.50000000E-01  8.50000000E-01  8.50000000E-01  8.50000000E-01  8.50000000E-01
  8.50000000E-01  8.50000000E-01  8.50000000E-01  8.50000000E-01  8.50000000E-01
  8.50000000E-01  8.50000000E-01  8.50000000E-01  8.50000000E-01  8.50000000E-01
  8.50000000E-01  8.50000000E-01  8.50000000E-01  8.50000000E-01  8.50000000E-01
  8.50000000E-01  8.50000000E-01  8.50000000E-01  8.50000000E-01  8.50000000E-01
  8.50000000E-01  8.50000000E-01  8.50000000E-01  8.50000000E-01  8.50000000E-01
  8.50000000E-01  8.50000000E-01  8.50000000E-01  8.50000000E-01  8.50000000E-01
  8.50000000E-01  8.50000000E-01  8.50000000E-01  8.50000000E-01  8.50000000E-01
  8.50000000E-01  8.50000000E-01  8.50000000E-01  8.50000000E-01  8.50000000E-01
  8.50000000E-01  8.50000000E-01  8.50000000E-01  8.50000000E-01  8.50000000E-01
  8.50000000E-01  8.50000000E-01  8.50000000E-01  8.50000000E-01  8.50000000E-01
  8.50000000E-01  8.50000000E-01  8.50000000E-01  8.50000000E-01  8.50000000E-01
  8.50000000E-01  8.50000000E-01  8.50000000E-01  8.50000000E-01  8.50000000E-01
  8.50000000E-01  8.50000000E-01  8.50000000E-01  8.50000000E-01  8.50000000E-01
  8.50000000E-01  8.50000000E-01  8.50000000E-01  8.50000000E-01  8.50000000E-01
  8.50000000E-01  8.50000000E-01  8.50000000E-01  8.50000000E-01  8.50000000E-01
  8.50000000E-01  8.50000000E-01  8.50000000E-01  8.50000000E-01  8.50000000E-01
  8.50000000E-01  8.50000000E-01  8.50000000E-01  8.50000000E-01  8.50000000E-01
  8.50000000E-01  8.50000000E-01  8.50000000E-01  8.50000000E-01  8.50000000E-01
  8.50000000E-01  8.50000000E-01  8.50000000E-01  8.50000000E-01  8.50000000E-01
  8.50000000E-01  8.50000000E-01  8.50000000E-01  8.50000000E-01  8.50000000E-01
  8.50000000E-01  8.50000000E-01  8.50000000E-01  8.50000000E-01  8.50000000E-01
  8.50000000E-01  8.50000000E-01  8.50000000E-01  8.50000000E-01  8.50000000E-01
  8.50000000E-01  8.50000000E-01  8.50000000E-01  8.50000000E-01  8.50000000E-01
  8.50000000E-01  8.50000000E-01  8.50000000E-01  8.50000000E-01  8.50000000E-01
  8.50000000E-01  8.50000000E-01  8.50000000E-01  8.50000000E-01  8.50000000E-01
  8.50000000E-01  8.50000000E-01  8.50000000E-01  8.50000000E-01  8.50000000E-01
  8.50000000E-01  8.50000000E-01  8.50000000E-01  8.50000000E-01  8.50000000E-01
  8.50000000E-01  8.50000000E-01  8.50000000E-01  8.50000000E-01  8.50000000E-01
  8.50000000E-01  8.50000000E-01  8.50000000E-01  8.50000000E-01  8.50000000E-01
  8.50000000E-01  8.50000000E-01  8.50000000E-01  8.50000000E-01  8.50000000E-01
  8.50000000E-01  8.50000000E-01  8.50000000E-01  8.50000000E-01  8.50000000E-01
  8.50000000E-01  8.50000000E-01  8.50000000E-01  8.50000000E-01  8.50000000E-01
  8.50000000E-01  8.50000000E-01  8.50000000E-01  8.50000000E-01  8.50000000E-01
  8.50000000E-01  8.50000000E-01  8.50000000E-01  8.50000000E-01  8.50000000E-01
  8.50000000E-01  8.50000000E-01  8.50000000E-01  8.50000000E-01  8.50000000E-01
  8.50000000E-01  8.50000000E-01  8.50000000E-01  8.50000000E-01  8.50000000E-01
  8.50000000E-01  8.50000000E-01  8.50000000E-01  8.50000000E-01  8.50000000E-01
  8.50000000E-01  8.50000000E-01  8.50000000E-01  8.50000000E-01  8.50000000E-01
  8.50000000E-01  8.50000000E-01  8.50000000E-01  8.50000000E-01  8.50000000E-01
  8.50000000E-01  8.50000000E-01  8.50000000E-01  8.50000000E-01  8.50000000E-01
  8.50000000E-01  8.50000000E-01  8.50000000E-01  8.50000000E-01  8.50000000E-01
  8.50000000E-01  8.50000000E-01  8.50000000E-01  8.50000000E-01  8.50000000E-01
  8.50000000E-01  8.50000000E-01  8.50000000E-01  8.50000000E-01  8.50000000E-01
  8.50000000E-01  8.50000000E-01  8.50000000E-01  8.50000000E-01  8.50000000E-01
  8.50000000E-01  8.50000000E-01  8.50000000E-01  8.50000000E-01  8.50000000E-01
  8.50000000E-01  8.50000000E-01  8.50000000E-01  8.50000000E-01  8.50000000E-01
  8.50000000E-01  8.50000000E-01  8.50000000E-01  8.50000000E-01  8.50000000E-01
  8.50000000E-01  8.50000000E-01  8.50000000E-01  8.50000000E-01  8.50000000E-01
  8.50000000E-01  8.50000000E-01  8.50000000E-01  8.50000000E-01  8.50000000E-01
  8.50000000E-01  8.50000000E-01  8.50000000E-01  8.50000000E-01  8.50000000E-01
  8.50000000E-01  8.50000000E-01  8.50000000E-01  8.50000000E-01  8.50000000E-01
  8.50000000E-01  8.50000000E-01  8.50000000E-01  8.50000000E-01  8.50000000E-01
  8.50000000E-01  8.50000000E-01  8.50000000E-01  8.50000000E-01  8.50000000E-01
  8.50000000E-01  8.50000000E-01  8.50000000E-01  8.50000000E-01  8.50000000E-01
  8.50000000E-01  8.50000000E-01  8.50000000E-01  8.50000000E-01  8.50000000E-01
  8.50000000E-01  8.50000000E-01  8.50000000E-01  8.50000000E-01  8.50000000E-01
  8.50000000E-01  8.50000000E-01  8.50000000E-01  8.50000000E-01  8.50000000E-01
  8.50000000E-01  8.50000000E-01  8.50000000E-01  8.50000000E-01  8.50000000E-01
  8.50000000E-01  8.50000000E-01  8.50000000E-01  8.50000000E-01  8.50000000E-01
  8.50000000E-01  8.50000000E-01  8.50000000E-01  8.50000000E-01  8.50000000E-01
  8.50000000E-01  8.50000000E-01  8.50000000E-01  8.50000000E-01  8.50000000E-01
  8.50000000E-01  8.50000000E-01  8.50000000E-01  8.50000000E-01  8.50000000E-01
  8.50000000E-01  8.50000000E-01  8.50000000E-01  8.50000000E-01  8.50000000E-01
  8.50000000E-01  8.50000000E-01  8.50000000E-01  8.50000000E-01  8.50000000E-01
  8.50000000E-01  8.50000000E-01  8.50000000E-01  8.50000000E-01  8.50000000E-01
  8.50000000E-01  8.50000000E-01  8.50000000E-01  8.50000000E-01  8.50000000E-01
  8.50000000E-01  8.50000000E-01  8.50000000E-01  8.50000000E-01  8.50000000E-01
  8.50000000E-01  8.50000000E-01  8.50000000E-01  8.50000000E-01  8.50000000E-01
  8.50000000E-01  8.50000000E-01  8.50000000E-01  8.50000000E-01  8.50000000E-01
  8.50000000E-01  8.50000000E-01  8.50000000E-01  8.50000000E-01  8.50000000E-01
  8.50000000E-01  8.50000000E-01  8.50000000E-01  8.50000000E-01  8.50000000E-01
  8.50000000E-01  8.50000000E-01  8.50000000E-01  8.50000000E-01  8.50000000E-01
  8.50000000E-01  8.50000000E-01  8.50000000E-01  8.50000000E-01  8.50000000E-01
  8.50000000E-01  8.50000000E-01  8.50000000E-01  8.50000000E-01  8.50000000E-01
  8.50000000E-01  8.50000000E-01  8.50000000E-01  8.50000000E-01  8.50000000E-01
  8.50000000E-01  8.50000000E-01  8.50000000E-01  8.50000000E-01  8.50000000E-01
  8.50000000E-01  8.50000000E-01  8.50000000E-01  8.50000000E-01  8.50000000E-01
  8.50000000E-01  8.50000000E-01  8.50000000E-01  8.50000000E-01  8.50000000E-01
  8.50000000E-01  8.50000000E-01  8.50000000E-01  8.50000000E-01  8.50000000E-01
  8.50000000E-01  8.50000000E-01  8.50000000E-01  8.50000000E-01  8.50000000E-01
  8.50000000E-01  8.50000000E-01  8.50000000E-01  8.50000000E-01  8.50000000E-01
  8.50000000E-01  8.50000000E-01  8.50000000E-01  8.50000000E-01  8.50000000E-01
  8.50000000E-01  8.50000000E-01  8.50000000E-01  8.50000000E-01  8.50000000E-01
  8.50000000E-01  8.50000000E-01  8.50000000E-01  8.50000000E-01  8.50000000E-01
  8.50000000E-01  8.50000000E-01  8.50000000E-01  8.50000000E-01  8.50000000E-01
  8.50000000E-01  8.50000000E-01  8.50000000E-01  8.50000000E-01  8.50000000E-01
  8.50000000E-01  8.50000000E-01  8.50000000E-01  8.50000000E-01  8.50000000E-01
  8.50000000E-01  8.50000000E-01  8.50000000E-01  8.50000000E-01  8.50000000E-01
  8.50000000E-01  8.50000000E-01  8.50000000E-01  8.50000000E-01  8.50000000E-01
  8.50000000E-01  8.50000000E-01  8.50000000E-01  8.50000000E-01  8.50000000E-01
  8.50000000E-01  8.50000000E-01  8.50000000E-01  8.50000000E-01  8.50000000E-01
  8.50000000E-01  8.50000000E-01  8.50000000E-01  8.50000000E-01  8.50000000E-01
  8.50000000E-01  8.50000000E-01  8.50000000E-01  8.50000000E-01  8.50000000E-01
  8.50000000E-01  8.50000000E-01  8.50000000E-01  8.50000000E-01  8.50000000E-01
  8.50000000E-01  8.50000000E-01  8.50000000E-01  8.50000000E-01  8.50000000E-01
  8.50000000E-01  8.50000000E-01  8.50000000E-01  8.50000000E-01  8.50000000E-01
  8.50000000E-01  8.50000000E-01  8.50000000E-01  8.50000000E-01  8.50000000E-01
  8.50000000E-01  8.50000000E-01  8.50000000E-01  8.50000000E-01  8.50000000E-01
  8.50000000E-01  8.50000000E-01  8.50000000E-01  8.50000000E-01  8.50000000E-01
  8.50000000E-01  8.50000000E-01  8.50000000E-01  8.50000000E-01  8.50000000E-01
  8.50000000E-01  8.50000000E-01  8.50000000E-01  8.50000000E-01  8.50000000E-01
  8.50000000E-01  8.50000000E-01  8.50000000E-01  8.50000000E-01  8.50000000E-01
  8.50000000E-01  8.50000000E-01  8.50000000E-01  8.50000000E-01  8.50000000E-01
  8.50000000E-01  8.50000000E-01  8.50000000E-01  8.50000000E-01  8.50000000E-01
  8.50000000E-01  8.50000000E-01  8.50000000E-01  8.50000000E-01  8.50000000E-01
  8.50000000E-01  8.50000000E-01  8.50000000E-01  8.50000000E-01  8.50000000E-01
  8.50000000E-01  8.50000000E-01  8.50000000E-01  8.50000000E-01  8.50000000E-01
  8.50000000E-01  8.50000000E-01  8.50000000E-01  8.50000000E-01  8.50000000E-01
  8.50000000E-01  8.50000000E-01  8.50000000E-01  8.50000000E-01  8.50000000E-01
  8.50000000E-01  8.50000000E-01  8.50000000E-01  8.50000000E-01  8.50000000E-01
  8.50000000E-01  8.50000000E-01  8.50000000E-01  8.50000000E-01  8.50000000E-01
  8.50000000E-01  8.50000000E-01  8.50000000E-01  8.50000000E-01  8.50000000E-01
  8.50000000E-01  8.50000000E-01  8.50000000E-01  8.50000000E-01  8.50000000E-01
  8.50000000E-01  8.50000000E-01  8.50000000E-01  8.50000000E-01  8.50000000E-01
  8.50000000E-01  8.50000000E-01  8.50000000E-01  8.50000000E-01  8.50000000E-01
  8.50000000E-01  8.50000000E-01  8.50000000E-01  8.50000000E-01  8.50000000E-01
  8.50000000E-01  8.50000000E-01  8.50000000E-01  8.50000000E-01  8.50000000E-01
  8.50000000E-01  8.50000000E-01  8.50000000E-01  8.50000000E-01  8.50000000E-01
  8.50000000E-01  8.50000000E-01  8.50000000E-01  8.50000000E-01  8.50000000E-01
  8.50000000E-01  8.50000000E-01  8.50000000E-01  8.50000000E-01  8.50000000E-01
  8.50000000E-01  8.50000000E-01  8.50000000E-01  8.50000000E-01  8.50000000E-01
  8.50000000E-01  8.50000000E-01  8.50000000E-01  8.50000000E-01  8.50000000E-01
  8.50000000E-01  8.50000000E-01  8.50000000E-01  8.50000000E-01  8.50000000E-01
  8.50000000E-01  8.50000000E-01  8.50000000E-01  8.50000000E-01  8.50000000E-01
  8.50000000E-01  8.50000000E-01  8.50000000E-01  8.50000000E-01  8.50000000E-01
  8.50000000E-01  8.50000000E-01  8.50000000E-01  8.50000000E-01  8.50000000E-01
  8.50000000E-01  8.50000000E-01  8.50000000E-01  8.50000000E-01  8.50000000E-01
  8.50000000E-01  8.50000000E-01  8.50000000E-01  8.50000000E-01  8.50000000E-01
  8.50000000E-01  8.50000000E-01  8.50000000E-01  8.50000000E-01  8.50000000E-01
  8.50000000E-01  8.50000000E-01  8.50000000E-01  8.50000000E-01  8.50000000E-01
  8.50000000E-01  8.50000000E-01  8.50000000E-01  8.50000000E-01  8.50000000E-01
  8.50000000E-01  8.50000000E-01  8.50000000E-01  8.50000000E-01  8.50000000E-01
  8.50000000E-01  8.50000000E-01  8.50000000E-01  8.50000000E-01  8.50000000E-01
  8.50000000E-01  8.50000000E-01  8.50000000E-01  8.50000000E-01  8.50000000E-01
  8.50000000E-01  8.50000000E-01  8.50000000E-01  8.50000000E-01  8.50000000E-01
  8.50000000E-01  8.50000000E-01  8.50000000E-01  8.50000000E-01  8.50000000E-01
  8.50000000E-01  8.50000000E-01  8.50000000E-01  8.50000000E-01  8.50000000E-01
  8.50000000E-01  8.50000000E-01  8.50000000E-01  8.50000000E-01  8.50000000E-01
  8.50000000E-01  8.50000000E-01  8.50000000E-01  8.50000000E-01  8.50000000E-01
  8.50000000E-01  8.50000000E-01  8.50000000E-01  8.50000000E-01  8.50000000E-01
  8.50000000E-01  8.50000000E-01  8.50000000E-01  8.50000000E-01  8.50000000E-01
  8.50000000E-01  8.50000000E-01  8.50000000E-01  8.50000000E-01  8.50000000E-01
  8.50000000E-01  8.50000000E-01  8.50000000E-01  8.50000000E-01  8.50000000E-01
  8.50000000E-01  8.50000000E-01  8.50000000E-01  8.50000000E-01  8.50000000E-01
  8.50000000E-01  8.50000000E-01  8.50000000E-01  8.50000000E-01  8.50000000E-01
  8.50000000E-01  8.50000000E-01  8.50000000E-01  8.50000000E-01  8.50000000E-01
  8.50000000E-01  8.50000000E-01  8.50000000E-01  8.50000000E-01  8.50000000E-01
  8.50000000E-01  8.50000000E-01  8.50000000E-01  8.50000000E-01  8.50000000E-01
  8.50000000E-01  8.50000000E-01  8.50000000E-01  8.50000000E-01  8.50000000E-01
  8.50000000E-01  8.50000000E-01  8.50000000E-01  8.50000000E-01  8.50000000E-01
  8.50000000E-01  8.50000000E-01  8.50000000E-01  8.50000000E-01  8.50000000E-01
  8.50000000E-01  8.50000000E-01  8.50000000E-01  8.50000000E-01  8.50000000E-01
  8.50000000E-01  8.50000000E-01  8.50000000E-01  8.50000000E-01  8.50000000E-01
  8.50000000E-01  8.50000000E-01  8.50000000E-01  8.50000000E-01  8.50000000E-01
  8.50000000E-01  8.50000000E-01  8.50000000E-01  8.50000000E-01  8.50000000E-01
  8.50000000E-01  8.50000000E-01  8.50000000E-01  8.50000000E-01  8.50000000E-01
  8.50000000E-01  8.50000000E-01  8.50000000E-01  8.50000000E-01  8.50000000E-01
  8.50000000E-01  8.50000000E-01  8.50000000E-01  8.50000000E-01  8.50000000E-01
  8.50000000E-01  8.50000000E-01  8.50000000E-01  8.50000000E-01  8.50000000E-01
  8.50000000E-01  8.50000000E-01  8.50000000E-01  8.50000000E-01  8.50000000E-01
  8.50000000E-01  8.50000000E-01  8.50000000E-01  8.50000000E-01  8.50000000E-01
  8.50000000E-01  8.50000000E-01  8.50000000E-01  8.50000000E-01  8.50000000E-01
  8.50000000E-01  8.50000000E-01  8.50000000E-01  8.50000000E-01  8.50000000E-01
  8.50000000E-01  8.50000000E-01  8.50000000E-01  8.50000000E-01  8.50000000E-01
  8.50000000E-01  8.50000000E-01  8.50000000E-01  8.50000000E-01  8.50000000E-01
  8.50000000E-01  8.50000000E-01  8.50000000E-01  8.50000000E-01  8.50000000E-01
  8.50000000E-01  8.50000000E-01  8.50000000E-01  8.50000000E-01  8.50000000E-01
  8.50000000E-01  8.50000000E-01  8.50000000E-01  8.50000000E-01  8.50000000E-01
  8.50000000E-01  8.50000000E-01  8.50000000E-01  8.50000000E-01  8.50000000E-01
  8.50000000E-01  8.50000000E-01  8.50000000E-01  8.50000000E-01  8.50000000E-01
  8.50000000E-01  8.50000000E-01  8.50000000E-01  8.50000000E-01  8.50000000E-01
  8.50000000E-01  8.50000000E-01  8.50000000E-01  8.50000000E-01  8.50000000E-01
  8.50000000E-01  8.50000000E-01  8.50000000E-01  8.50000000E-01  8.50000000E-01
  8.50000000E-01  8.50000000E-01  8.50000000E-01  8.50000000E-01  8.50000000E-01
  8.50000000E-01  8.50000000E-01  8.50000000E-01  8.50000000E-01  8.50000000E-01
  8.50000000E-01  8.50000000E-01  8.50000000E-01  8.50000000E-01  8.50000000E-01
  8.50000000E-01  8.50000000E-01  8.50000000E-01  8.50000000E-01  8.50000000E-01
  8.50000000E-01  8.50000000E-01  8.50000000E-01  8.50000000E-01  8.50000000E-01
  8.50000000E-01  8.50000000E-01  8.50000000E-01  8.50000000E-01  8.50000000E-01
  8.50000000E-01  8.50000000E-01  8.50000000E-01  8.50000000E-01  8.50000000E-01
  8.50000000E-01  8.50000000E-01  8.50000000E-01  8.50000000E-01  8.50000000E-01
  8.50000000E-01  8.50000000E-01  8.50000000E-01  8.50000000E-01  8.50000000E-01
  8.50000000E-01  8.50000000E-01  8.50000000E-01  8.50000000E-01  8.50000000E-01
  8.50000000E-01  8.50000000E-01  8.50000000E-01  8.50000000E-01  8.50000000E-01
  8.50000000E-01  8.50000000E-01  8.50000000E-01  8.50000000E-01  8.50000000E-01
  8.50000000E-01  8.50000000E-01  8.50000000E-01  8.50000000E-01  8.50000000E-01
  8.50000000E-01  8.50000000E-01  8.50000000E-01  8.50000000E-01  8.50000000E-01
  8.50000000E-01  8.50000000E-01  8.50000000E-01  8.50000000E-01  8.50000000E-01
  8.50000000E-01  8.50000000E-01  8.50000000E-01  8.50000000E-01  8.50000000E-01
  8.50000000E-01  8.50000000E-01  8.50000000E-01  8.50000000E-01  8.50000000E-01
  8.50000000E-01  8.50000000E-01  8.50000000E-01  8.50000000E-01  8.50000000E-01
  8.50000000E-01  8.50000000E-01  8.50000000E-01  8.50000000E-01  8.50000000E-01
  8.50000000E-01  8.50000000E-01  8.50000000E-01  8.50000000E-01  8.50000000E-01
  8.50000000E-01  8.50000000E-01  8.50000000E-01  8.50000000E-01  8.50000000E-01
  8.50000000E-01  8.50000000E-01  8.50000000E-01  8.50000000E-01  8.50000000E-01
  8.50000000E-01  8.50000000E-01  8.50000000E-01  8.50000000E-01  8.50000000E-01
  8.50000000E-01  8.50000000E-01  8.50000000E-01  8.50000000E-01  8.50000000E-01
  8.50000000E-01  8.50000000E-01  8.50000000E-01  8.50000000E-01  8.50000000E-01
  8.50000000E-01  8.50000000E-01  8.50000000E-01  8.50000000E-01  8.50000000E-01
  8.50000000E-01  8.50000000E-01  8.50000000E-01  8.50000000E-01  8.50000000E-01
  8.50000000E-01  8.50000000E-01  8.50000000E-01  8.50000000E-01  8.50000000E-01
  8.50000000E-01  8.50000000E-01  8.50000000E-01  8.50000000E-01  8.50000000E-01
  8.50000000E-01  8.50000000E-01  8.50000000E-01  8.50000000E-01  8.50000000E-01
  8.50000000E-01  8.50000000E-01  8.50000000E-01  8.50000000E-01  8.50000000E-01
  8.50000000E-01  8.50000000E-01  8.50000000E-01  8.50000000E-01  8.50000000E-01
  8.50000000E-01  8.50000000E-01  8.50000000E-01  8.50000000E-01  8.50000000E-01
  8.50000000E-01  8.50000000E-01  8.50000000E-01  8.50000000E-01  8.50000000E-01
  8.50000000E-01  8.50000000E-01  8.50000000E-01  8.50000000E-01  8.50000000E-01
  8.50000000E-01  8.50000000E-01  8.50000000E-01  8.50000000E-01  8.50000000E-01
  8.50000000E-01  8.50000000E-01  8.50000000E-01  8.50000000E-01  8.50000000E-01
  8.50000000E-01  8.50000000E-01  8.50000000E-01  8.50000000E-01  8.50000000E-01
  8.50000000E-01  8.50000000E-01  8.50000000E-01  8.50000000E-01  8.50000000E-01
  8.50000000E-01  8.50000000E-01  8.50000000E-01  8.50000000E-01  8.50000000E-01
  8.50000000E-01  8.50000000E-01  8.50000000E-01  8.50000000E-01  8.50000000E-01
  8.50000000E-01  8.50000000E-01  8.50000000E-01  8.50000000E-01  8.50000000E-01
  8.50000000E-01  8.50000000E-01  8.50000000E-01  8.50000000E-01  8.50000000E-01
  8.50000000E-01  8.50000000E-01  8.50000000E-01  8.50000000E-01  8.50000000E-01
  8.50000000E-01  8.50000000E-01  8.50000000E-01  8.50000000E-01  8.50000000E-01
  8.50000000E-01  8.50000000E-01  8.50000000E-01  8.50000000E-01  8.50000000E-01
  8.50000000E-01  8.50000000E-01  8.50000000E-01  8.50000000E-01  8.50000000E-01
  8.50000000E-01  8.50000000E-01  8.50000000E-01  8.50000000E-01  8.50000000E-01
  8.50000000E-01  8.50000000E-01  8.50000000E-01  8.50000000E-01  8.50000000E-01
  8.50000000E-01  8.50000000E-01  8.50000000E-01  8.50000000E-01  8.50000000E-01
  8.50000000E-01  8.50000000E-01  8.50000000E-01  8.50000000E-01  8.50000000E-01
  8.50000000E-01  8.50000000E-01  8.50000000E-01  8.50000000E-01  8.50000000E-01
  8.50000000E-01  8.50000000E-01  8.50000000E-01  8.50000000E-01  8.50000000E-01
  8.50000000E-01  8.50000000E-01  8.50000000E-01  8.50000000E-01  8.50000000E-01
  8.50000000E-01  8.50000000E-01  8.50000000E-01  8.50000000E-01  8.50000000E-01
  8.50000000E-01  8.50000000E-01  8.50000000E-01  8.50000000E-01  8.50000000E-01
  8.50000000E-01  8.50000000E-01  8.50000000E-01  8.50000000E-01  8.50000000E-01
  8.50000000E-01  8.50000000E-01  8.50000000E-01  8.50000000E-01  8.50000000E-01
  8.50000000E-01  8.50000000E-01  8.50000000E-01  8.50000000E-01  8.50000000E-01
  8.50000000E-01  8.50000000E-01  8.50000000E-01  8.50000000E-01  8.50000000E-01
  8.50000000E-01  8.50000000E-01  8.50000000E-01  8.50000000E-01  8.50000000E-01
  8.50000000E-01  8.50000000E-01  8.50000000E-01  8.50000000E-01  8.50000000E-01
  8.50000000E-01  8.50000000E-01  8.50000000E-01  8.50000000E-01  8.50000000E-01
  8.50000000E-01  8.50000000E-01  8.50000000E-01  8.50000000E-01  8.50000000E-01
  8.50000000E-01  8.50000000E-01  8.50000000E-01  8.50000000E-01  8.50000000E-01
  8.50000000E-01  8.50000000E-01  8.50000000E-01  8.50000000E-01  8.50000000E-01
  8.50000000E-01  8.50000000E-01  8.50000000E-01  8.50000000E-01  8.50000000E-01
  8.50000000E-01  8.50000000E-01  8.50000000E-01  8.50000000E-01  8.50000000E-01
  8.50000000E-01  8.50000000E-01  8.50000000E-01  8.50000000E-01  8.50000000E-01
  8.50000000E-01  8.50000000E-01  8.50000000E-01  8.50000000E-01  8.50000000E-01
  8.50000000E-01  8.50000000E-01  8.50000000E-01  8.50000000E-01  8.50000000E-01
  8.50000000E-01  8.50000000E-01  8.50000000E-01  8.50000000E-01  8.50000000E-01
  8.50000000E-01  8.50000000E-01  8.50000000E-01  8.50000000E-01  8.50000000E-01
  8.50000000E-01  8.50000000E-01  8.50000000E-01  8.50000000E-01  8.50000000E-01
  8.50000000E-01  8.50000000E-01  8.50000000E-01  8.50000000E-01  8.50000000E-01
  8.50000000E-01  8.50000000E-01  8.50000000E-01  8.50000000E-01  8.50000000E-01
  8.50000000E-01  8.50000000E-01  8.50000000E-01  8.50000000E-01  8.50000000E-01
  8.50000000E-01  8.50000000E-01  8.50000000E-01  8.50000000E-01  8.50000000E-01
  8.50000000E-01  8.50000000E-01  8.50000000E-01  8.50000000E-01  8.50000000E-01
  8.50000000E-01  8.50000000E-01  8.50000000E-01  8.50000000E-01  8.50000000E-01
  8.50000000E-01  8.50000000E-01  8.50000000E-01  8.50000000E-01  8.50000000E-01
  8.50000000E-01  8.50000000E-01  8.50000000E-01  8.50000000E-01  8.50000000E-01
  8.50000000E-01  8.50000000E-01  8.50000000E-01  8.50000000E-01  8.50000000E-01
  8.50000000E-01  8.50000000E-01  8.50000000E-01  8.50000000E-01  8.50000000E-01
  8.50000000E-01  8.50000000E-01  8.50000000E-01  8.50000000E-01  8.50000000E-01
  8.50000000E-01  8.50000000E-01  8.50000000E-01  8.50000000E-01  8.50000000E-01
  8.50000000E-01  8.50000000E-01  8.50000000E-01  8.50000000E-01  8.50000000E-01
  8.50000000E-01  8.50000000E-01  8.50000000E-01  8.50000000E-01  8.50000000E-01
  8.50000000E-01  8.50000000E-01  8.50000000E-01  8.50000000E-01  8.50000000E-01
  8.50000000E-01  8.50000000E-01  8.50000000E-01  8.50000000E-01  8.50000000E-01
  8.50000000E-01  8.50000000E-01  8.50000000E-01  8.50000000E-01  8.50000000E-01
  8.50000000E-01  8.50000000E-01  8.50000000E-01  8.50000000E-01  8.50000000E-01
  8.50000000E-01  8.50000000E-01  8.50000000E-01  8.50000000E-01  8.50000000E-01
  8.50000000E-01  8.50000000E-01  8.50000000E-01  8.50000000E-01  8.50000000E-01
  8.50000000E-01  8.50000000E-01  8.50000000E-01  8.50000000E-01  8.50000000E-01
  8.50000000E-01  8.50000000E-01  8.50000000E-01  8.50000000E-01  8.50000000E-01
  8.50000000E-01  8.50000000E-01  8.50000000E-01  8.50000000E-01  8.50000000E-01
  8.50000000E-01  8.50000000E-01  8.50000000E-01  8.50000000E-01  8.50000000E-01
  8.50000000E-01  8.50000000E-01  8.50000000E-01  8.50000000E-01  8.50000000E-01
  8.50000000E-01  8.50000000E-01  8.50000000E-01  8.50000000E-01  8.50000000E-01
  8.50000000E-01  8.50000000E-01  8.50000000E-01  8.50000000E-01  8.50000000E-01
  8.50000000E-01  8.50000000E-01  8.50000000E-01  8.50000000E-01  8.50000000E-01
  8.50000000E-01  8.50000000E-01  8.50000000E-01  8.50000000E-01  8.50000000E-01
  8.50000000E-01  8.50000000E-01  8.50000000E-01  8.50000000E-01  8.50000000E-01
  8.50000000E-01  8.50000000E-01  8.50000000E-01  8.50000000E-01  8.50000000E-01
  8.50000000E-01  8.50000000E-01  8.50000000E-01  8.50000000E-01  8.50000000E-01
  8.50000000E-01  8.50000000E-01  8.50000000E-01  8.50000000E-01  8.50000000E-01
  8.50000000E-01  8.50000000E-01  8.50000000E-01  8.50000000E-01  8.50000000E-01
  8.50000000E-01  8.50000000E-01  8.50000000E-01  8.50000000E-01  8.50000000E-01
  8.50000000E-01  8.50000000E-01  8.50000000E-01  8.50000000E-01  8.50000000E-01
  8.50000000E-01  8.50000000E-01  8.50000000E-01  8.50000000E-01  8.50000000E-01
  8.50000000E-01  8.50000000E-01  8.50000000E-01  8.50000000E-01  8.50000000E-01
  8.50000000E-01  8.50000000E-01  8.50000000E-01  8.50000000E-01  8.50000000E-01
  8.50000000E-01  8.50000000E-01  8.50000000E-01  8.50000000E-01  8.50000000E-01
  8.50000000E-01  8.50000000E-01  8.50000000E-01  8.50000000E-01  8.50000000E-01
  8.50000000E-01  8.50000000E-01  8.50000000E-01  8.50000000E-01  8.50000000E-01
  8.50000000E-01  8.50000000E-01  8.50000000E-01  8.50000000E-01  8.50000000E-01
  8.50000000E-01  8.50000000E-01  8.50000000E-01  8.50000000E-01  8.50000000E-01
  8.50000000E-01  8.50000000E-01  8.50000000E-01  8.50000000E-01  8.50000000E-01
  8.50000000E-01  8.50000000E-01  8.50000000E-01  8.50000000E-01  8.50000000E-01
  8.50000000E-01  8.50000000E-01  8.50000000E-01  8.50000000E-01  8.50000000E-01
  8.50000000E-01  8.50000000E-01  8.50000000E-01  8.50000000E-01  8.50000000E-01
  8.50000000E-01  8.50000000E-01  8.50000000E-01  8.50000000E-01  8.50000000E-01
  8.50000000E-01  8.50000000E-01  8.50000000E-01  8.50000000E-01  8.50000000E-01
  8.50000000E-01  8.50000000E-01  8.50000000E-01  8.50000000E-01  8.50000000E-01
  8.50000000E-01  8.50000000E-01  8.50000000E-01  8.50000000E-01  8.50000000E-01
  8.50000000E-01  8.50000000E-01  8.50000000E-01  8.50000000E-01  8.50000000E-01
  8.50000000E-01  8.50000000E-01  8.50000000E-01  8.50000000E-01  8.50000000E-01
  8.50000000E-01  8.50000000E-01  8.50000000E-01  8.50000000E-01  8.50000000E-01
  8.50000000E-01  8.50000000E-01  8.50000000E-01  8.50000000E-01  8.50000000E-01
  8.50000000E-01  8.50000000E-01  8.50000000E-01  8.50000000E-01  8.50000000E-01
  8.50000000E-01  8.50000000E-01  8.50000000E-01  8.50000000E-01  8.50000000E-01
  8.50000000E-01  8.50000000E-01  8.50000000E-01  8.50000000E-01  8.50000000E-01
  8.50000000E-01  8.50000000E-01  8.50000000E-01  8.50000000E-01  8.50000000E-01
  8.50000000E-01  8.50000000E-01  8.50000000E-01  8.50000000E-01  8.50000000E-01
  8.50000000E-01  8.50000000E-01  8.50000000E-01  8.50000000E-01  8.50000000E-01
  8.50000000E-01  8.50000000E-01  8.50000000E-01  8.50000000E-01  8.50000000E-01
  8.50000000E-01  8.50000000E-01  8.50000000E-01  8.50000000E-01  8.50000000E-01
  8.50000000E-01  8.50000000E-01  8.50000000E-01  8.50000000E-01  8.50000000E-01
  8.50000000E-01  8.50000000E-01  8.50000000E-01  8.50000000E-01  8.50000000E-01
  8.50000000E-01  8.50000000E-01  8.50000000E-01  8.50000000E-01  8.50000000E-01
  8.50000000E-01  8.50000000E-01  8.50000000E-01  8.50000000E-01  8.50000000E-01
  8.50000000E-01  8.50000000E-01  8.50000000E-01  8.50000000E-01  8.50000000E-01
  8.50000000E-01  8.50000000E-01  8.50000000E-01  8.50000000E-01  8.50000000E-01
  8.50000000E-01  8.50000000E-01  8.50000000E-01  8.50000000E-01  8.50000000E-01
  8.50000000E-01  8.50000000E-01  8.50000000E-01  8.50000000E-01  8.50000000E-01
  8.50000000E-01  8.50000000E-01  8.50000000E-01  8.50000000E-01  8.50000000E-01
  8.50000000E-01  8.50000000E-01  8.50000000E-01  8.50000000E-01  8.50000000E-01
  8.50000000E-01  8.50000000E-01  8.50000000E-01  8.50000000E-01  8.50000000E-01
  8.50000000E-01  8.50000000E-01  8.50000000E-01  8.50000000E-01  8.50000000E-01
  8.50000000E-01  8.50000000E-01  8.50000000E-01  8.50000000E-01  8.50000000E-01
  8.50000000E-01  8.50000000E-01  8.50000000E-01  8.50000000E-01  8.50000000E-01
  8.50000000E-01  8.50000000E-01  8.50000000E-01  8.50000000E-01  8.50000000E-01
  8.50000000E-01  8.50000000E-01  8.50000000E-01  8.50000000E-01  8.50000000E-01
  8.50000000E-01  8.50000000E-01  8.50000000E-01  8.50000000E-01  8.50000000E-01
  8.50000000E-01  8.50000000E-01  8.50000000E-01  8.50000000E-01  8.50000000E-01
  8.50000000E-01  8.50000000E-01  8.50000000E-01  8.50000000E-01  8.50000000E-01
  8.50000000E-01  8.50000000E-01  8.50000000E-01  8.50000000E-01  8.50000000E-01
  8.50000000E-01  8.50000000E-01  8.50000000E-01  8.50000000E-01  8.50000000E-01
  8.50000000E-01  8.50000000E-01  8.50000000E-01  8.50000000E-01  8.50000000E-01
  8.50000000E-01  8.50000000E-01  8.50000000E-01  8.50000000E-01  8.50000000E-01
  8.50000000E-01  8.50000000E-01  8.50000000E-01  8.50000000E-01  8.50000000E-01
  8.50000000E-01  8.50000000E-01  8.50000000E-01  8.50000000E-01  8.50000000E-01
  8.50000000E-01  8.50000000E-01  8.50000000E-01  8.50000000E-01  8.50000000E-01
  8.50000000E-01  8.50000000E-01  8.50000000E-01  8.50000000E-01  8.50000000E-01
  8.50000000E-01  8.50000000E-01  8.50000000E-01  8.50000000E-01  8.50000000E-01
  8.50000000E-01  8.50000000E-01  8.50000000E-01  8.50000000E-01  8.50000000E-01
  8.50000000E-01  8.50000000E-01  8.50000000E-01  8.50000000E-01  8.50000000E-01
  8.50000000E-01  8.50000000E-01  8.50000000E-01  8.50000000E-01  8.50000000E-01
  8.50000000E-01  8.50000000E-01  8.50000000E-01  8.50000000E-01  8.50000000E-01
  8.50000000E-01  8.50000000E-01  8.50000000E-01  8.50000000E-01  8.50000000E-01
  8.50000000E-01  8.50000000E-01  8.50000000E-01  8.50000000E-01  8.50000000E-01
  8.50000000E-01  8.50000000E-01  8.50000000E-01  8.50000000E-01  8.50000000E-01
  8.50000000E-01  8.50000000E-01  8.50000000E-01  8.50000000E-01  8.50000000E-01
  8.50000000E-01  8.50000000E-01  8.50000000E-01  8.50000000E-01  8.50000000E-01
  8.50000000E-01  8.50000000E-01  8.50000000E-01  8.50000000E-01  8.50000000E-01
  8.50000000E-01  8.50000000E-01  8.50000000E-01  8.50000000E-01  8.50000000E-01
  8.50000000E-01  8.50000000E-01  8.50000000E-01  8.50000000E-01  8.50000000E-01
  8.50000000E-01  8.50000000E-01  8.50000000E-01  8.50000000E-01  8.50000000E-01
  8.50000000E-01  8.50000000E-01  8.50000000E-01  8.50000000E-01  8.50000000E-01
  8.50000000E-01  8.50000000E-01  8.50000000E-01  8.50000000E-01  8.50000000E-01
  8.50000000E-01  8.50000000E-01  8.50000000E-01  8.50000000E-01  8.50000000E-01
  8.50000000E-01  8.50000000E-01  8.50000000E-01  8.50000000E-01  8.50000000E-01
  8.50000000E-01  8.50000000E-01  8.50000000E-01  8.50000000E-01  8.50000000E-01
  8.50000000E-01  8.50000000E-01  8.50000000E-01  8.50000000E-01  8.50000000E-01
  8.50000000E-01  8.50000000E-01  8.50000000E-01  8.50000000E-01  8.50000000E-01
  8.50000000E-01  8.50000000E-01  8.50000000E-01  8.50000000E-01  8.50000000E-01
  8.50000000E-01  8.50000000E-01  8.50000000E-01  8.50000000E-01  8.50000000E-01
  8.50000000E-01  8.50000000E-01  8.50000000E-01  8.50000000E-01  8.50000000E-01
  8.50000000E-01  8.50000000E-01  8.50000000E-01  8.50000000E-01  8.50000000E-01
  8.50000000E-01  8.50000000E-01  8.50000000E-01  8.50000000E-01  8.50000000E-01
  8.50000000E-01  8.50000000E-01  8.50000000E-01  8.50000000E-01  8.50000000E-01
  8.50000000E-01  8.50000000E-01  8.50000000E-01  8.50000000E-01  8.50000000E-01
  8.50000000E-01  8.50000000E-01  8.50000000E-01  8.50000000E-01  8.50000000E-01
  8.50000000E-01  8.50000000E-01  8.50000000E-01  8.50000000E-01  8.50000000E-01
  8.50000000E-01  8.50000000E-01  8.50000000E-01  8.50000000E-01  8.50000000E-01
  8.50000000E-01  8.50000000E-01  8.50000000E-01  8.50000000E-01  8.50000000E-01
  8.50000000E-01  8.50000000E-01  8.50000000E-01  8.50000000E-01  8.50000000E-01
  8.50000000E-01  8.50000000E-01  8.50000000E-01  8.50000000E-01  8.50000000E-01
  8.50000000E-01  8.50000000E-01  8.50000000E-01  8.50000000E-01  8.50000000E-01
  8.50000000E-01  8.50000000E-01  8.50000000E-01  8.50000000E-01  8.50000000E-01
  8.50000000E-01  8.50000000E-01  8.50000000E-01  8.50000000E-01  8.50000000E-01
  8.50000000E-01  8.50000000E-01  8.50000000E-01  8.50000000E-01  8.50000000E-01
  8.50000000E-01  8.50000000E-01  8.50000000E-01  8.50000000E-01  8.50000000E-01
  8.50000000E-01  8.50000000E-01  8.50000000E-01  8.50000000E-01  8.50000000E-01
  8.50000000E-01  8.50000000E-01  8.50000000E-01  8.50000000E-01  8.50000000E-01
  8.50000000E-01  8.50000000E-01  8.50000000E-01  8.50000000E-01  8.50000000E-01
  8.50000000E-01  8.50000000E-01  8.50000000E-01  8.50000000E-01  8.50000000E-01
  8.50000000E-01  8.50000000E-01  8.50000000E-01  8.50000000E-01  8.50000000E-01
  8.50000000E-01  8.50000000E-01  8.50000000E-01  8.50000000E-01  8.50000000E-01
  8.50000000E-01  8.50000000E-01  8.50000000E-01  8.50000000E-01  8.50000000E-01
  8.50000000E-01  8.50000000E-01  8.50000000E-01  8.50000000E-01  8.50000000E-01
  8.50000000E-01  8.50000000E-01  8.50000000E-01  8.50000000E-01  8.50000000E-01
  8.50000000E-01  8.50000000E-01  8.50000000E-01  8.50000000E-01  8.50000000E-01
  8.50000000E-01  8.50000000E-01  8.50000000E-01  8.50000000E-01  8.50000000E-01
  8.50000000E-01  8.50000000E-01  8.50000000E-01  8.50000000E-01  8.50000000E-01
  8.50000000E-01  8.50000000E-01  8.50000000E-01  8.50000000E-01  8.50000000E-01
  8.50000000E-01  8.50000000E-01  8.50000000E-01  8.50000000E-01  8.50000000E-01
  8.50000000E-01  8.50000000E-01  8.50000000E-01  8.50000000E-01  8.50000000E-01
  8.50000000E-01  8.50000000E-01  8.50000000E-01  8.50000000E-01  8.50000000E-01
  8.50000000E-01  8.50000000E-01  8.50000000E-01  8.50000000E-01  8.50000000E-01
  8.50000000E-01  8.50000000E-01  8.50000000E-01  8.50000000E-01  8.50000000E-01
  8.50000000E-01  8.50000000E-01  8.50000000E-01  8.50000000E-01  8.50000000E-01
  8.50000000E-01  8.50000000E-01  8.50000000E-01  8.50000000E-01  8.50000000E-01
  8.50000000E-01  8.50000000E-01  8.50000000E-01  8.50000000E-01  8.50000000E-01
  8.50000000E-01  8.50000000E-01  8.50000000E-01  8.50000000E-01  8.50000000E-01
  8.50000000E-01  8.50000000E-01  8.50000000E-01  8.50000000E-01  8.50000000E-01
  8.50000000E-01  8.50000000E-01  8.50000000E-01  8.50000000E-01  8.50000000E-01
  8.50000000E-01  8.50000000E-01  8.50000000E-01  8.50000000E-01  8.50000000E-01
  8.50000000E-01  8.50000000E-01  8.50000000E-01  8.50000000E-01  8.50000000E-01
  8.50000000E-01  8.50000000E-01  8.50000000E-01  8.50000000E-01  8.50000000E-01
  8.50000000E-01  8.50000000E-01  8.50000000E-01  8.50000000E-01  8.50000000E-01
  8.50000000E-01  8.50000000E-01  8.50000000E-01  8.50000000E-01  8.50000000E-01
  8.50000000E-01  8.50000000E-01  8.50000000E-01  8.50000000E-01  8.50000000E-01
  8.50000000E-01  8.50000000E-01  8.50000000E-01  8.50000000E-01  8.50000000E-01
  8.50000000E-01  8.50000000E-01  8.50000000E-01  8.50000000E-01  8.50000000E-01
  8.50000000E-01  8.50000000E-01  8.50000000E-01  8.50000000E-01  8.50000000E-01
  8.50000000E-01  8.50000000E-01  8.50000000E-01  8.50000000E-01  8.50000000E-01
  8.50000000E-01  8.50000000E-01  8.50000000E-01  8.50000000E-01  8.50000000E-01
  8.50000000E-01  8.50000000E-01  8.50000000E-01  8.50000000E-01  8.50000000E-01
  8.50000000E-01  8.50000000E-01  8.50000000E-01  8.50000000E-01  8.50000000E-01
  8.50000000E-01  8.50000000E-01  8.50000000E-01  8.50000000E-01  8.50000000E-01
  8.50000000E-01  8.50000000E-01  8.50000000E-01  8.50000000E-01  8.50000000E-01
  8.50000000E-01  8.50000000E-01  8.50000000E-01  8.50000000E-01  8.50000000E-01
  8.50000000E-01  8.50000000E-01  8.50000000E-01  8.50000000E-01  8.50000000E-01
  8.50000000E-01  8.50000000E-01  8.50000000E-01  8.50000000E-01  8.50000000E-01
  8.50000000E-01  8.50000000E-01  8.50000000E-01  8.50000000E-01  8.50000000E-01
  8.50000000E-01  8.50000000E-01  8.50000000E-01  8.50000000E-01  8.50000000E-01
  8.50000000E-01  8.50000000E-01  8.50000000E-01  8.50000000E-01  8.50000000E-01
  8.50000000E-01  8.50000000E-01  8.50000000E-01  8.50000000E-01  8.50000000E-01
  8.50000000E-01  8.50000000E-01  8.50000000E-01  8.50000000E-01  8.50000000E-01
  8.50000000E-01  8.50000000E-01  8.50000000E-01  8.50000000E-01  8.50000000E-01
  8.50000000E-01  8.50000000E-01  8.50000000E-01  8.50000000E-01  8.50000000E-01
  8.50000000E-01  8.50000000E-01  8.50000000E-01  8.50000000E-01  8.50000000E-01
  8.50000000E-01  8.50000000E-01  8.50000000E-01  8.50000000E-01  8.50000000E-01
  8.50000000E-01  8.50000000E-01  8.50000000E-01  8.50000000E-01  8.50000000E-01
  8.50000000E-01  8.50000000E-01  8.50000000E-01  8.50000000E-01  8.50000000E-01
  8.50000000E-01  8.50000000E-01  8.50000000E-01  8.50000000E-01  8.50000000E-01
  8.50000000E-01  8.50000000E-01  8.50000000E-01  8.50000000E-01  8.50000000E-01
  8.50000000E-01  8.50000000E-01  8.50000000E-01  8.50000000E-01  8.50000000E-01
  8.50000000E-01  8.50000000E-01  8.50000000E-01  8.50000000E-01  8.50000000E-01
  8.50000000E-01  8.50000000E-01  8.50000000E-01  8.50000000E-01  8.50000000E-01
  8.50000000E-01  8.50000000E-01  8.50000000E-01  8.50000000E-01  8.50000000E-01
  8.50000000E-01  8.50000000E-01  8.50000000E-01  8.50000000E-01  8.50000000E-01
  8.50000000E-01  8.50000000E-01  8.50000000E-01  8.50000000E-01  8.50000000E-01
  8.50000000E-01  8.50000000E-01  8.50000000E-01  8.50000000E-01  8.50000000E-01
  8.50000000E-01  8.50000000E-01  8.50000000E-01  8.50000000E-01  8.50000000E-01
  8.50000000E-01  8.50000000E-01  8.50000000E-01  8.50000000E-01  8.50000000E-01
  8.50000000E-01  8.50000000E-01  8.50000000E-01  8.50000000E-01  8.50000000E-01
  8.50000000E-01  8.50000000E-01  8.50000000E-01  8.50000000E-01  8.50000000E-01
  8.50000000E-01  8.50000000E-01  8.50000000E-01  8.50000000E-01  8.50000000E-01
  8.50000000E-01  8.50000000E-01  8.50000000E-01  8.50000000E-01  8.50000000E-01
  8.50000000E-01  8.50000000E-01  8.50000000E-01  8.50000000E-01  8.50000000E-01
  8.50000000E-01  8.50000000E-01  8.50000000E-01  8.50000000E-01  8.50000000E-01
  8.50000000E-01  8.50000000E-01  8.50000000E-01  8.50000000E-01  8.50000000E-01
  8.50000000E-01  8.50000000E-01  8.50000000E-01  8.50000000E-01  8.50000000E-01
  8.50000000E-01  8.50000000E-01  8.50000000E-01  8.50000000E-01  8.50000000E-01
  8.50000000E-01  8.50000000E-01  8.50000000E-01  8.50000000E-01  8.50000000E-01
  8.50000000E-01  8.50000000E-01  8.50000000E-01  8.50000000E-01  8.50000000E-01
  8.50000000E-01  8.50000000E-01  8.50000000E-01  8.50000000E-01  8.50000000E-01
  8.50000000E-01  8.50000000E-01  8.50000000E-01  8.50000000E-01  8.50000000E-01
  8.50000000E-01  8.50000000E-01  8.50000000E-01  8.50000000E-01  8.50000000E-01
  8.50000000E-01  8.50000000E-01  8.50000000E-01  8.50000000E-01  8.50000000E-01
  8.50000000E-01  8.50000000E-01  8.50000000E-01  8.50000000E-01  8.50000000E-01
  8.50000000E-01  8.50000000E-01  8.50000000E-01  8.50000000E-01  8.50000000E-01
  8.50000000E-01  8.50000000E-01  8.50000000E-01  8.50000000E-01  8.50000000E-01
  8.50000000E-01  8.50000000E-01  8.50000000E-01  8.50000000E-01  8.50000000E-01
  8.50000000E-01  8.50000000E-01  8.50000000E-01  8.50000000E-01  8.50000000E-01
  8.50000000E-01  8.50000000E-01  8.50000000E-01  8.50000000E-01  8.50000000E-01
  8.50000000E-01  8.50000000E-01  8.50000000E-01  8.50000000E-01  8.50000000E-01
  8.50000000E-01  8.50000000E-01  8.50000000E-01  8.50000000E-01  8.50000000E-01
  8.50000000E-01  8.50000000E-01  8.50000000E-01  8.50000000E-01  8.50000000E-01
  8.50000000E-01  8.50000000E-01  8.50000000E-01  8.50000000E-01  8.50000000E-01
  8.50000000E-01  8.50000000E-01  8.50000000E-01  8.50000000E-01  8.50000000E-01
  8.50000000E-01  8.50000000E-01  8.50000000E-01  8.50000000E-01  8.50000000E-01
  8.50000000E-01  8.50000000E-01  8.50000000E-01  8.50000000E-01  8.50000000E-01
  8.50000000E-01  8.50000000E-01  8.50000000E-01  8.50000000E-01  8.50000000E-01
  8.50000000E-01  8.50000000E-01  8.50000000E-01  8.50000000E-01  8.50000000E-01
  8.50000000E-01  8.50000000E-01  8.50000000E-01  8.50000000E-01  8.50000000E-01
  8.50000000E-01  8.50000000E-01  8.50000000E-01  8.50000000E-01  8.50000000E-01
  8.50000000E-01  8.50000000E-01  8.50000000E-01  8.50000000E-01  8.50000000E-01
  8.50000000E-01  8.50000000E-01  8.50000000E-01  8.50000000E-01  8.50000000E-01
  8.50000000E-01  8.50000000E-01  8.50000000E-01  8.50000000E-01  8.50000000E-01
  8.50000000E-01  8.50000000E-01  8.50000000E-01  8.50000000E-01  8.50000000E-01
  8.50000000E-01  8.50000000E-01  8.50000000E-01  8.50000000E-01  8.50000000E-01
  8.50000000E-01  8.50000000E-01  8.50000000E-01  8.50000000E-01  8.50000000E-01
  8.50000000E-01  8.50000000E-01  8.50000000E-01  8.50000000E-01  8.50000000E-01
  8.50000000E-01  8.50000000E-01  8.50000000E-01  8.50000000E-01  8.50000000E-01
  8.50000000E-01  8.50000000E-01  8.50000000E-01  8.50000000E-01  8.50000000E-01
  8.50000000E-01  8.50000000E-01  8.50000000E-01  8.50000000E-01  8.50000000E-01
  8.50000000E-01  8.50000000E-01  8.50000000E-01  8.50000000E-01  8.50000000E-01
  8.50000000E-01  8.50000000E-01  8.50000000E-01  8.50000000E-01  8.50000000E-01
  8.50000000E-01  8.50000000E-01  8.50000000E-01  8.50000000E-01  8.50000000E-01
  8.50000000E-01  8.50000000E-01  8.50000000E-01  8.50000000E-01  8.50000000E-01
  8.50000000E-01  8.50000000E-01  8.50000000E-01  8.50000000E-01  8.50000000E-01
  8.50000000E-01  8.50000000E-01  8.50000000E-01  8.50000000E-01  8.50000000E-01
  8.50000000E-01  8.50000000E-01  8.50000000E-01  8.50000000E-01  8.50000000E-01
  8.50000000E-01  8.50000000E-01  8.50000000E-01  8.50000000E-01  8.50000000E-01
  8.50000000E-01  8.50000000E-01  8.50000000E-01  8.50000000E-01  8.50000000E-01
  8.50000000E-01  8.50000000E-01  8.50000000E-01  8.50000000E-01  8.50000000E-01
  8.50000000E-01  8.50000000E-01  8.50000000E-01  8.50000000E-01  8.50000000E-01
  8.50000000E-01  8.50000000E-01  8.50000000E-01  8.50000000E-01  8.50000000E-01
  8.50000000E-01  8.50000000E-01  8.50000000E-01  8.50000000E-01  8.50000000E-01
  8.50000000E-01  8.50000000E-01  8.50000000E-01  8.50000000E-01  8.50000000E-01
  8.50000000E-01  8.50000000E-01  8.50000000E-01  8.50000000E-01  8.50000000E-01
  8.50000000E-01  8.50000000E-01  8.50000000E-01  8.50000000E-01  8.50000000E-01
  8.50000000E-01  8.50000000E-01  8.50000000E-01  8.50000000E-01  8.50000000E-01
  8.50000000E-01  8.50000000E-01  8.50000000E-01  8.50000000E-01  8.50000000E-01
  8.50000000E-01  8.50000000E-01  8.50000000E-01  8.50000000E-01  8.50000000E-01
  8.50000000E-01  8.50000000E-01  8.50000000E-01  8.50000000E-01  8.50000000E-01
  8.50000000E-01  8.50000000E-01  8.50000000E-01  8.50000000E-01  8.50000000E-01
  8.50000000E-01  8.50000000E-01  8.50000000E-01  8.50000000E-01  8.50000000E-01
  8.50000000E-01  8.50000000E-01  8.50000000E-01  8.50000000E-01  8.50000000E-01
  8.50000000E-01  8.50000000E-01  8.50000000E-01  8.50000000E-01  8.50000000E-01
  8.50000000E-01  8.50000000E-01  8.50000000E-01  8.50000000E-01  8.50000000E-01
  8.50000000E-01  8.50000000E-01  8.50000000E-01  8.50000000E-01  8.50000000E-01
  8.50000000E-01  8.50000000E-01  8.50000000E-01  8.50000000E-01  8.50000000E-01
  8.50000000E-01  8.50000000E-01  8.50000000E-01  8.50000000E-01  8.50000000E-01
  8.50000000E-01  8.50000000E-01  8.50000000E-01  8.50000000E-01  8.50000000E-01
  8.50000000E-01  8.50000000E-01  8.50000000E-01  8.50000000E-01  8.50000000E-01
  8.50000000E-01  8.50000000E-01  8.50000000E-01  8.50000000E-01  8.50000000E-01
  8.50000000E-01  8.50000000E-01  8.50000000E-01  8.50000000E-01  8.50000000E-01
  8.50000000E-01  8.50000000E-01  8.50000000E-01  8.50000000E-01  8.50000000E-01
  8.50000000E-01  8.50000000E-01  8.50000000E-01  8.50000000E-01  8.50000000E-01
  8.50000000E-01  8.50000000E-01  8.50000000E-01  8.50000000E-01  8.50000000E-01
  8.50000000E-01  8.50000000E-01  8.50000000E-01  8.50000000E-01  8.50000000E-01
  8.50000000E-01  8.50000000E-01  8.50000000E-01  8.50000000E-01  8.50000000E-01
  8.50000000E-01  8.50000000E-01  8.50000000E-01  8.50000000E-01  8.50000000E-01
  8.50000000E-01  8.50000000E-01  8.50000000E-01  8.50000000E-01  8.50000000E-01
  8.50000000E-01  8.50000000E-01  8.50000000E-01  8.50000000E-01  8.50000000E-01
  8.50000000E-01  8.50000000E-01  8.50000000E-01  8.50000000E-01  8.50000000E-01
  8.50000000E-01  8.50000000E-01  8.50000000E-01  8.50000000E-01  8.50000000E-01
  8.50000000E-01  8.50000000E-01  8.50000000E-01  8.50000000E-01  8.50000000E-01
  8.50000000E-01  8.50000000E-01  8.50000000E-01  8.50000000E-01  8.50000000E-01
  8.50000000E-01  8.50000000E-01  8.50000000E-01  8.50000000E-01  8.50000000E-01
  8.50000000E-01  8.50000000E-01  8.50000000E-01  8.50000000E-01  8.50000000E-01
  8.50000000E-01  8.50000000E-01  8.50000000E-01  8.50000000E-01  8.50000000E-01
  8.50000000E-01  8.50000000E-01  8.50000000E-01  8.50000000E-01  8.50000000E-01
  8.50000000E-01  8.50000000E-01  8.50000000E-01  8.50000000E-01  8.50000000E-01
  8.50000000E-01  8.50000000E-01  8.50000000E-01  8.50000000E-01  8.50000000E-01
  8.50000000E-01  8.50000000E-01  8.50000000E-01  8.50000000E-01  8.50000000E-01
  8.50000000E-01  8.50000000E-01  8.50000000E-01  8.50000000E-01  8.50000000E-01
  8.50000000E-01  8.50000000E-01  8.50000000E-01  8.50000000E-01  8.50000000E-01
  8.50000000E-01  8.50000000E-01  8.50000000E-01  8.50000000E-01  8.50000000E-01
  8.50000000E-01  8.50000000E-01  8.50000000E-01  8.50000000E-01  8.50000000E-01
  8.50000000E-01  8.50000000E-01  8.50000000E-01  8.50000000E-01  8.50000000E-01
  8.50000000E-01  8.50000000E-01  8.50000000E-01  8.50000000E-01  8.50000000E-01
  8.50000000E-01  8.50000000E-01  8.50000000E-01  8.50000000E-01  8.50000000E-01
  8.50000000E-01  8.50000000E-01  8.50000000E-01  8.50000000E-01  8.50000000E-01
  8.50000000E-01  8.50000000E-01  8.50000000E-01  8.50000000E-01  8.50000000E-01
  8.50000000E-01  8.50000000E-01  8.50000000E-01  8.50000000E-01  8.50000000E-01
  8.50000000E-01  8.50000000E-01  8.50000000E-01  8.50000000E-01  8.50000000E-01
  8.50000000E-01  8.50000000E-01  8.50000000E-01  8.50000000E-01  8.50000000E-01
  8.50000000E-01  8.50000000E-01  8.50000000E-01  8.50000000E-01  8.50000000E-01
  8.50000000E-01  8.50000000E-01  8.50000000E-01  8.50000000E-01  8.50000000E-01
  8.50000000E-01  8.50000000E-01  8.50000000E-01  8.50000000E-01  8.50000000E-01
  8.50000000E-01  8.50000000E-01  8.50000000E-01  8.50000000E-01  8.50000000E-01
  8.50000000E-01  8.50000000E-01  8.50000000E-01  8.50000000E-01  8.50000000E-01
  8.50000000E-01  8.50000000E-01  8.50000000E-01  8.50000000E-01  8.50000000E-01
  8.50000000E-01  8.50000000E-01  8.50000000E-01  8.50000000E-01  8.50000000E-01
  8.50000000E-01  8.50000000E-01  8.50000000E-01  8.50000000E-01  8.50000000E-01
  8.50000000E-01  8.50000000E-01  8.50000000E-01  8.50000000E-01  8.50000000E-01
  8.50000000E-01  8.50000000E-01  8.50000000E-01  8.50000000E-01  8.50000000E-01
  8.50000000E-01  8.50000000E-01  8.50000000E-01  8.50000000E-01  8.50000000E-01
  8.50000000E-01  8.50000000E-01  8.50000000E-01  8.50000000E-01  8.50000000E-01
  8.50000000E-01  8.50000000E-01  8.50000000E-01  8.50000000E-01  8.50000000E-01
  8.50000000E-01  8.50000000E-01  8.50000000E-01  8.50000000E-01  8.50000000E-01
  8.50000000E-01  8.50000000E-01  8.50000000E-01  8.50000000E-01  8.50000000E-01
  8.50000000E-01  8.50000000E-01  8.50000000E-01  8.50000000E-01  8.50000000E-01
  8.50000000E-01  8.50000000E-01  8.50000000E-01  8.50000000E-01  8.50000000E-01
  8.50000000E-01  8.50000000E-01  8.50000000E-01  8.50000000E-01  8.50000000E-01
  8.50000000E-01  8.50000000E-01  8.50000000E-01  8.50000000E-01  8.50000000E-01
  8.50000000E-01  8.50000000E-01  8.50000000E-01  8.50000000E-01  8.50000000E-01
  8.50000000E-01  8.50000000E-01  8.50000000E-01  8.50000000E-01  8.50000000E-01
  8.50000000E-01  8.50000000E-01  8.50000000E-01  8.50000000E-01  8.50000000E-01
  8.50000000E-01  8.50000000E-01  8.50000000E-01  8.50000000E-01  8.50000000E-01
  8.50000000E-01  8.50000000E-01  8.50000000E-01  8.50000000E-01  8.50000000E-01
  8.50000000E-01  8.50000000E-01  8.50000000E-01  8.50000000E-01  8.50000000E-01
  8.50000000E-01  8.50000000E-01  8.50000000E-01  8.50000000E-01  8.50000000E-01
  8.50000000E-01  8.50000000E-01  8.50000000E-01  8.50000000E-01  8.50000000E-01
  8.50000000E-01  8.50000000E-01  8.50000000E-01  8.50000000E-01  8.50000000E-01
  8.50000000E-01  8.50000000E-01  8.50000000E-01  8.50000000E-01  8.50000000E-01
  8.50000000E-01  8.50000000E-01  8.50000000E-01  8.50000000E-01  8.50000000E-01
  8.50000000E-01  8.50000000E-01  8.50000000E-01  8.50000000E-01  8.50000000E-01
  8.50000000E-01  8.50000000E-01  8.50000000E-01  8.50000000E-01  8.50000000E-01
  8.50000000E-01  8.50000000E-01  8.50000000E-01  8.50000000E-01  8.50000000E-01
  8.50000000E-01  8.50000000E-01  8.50000000E-01  8.50000000E-01  8.50000000E-01
  8.50000000E-01  8.50000000E-01  8.50000000E-01  8.50000000E-01  8.50000000E-01
  8.50000000E-01  8.50000000E-01  8.50000000E-01  8.50000000E-01  8.50000000E-01
  8.50000000E-01  8.50000000E-01  8.50000000E-01  8.50000000E-01  8.50000000E-01
  8.50000000E-01  8.50000000E-01  8.50000000E-01  8.50000000E-01  8.50000000E-01
  8.50000000E-01  8.50000000E-01  8.50000000E-01  8.50000000E-01  8.50000000E-01
  8.50000000E-01  8.50000000E-01  8.50000000E-01  8.50000000E-01  8.50000000E-01
  8.50000000E-01  8.50000000E-01  8.50000000E-01  8.50000000E-01  8.50000000E-01
  8.50000000E-01  8.50000000E-01  8.50000000E-01  8.50000000E-01  8.50000000E-01
  8.50000000E-01  8.50000000E-01  8.50000000E-01  8.50000000E-01  8.50000000E-01
  8.50000000E-01  8.50000000E-01  8.50000000E-01  8.50000000E-01  8.50000000E-01
  8.50000000E-01  8.50000000E-01  8.50000000E-01  8.50000000E-01  8.50000000E-01
  8.50000000E-01  8.50000000E-01  8.50000000E-01  8.50000000E-01  8.50000000E-01
  8.50000000E-01  8.50000000E-01  8.50000000E-01  8.50000000E-01  8.50000000E-01
  8.50000000E-01  8.50000000E-01  8.50000000E-01  8.50000000E-01  8.50000000E-01
  8.50000000E-01  8.50000000E-01  8.50000000E-01  8.50000000E-01  8.50000000E-01
  8.50000000E-01  8.50000000E-01  8.50000000E-01  8.50000000E-01  8.50000000E-01
  8.50000000E-01  8.50000000E-01  8.50000000E-01  8.50000000E-01  8.50000000E-01
  8.50000000E-01  8.50000000E-01  8.50000000E-01  8.50000000E-01  8.50000000E-01
  8.50000000E-01  8.50000000E-01  8.50000000E-01  8.50000000E-01  8.50000000E-01
  8.50000000E-01  8.50000000E-01  8.50000000E-01  8.50000000E-01  8.50000000E-01
  8.50000000E-01  8.50000000E-01  8.50000000E-01  8.50000000E-01  8.50000000E-01
  8.50000000E-01  8.50000000E-01  8.50000000E-01  8.50000000E-01  8.50000000E-01
  8.50000000E-01  8.50000000E-01  8.50000000E-01  8.50000000E-01  8.50000000E-01
  8.50000000E-01  8.50000000E-01  8.50000000E-01  8.50000000E-01  8.50000000E-01
  8.50000000E-01  8.50000000E-01  8.50000000E-01  8.50000000E-01  8.50000000E-01
  8.50000000E-01  8.50000000E-01  8.50000000E-01  8.50000000E-01  8.50000000E-01
  8.50000000E-01  8.50000000E-01  8.50000000E-01  8.50000000E-01  8.50000000E-01
  8.50000000E-01  8.50000000E-01  8.50000000E-01  8.50000000E-01  8.50000000E-01
  8.50000000E-01  8.50000000E-01  8.50000000E-01  8.50000000E-01  8.50000000E-01
  8.50000000E-01  8.50000000E-01  8.50000000E-01  8.50000000E-01  8.50000000E-01
  8.50000000E-01  8.50000000E-01  8.50000000E-01  8.50000000E-01  8.50000000E-01
  8.50000000E-01  8.50000000E-01  8.50000000E-01  8.50000000E-01  8.50000000E-01
  8.50000000E-01  8.50000000E-01  8.50000000E-01  8.50000000E-01  8.50000000E-01
  8.50000000E-01  8.50000000E-01  8.50000000E-01  8.50000000E-01  8.50000000E-01
  8.50000000E-01  8.50000000E-01  8.50000000E-01  8.50000000E-01  8.50000000E-01
  8.50000000E-01  8.50000000E-01  8.50000000E-01  8.50000000E-01  8.50000000E-01
  8.50000000E-01  8.50000000E-01  8.50000000E-01  8.50000000E-01  8.50000000E-01
  8.50000000E-01  8.50000000E-01  8.50000000E-01  8.50000000E-01  8.50000000E-01
  8.50000000E-01  8.50000000E-01  8.50000000E-01  8.50000000E-01  8.50000000E-01
  8.50000000E-01  8.50000000E-01  8.50000000E-01  8.50000000E-01  8.50000000E-01
  8.50000000E-01  8.50000000E-01  8.50000000E-01  8.50000000E-01  8.50000000E-01
  8.50000000E-01  8.50000000E-01  8.50000000E-01  8.50000000E-01  8.50000000E-01
  8.50000000E-01  8.50000000E-01  8.50000000E-01  8.50000000E-01  8.50000000E-01
  8.50000000E-01  8.50000000E-01  8.50000000E-01  8.50000000E-01  8.50000000E-01
  8.50000000E-01  8.50000000E-01  8.50000000E-01  8.50000000E-01  8.50000000E-01
  8.50000000E-01  8.50000000E-01  8.50000000E-01  8.50000000E-01  8.50000000E-01
  8.50000000E-01  8.50000000E-01  8.50000000E-01  8.50000000E-01  8.50000000E-01
  8.50000000E-01  8.50000000E-01  8.50000000E-01  8.50000000E-01  8.50000000E-01
  8.50000000E-01  8.50000000E-01  8.50000000E-01  8.50000000E-01  8.50000000E-01
  8.50000000E-01  8.50000000E-01  8.50000000E-01  8.50000000E-01  8.50000000E-01
  8.50000000E-01  8.50000000E-01  8.50000000E-01  8.50000000E-01  8.50000000E-01
  8.50000000E-01  8.50000000E-01  8.50000000E-01  8.50000000E-01  8.50000000E-01
  8.50000000E-01  8.50000000E-01  8.50000000E-01  8.50000000E-01  8.50000000E-01
  8.50000000E-01  8.50000000E-01  8.50000000E-01  8.50000000E-01  8.50000000E-01
  8.50000000E-01  8.50000000E-01  8.50000000E-01  8.50000000E-01  8.50000000E-01
  8.50000000E-01  8.50000000E-01  8.50000000E-01  8.50000000E-01  8.50000000E-01
  8.50000000E-01  8.50000000E-01  8.50000000E-01  8.50000000E-01  8.50000000E-01
  8.50000000E-01  8.50000000E-01  8.50000000E-01  8.50000000E-01  8.50000000E-01
  8.50000000E-01  8.50000000E-01  8.50000000E-01  8.50000000E-01  8.50000000E-01
  8.50000000E-01  8.50000000E-01  8.50000000E-01  8.50000000E-01  8.50000000E-01
  8.50000000E-01  8.50000000E-01  8.50000000E-01  8.50000000E-01  8.50000000E-01
  8.50000000E-01  8.50000000E-01  8.50000000E-01  8.50000000E-01  8.50000000E-01
  8.50000000E-01  8.50000000E-01  8.50000000E-01  8.50000000E-01  8.50000000E-01
  8.50000000E-01  8.50000000E-01  8.50000000E-01  8.50000000E-01  8.50000000E-01
  8.50000000E-01  8.50000000E-01  8.50000000E-01  8.50000000E-01  8.50000000E-01
  8.50000000E-01  8.50000000E-01  8.50000000E-01  8.50000000E-01  8.50000000E-01
  8.50000000E-01  8.50000000E-01  8.50000000E-01  8.50000000E-01  8.50000000E-01
  8.50000000E-01  8.50000000E-01  8.50000000E-01  8.50000000E-01  8.50000000E-01
  8.50000000E-01  8.50000000E-01  8.50000000E-01  8.50000000E-01  8.50000000E-01
  8.50000000E-01  8.50000000E-01  8.50000000E-01  8.50000000E-01  8.50000000E-01
  8.50000000E-01  8.50000000E-01  8.50000000E-01  8.50000000E-01  8.50000000E-01
  8.50000000E-01  8.50000000E-01  8.50000000E-01  8.50000000E-01  8.50000000E-01
  8.50000000E-01  8.50000000E-01  8.50000000E-01  8.50000000E-01  8.50000000E-01
  8.50000000E-01  8.50000000E-01  8.50000000E-01  8.50000000E-01  8.50000000E-01
  8.50000000E-01  8.50000000E-01  8.50000000E-01  8.50000000E-01  8.50000000E-01
  8.50000000E-01  8.50000000E-01  8.50000000E-01  8.50000000E-01  8.50000000E-01
  8.50000000E-01  8.50000000E-01  8.50000000E-01  8.50000000E-01  8.50000000E-01
  8.50000000E-01  8.50000000E-01  8.50000000E-01  8.50000000E-01  8.50000000E-01
  8.50000000E-01  8.50000000E-01  8.50000000E-01  8.50000000E-01  8.50000000E-01
  8.50000000E-01  8.50000000E-01  8.50000000E-01  8.50000000E-01  8.50000000E-01
  8.50000000E-01  8.50000000E-01  8.50000000E-01  8.50000000E-01  8.50000000E-01
  8.50000000E-01  8.50000000E-01  8.50000000E-01  8.50000000E-01  8.50000000E-01
  8.50000000E-01  8.50000000E-01  8.50000000E-01  8.50000000E-01  8.50000000E-01
  8.50000000E-01  8.50000000E-01  8.50000000E-01  8.50000000E-01  8.50000000E-01
  8.50000000E-01  8.50000000E-01  8.50000000E-01  8.50000000E-01  8.50000000E-01
  8.50000000E-01  8.50000000E-01  8.50000000E-01  8.50000000E-01  8.50000000E-01
  8.50000000E-01  8.50000000E-01  8.50000000E-01  8.50000000E-01  8.50000000E-01
  8.50000000E-01  8.50000000E-01  8.50000000E-01  8.50000000E-01  8.50000000E-01
  8.50000000E-01  8.50000000E-01  8.50000000E-01  8.50000000E-01  8.50000000E-01
  8.50000000E-01  8.50000000E-01  8.50000000E-01  8.50000000E-01  8.50000000E-01
  8.50000000E-01  8.50000000E-01  8.50000000E-01  8.50000000E-01  8.50000000E-01
  8.50000000E-01  8.50000000E-01  8.50000000E-01  8.50000000E-01  8.50000000E-01
  8.50000000E-01  8.50000000E-01  8.50000000E-01  8.50000000E-01  8.50000000E-01
  8.50000000E-01  8.50000000E-01  8.50000000E-01  8.50000000E-01  8.50000000E-01
  8.50000000E-01  8.50000000E-01  8.50000000E-01  8.50000000E-01  8.50000000E-01
  8.50000000E-01  8.50000000E-01  8.50000000E-01  8.50000000E-01  8.50000000E-01
  8.50000000E-01  8.50000000E-01  8.50000000E-01  8.50000000E-01  8.50000000E-01
  8.50000000E-01  8.50000000E-01  8.50000000E-01  8.50000000E-01  8.50000000E-01
  8.50000000E-01  8.50000000E-01  8.50000000E-01  8.50000000E-01  8.50000000E-01
  8.50000000E-01  8.50000000E-01  8.50000000E-01  8.50000000E-01  8.50000000E-01
  8.50000000E-01  8.50000000E-01  8.50000000E-01  8.50000000E-01  8.50000000E-01
  8.50000000E-01  8.50000000E-01  8.50000000E-01  8.50000000E-01  8.50000000E-01
  8.50000000E-01  8.50000000E-01  8.50000000E-01  8.50000000E-01  8.50000000E-01
  8.50000000E-01  8.50000000E-01  8.50000000E-01  8.50000000E-01  8.50000000E-01
  8.50000000E-01  8.50000000E-01  8.50000000E-01  8.50000000E-01  8.50000000E-01
  8.50000000E-01  8.50000000E-01  8.50000000E-01  8.50000000E-01  8.50000000E-01
  8.50000000E-01  8.50000000E-01  8.50000000E-01  8.50000000E-01  8.50000000E-01
  8.50000000E-01  8.50000000E-01  8.50000000E-01  8.50000000E-01  8.50000000E-01
  8.50000000E-01  8.50000000E-01  8.50000000E-01  8.50000000E-01  8.50000000E-01
  8.50000000E-01  8.50000000E-01  8.50000000E-01  8.50000000E-01  8.50000000E-01
  8.50000000E-01  8.50000000E-01  8.50000000E-01  8.50000000E-01  8.50000000E-01
  8.50000000E-01  8.50000000E-01  8.50000000E-01  8.50000000E-01  8.50000000E-01
  8.50000000E-01  8.50000000E-01  8.50000000E-01  8.50000000E-01  8.50000000E-01
  8.50000000E-01  8.50000000E-01  8.50000000E-01  8.50000000E-01  8.50000000E-01
  8.50000000E-01  8.50000000E-01  8.50000000E-01  8.50000000E-01  8.50000000E-01
  8.50000000E-01  8.50000000E-01  8.50000000E-01  8.50000000E-01  8.50000000E-01
  8.50000000E-01  8.50000000E-01  8.50000000E-01  8.50000000E-01  8.50000000E-01
  8.50000000E-01  8.50000000E-01  8.50000000E-01  8.50000000E-01  8.50000000E-01
  8.50000000E-01  8.50000000E-01  8.50000000E-01  8.50000000E-01  8.50000000E-01
  8.50000000E-01  8.50000000E-01  8.50000000E-01  8.50000000E-01  8.50000000E-01
  8.50000000E-01  8.50000000E-01  8.50000000E-01  8.50000000E-01  8.50000000E-01
  8.50000000E-01  8.50000000E-01  8.50000000E-01  8.50000000E-01  8.50000000E-01
  8.50000000E-01  8.50000000E-01  8.50000000E-01  8.50000000E-01  8.50000000E-01
  8.50000000E-01  8.50000000E-01  8.50000000E-01  8.50000000E-01  8.50000000E-01
  8.50000000E-01  8.50000000E-01  8.50000000E-01  8.50000000E-01  8.50000000E-01
  8.50000000E-01  8.50000000E-01  8.50000000E-01  8.50000000E-01  8.50000000E-01
  8.50000000E-01  8.50000000E-01  8.50000000E-01  8.50000000E-01  8.50000000E-01
  8.50000000E-01  8.50000000E-01  8.50000000E-01  8.50000000E-01  8.50000000E-01
  8.50000000E-01  8.50000000E-01  8.50000000E-01  8.50000000E-01  8.50000000E-01
  8.50000000E-01  8.50000000E-01  8.50000000E-01  8.50000000E-01  8.50000000E-01
  8.50000000E-01  8.50000000E-01  8.50000000E-01  8.50000000E-01  8.50000000E-01
  8.50000000E-01  8.50000000E-01  8.50000000E-01  8.50000000E-01  8.50000000E-01
  8.50000000E-01  8.50000000E-01  8.50000000E-01  8.50000000E-01  8.50000000E-01
  8.50000000E-01  8.50000000E-01  8.50000000E-01  8.50000000E-01  8.50000000E-01
  8.50000000E-01  8.50000000E-01  8.50000000E-01  8.50000000E-01  8.50000000E-01
  8.50000000E-01  8.50000000E-01  8.50000000E-01  8.50000000E-01  8.50000000E-01
  8.50000000E-01  8.50000000E-01  8.50000000E-01  8.50000000E-01  8.50000000E-01
  8.50000000E-01  8.50000000E-01  8.50000000E-01  8.50000000E-01  8.50000000E-01
  8.50000000E-01  8.50000000E-01  8.50000000E-01  8.50000000E-01  8.50000000E-01
  8.50000000E-01  8.50000000E-01  8.50000000E-01  8.50000000E-01  8.50000000E-01
  8.50000000E-01  8.50000000E-01  8.50000000E-01  8.50000000E-01  8.50000000E-01
  8.50000000E-01  8.50000000E-01  8.50000000E-01  8.50000000E-01  8.50000000E-01
  8.50000000E-01  8.50000000E-01  8.50000000E-01  8.50000000E-01  8.50000000E-01
  8.50000000E-01  8.50000000E-01  8.50000000E-01  8.50000000E-01  8.50000000E-01
  8.50000000E-01  8.50000000E-01  8.50000000E-01  8.50000000E-01  8.50000000E-01
  8.50000000E-01  8.50000000E-01  8.50000000E-01  8.50000000E-01  8.50000000E-01
  8.50000000E-01  8.50000000E-01  8.50000000E-01  8.50000000E-01  8.50000000E-01
  8.50000000E-01  8.50000000E-01  8.50000000E-01  8.50000000E-01  8.50000000E-01
  8.50000000E-01  8.50000000E-01  8.50000000E-01  8.50000000E-01  8.50000000E-01
  8.50000000E-01  8.50000000E-01  8.50000000E-01  8.50000000E-01  8.50000000E-01
  8.50000000E-01  8.50000000E-01  8.50000000E-01  8.50000000E-01  8.50000000E-01
  8.50000000E-01  8.50000000E-01  8.50000000E-01  8.50000000E-01  8.50000000E-01
  8.50000000E-01  8.50000000E-01  8.50000000E-01  8.50000000E-01  8.50000000E-01
  8.50000000E-01  8.50000000E-01  8.50000000E-01  8.50000000E-01  8.50000000E-01
  8.50000000E-01  8.50000000E-01  8.50000000E-01  8.50000000E-01  8.50000000E-01
  8.50000000E-01  8.50000000E-01  8.50000000E-01  8.50000000E-01  8.50000000E-01
  8.50000000E-01  8.50000000E-01  8.50000000E-01  8.50000000E-01  8.50000000E-01
  8.50000000E-01  8.50000000E-01  8.50000000E-01  8.50000000E-01  8.50000000E-01
  8.50000000E-01  8.50000000E-01  8.50000000E-01  8.50000000E-01  8.50000000E-01
  8.50000000E-01  8.50000000E-01  8.50000000E-01  8.50000000E-01  8.50000000E-01
  8.50000000E-01  8.50000000E-01  8.50000000E-01  8.50000000E-01  8.50000000E-01
  8.50000000E-01  8.50000000E-01  8.50000000E-01  8.50000000E-01  8.50000000E-01
  8.50000000E-01  8.50000000E-01  8.50000000E-01  8.50000000E-01  8.50000000E-01
  8.50000000E-01  8.50000000E-01  8.50000000E-01  8.50000000E-01  8.50000000E-01
  8.50000000E-01  8.50000000E-01  8.50000000E-01  8.50000000E-01  8.50000000E-01
  8.50000000E-01  8.50000000E-01  8.50000000E-01  8.50000000E-01  8.50000000E-01
  8.50000000E-01  8.50000000E-01  8.50000000E-01  8.50000000E-01  8.50000000E-01
  8.50000000E-01  8.50000000E-01  8.50000000E-01  8.50000000E-01  8.50000000E-01
  8.50000000E-01  8.50000000E-01  8.50000000E-01  8.50000000E-01  8.50000000E-01
  8.50000000E-01  8.50000000E-01  8.50000000E-01  8.50000000E-01  8.50000000E-01
  8.50000000E-01  8.50000000E-01  8.50000000E-01  8.50000000E-01  8.50000000E-01
  8.50000000E-01  8.50000000E-01  8.50000000E-01  8.50000000E-01  8.50000000E-01
  8.50000000E-01  8.50000000E-01  8.50000000E-01  8.50000000E-01  8.50000000E-01
  8.50000000E-01  8.50000000E-01  8.50000000E-01  8.50000000E-01  8.50000000E-01
  8.50000000E-01  8.50000000E-01  8.50000000E-01  8.50000000E-01  8.50000000E-01
  8.50000000E-01  8.50000000E-01  8.50000000E-01  8.50000000E-01  8.50000000E-01
  8.50000000E-01  8.50000000E-01  8.50000000E-01  8.50000000E-01  8.50000000E-01
  8.50000000E-01  8.50000000E-01  8.50000000E-01  8.50000000E-01  8.50000000E-01
  8.50000000E-01  8.50000000E-01  8.50000000E-01  8.50000000E-01  8.50000000E-01
  8.50000000E-01  8.50000000E-01  8.50000000E-01  8.50000000E-01  8.50000000E-01
  8.50000000E-01  8.50000000E-01  8.50000000E-01  8.50000000E-01  8.50000000E-01
  8.50000000E-01  8.50000000E-01  8.50000000E-01  8.50000000E-01  8.50000000E-01
  8.50000000E-01  8.50000000E-01  8.50000000E-01  8.50000000E-01  8.50000000E-01
  8.50000000E-01  8.50000000E-01  8.50000000E-01  8.50000000E-01  8.50000000E-01
  8.50000000E-01  8.50000000E-01  8.50000000E-01  8.50000000E-01  8.50000000E-01
  8.50000000E-01  8.50000000E-01  8.50000000E-01  8.50000000E-01  8.50000000E-01
  8.50000000E-01  8.50000000E-01  8.50000000E-01  8.50000000E-01  8.50000000E-01
  8.50000000E-01  8.50000000E-01  8.50000000E-01  8.50000000E-01  8.50000000E-01
  8.50000000E-01  8.50000000E-01  8.50000000E-01  8.50000000E-01  8.50000000E-01
  8.50000000E-01  8.50000000E-01  8.50000000E-01  8.50000000E-01  8.50000000E-01
  8.50000000E-01  8.50000000E-01  8.50000000E-01  8.50000000E-01  8.50000000E-01
  8.50000000E-01  8.50000000E-01  8.50000000E-01  8.50000000E-01  8.50000000E-01
  8.50000000E-01  8.50000000E-01  8.50000000E-01  8.50000000E-01  8.50000000E-01
  8.50000000E-01  8.50000000E-01  8.50000000E-01  8.50000000E-01  8.50000000E-01
  8.50000000E-01  8.50000000E-01  8.50000000E-01  8.50000000E-01  8.50000000E-01
  8.50000000E-01  8.50000000E-01  8.50000000E-01  8.50000000E-01  8.50000000E-01
  8.50000000E-01  8.50000000E-01  8.50000000E-01  8.50000000E-01  8.50000000E-01
  8.50000000E-01  8.50000000E-01  8.50000000E-01  8.50000000E-01  8.50000000E-01
  8.50000000E-01  8.50000000E-01  8.50000000E-01  8.50000000E-01  8.50000000E-01
  8.50000000E-01  8.50000000E-01  8.50000000E-01  8.50000000E-01  8.50000000E-01
  8.50000000E-01  8.50000000E-01  8.50000000E-01  8.50000000E-01  8.50000000E-01
  8.50000000E-01  8.50000000E-01  8.50000000E-01  8.50000000E-01  8.50000000E-01
  8.50000000E-01  8.50000000E-01  8.50000000E-01  8.50000000E-01  8.50000000E-01
  8.50000000E-01  8.50000000E-01  8.50000000E-01  8.50000000E-01  8.50000000E-01
  8.50000000E-01  8.50000000E-01  8.50000000E-01  8.50000000E-01  8.50000000E-01
  8.50000000E-01  8.50000000E-01  8.50000000E-01  8.50000000E-01  8.50000000E-01
  8.50000000E-01  8.50000000E-01  8.50000000E-01  8.50000000E-01  8.50000000E-01
  8.50000000E-01  8.50000000E-01  8.50000000E-01  8.50000000E-01  8.50000000E-01
  8.50000000E-01  8.50000000E-01  8.50000000E-01  8.50000000E-01  8.50000000E-01
  8.50000000E-01  8.50000000E-01  8.50000000E-01  8.50000000E-01  8.50000000E-01
  8.50000000E-01  8.50000000E-01  8.50000000E-01  8.50000000E-01  8.50000000E-01
  8.50000000E-01  8.50000000E-01  8.50000000E-01  8.50000000E-01  8.50000000E-01
  8.50000000E-01  8.50000000E-01  8.50000000E-01  8.50000000E-01  8.50000000E-01
  8.50000000E-01  8.50000000E-01  8.50000000E-01  8.50000000E-01  8.50000000E-01
  8.50000000E-01  8.50000000E-01  8.50000000E-01  8.50000000E-01  8.50000000E-01
  8.50000000E-01  8.50000000E-01  8.50000000E-01  8.50000000E-01  8.50000000E-01
  8.50000000E-01  8.50000000E-01  8.50000000E-01  8.50000000E-01  8.50000000E-01
  8.50000000E-01  8.50000000E-01  8.50000000E-01  8.50000000E-01  8.50000000E-01
  8.50000000E-01  8.50000000E-01  8.50000000E-01  8.50000000E-01  8.50000000E-01
  8.50000000E-01  8.50000000E-01  8.50000000E-01  8.50000000E-01  8.50000000E-01
  8.50000000E-01  8.50000000E-01  8.50000000E-01  8.50000000E-01  8.50000000E-01
  8.50000000E-01  8.50000000E-01  8.50000000E-01  8.50000000E-01  8.50000000E-01
  8.50000000E-01  8.50000000E-01  8.50000000E-01  8.50000000E-01  8.50000000E-01
  8.50000000E-01  8.50000000E-01  8.50000000E-01  8.50000000E-01  8.50000000E-01
  8.50000000E-01  8.50000000E-01  8.50000000E-01  8.50000000E-01  8.50000000E-01
  8.50000000E-01  8.50000000E-01  8.50000000E-01  8.50000000E-01  8.50000000E-01
  8.50000000E-01  8.50000000E-01  8.50000000E-01  8.50000000E-01  8.50000000E-01
  8.50000000E-01  8.50000000E-01  8.50000000E-01  8.50000000E-01  8.50000000E-01
  8.50000000E-01  8.50000000E-01  8.50000000E-01  8.50000000E-01  8.50000000E-01
  8.50000000E-01  8.50000000E-01  8.50000000E-01  8.50000000E-01  8.50000000E-01
  8.50000000E-01  8.50000000E-01  8.50000000E-01  8.50000000E-01  8.50000000E-01
  8.50000000E-01  8.50000000E-01  8.50000000E-01  8.50000000E-01  8.50000000E-01
  8.50000000E-01  8.50000000E-01  8.50000000E-01  8.50000000E-01  8.50000000E-01
  8.50000000E-01  8.50000000E-01  8.50000000E-01  8.50000000E-01  8.50000000E-01
  8.50000000E-01  8.50000000E-01  8.50000000E-01  8.50000000E-01  8.50000000E-01
  8.50000000E-01  8.50000000E-01  8.50000000E-01  8.50000000E-01  8.50000000E-01
  8.50000000E-01  8.50000000E-01  8.50000000E-01  8.50000000E-01  8.50000000E-01
  8.50000000E-01  8.50000000E-01  8.50000000E-01  8.50000000E-01  8.50000000E-01
  8.50000000E-01  8.50000000E-01  8.50000000E-01  8.50000000E-01  8.50000000E-01
  8.50000000E-01  8.50000000E-01  8.50000000E-01  8.50000000E-01  8.50000000E-01
  8.50000000E-01  8.50000000E-01  8.50000000E-01  8.50000000E-01  8.50000000E-01
  8.50000000E-01  8.50000000E-01  8.50000000E-01  8.50000000E-01  8.50000000E-01
  8.50000000E-01  8.50000000E-01  8.50000000E-01  8.50000000E-01  8.50000000E-01
  8.50000000E-01  8.50000000E-01  8.50000000E-01  8.50000000E-01  8.50000000E-01
  8.50000000E-01  8.50000000E-01  8.50000000E-01  8.50000000E-01  8.50000000E-01
  8.50000000E-01  8.50000000E-01  8.50000000E-01  8.50000000E-01  8.50000000E-01
  8.50000000E-01  8.50000000E-01  8.50000000E-01  8.50000000E-01  8.50000000E-01
  8.50000000E-01  8.50000000E-01  8.50000000E-01  8.50000000E-01  8.50000000E-01
  8.50000000E-01  8.50000000E-01  8.50000000E-01  8.50000000E-01  8.50000000E-01
  8.50000000E-01  8.50000000E-01  8.50000000E-01  8.50000000E-01  8.50000000E-01
  8.50000000E-01  8.50000000E-01  8.50000000E-01  8.50000000E-01  8.50000000E-01
  8.50000000E-01  8.50000000E-01  8.50000000E-01  8.50000000E-01  8.50000000E-01
  8.50000000E-01  8.50000000E-01  8.50000000E-01  8.50000000E-01  8.50000000E-01
  8.50000000E-01  8.50000000E-01  8.50000000E-01  8.50000000E-01  8.50000000E-01
  8.50000000E-01  8.50000000E-01  8.50000000E-01  8.50000000E-01  8.50000000E-01
  8.50000000E-01  8.50000000E-01  8.50000000E-01  8.50000000E-01  8.50000000E-01
  8.50000000E-01  8.50000000E-01  8.50000000E-01  8.50000000E-01  8.50000000E-01
  8.50000000E-01  8.50000000E-01  8.50000000E-01  8.50000000E-01  8.50000000E-01
  8.50000000E-01  8.50000000E-01  8.50000000E-01  8.50000000E-01  8.50000000E-01
  8.50000000E-01  8.50000000E-01  8.50000000E-01  8.50000000E-01  8.50000000E-01
  8.50000000E-01  8.50000000E-01  8.50000000E-01  8.50000000E-01  8.50000000E-01
  8.50000000E-01  8.50000000E-01  8.50000000E-01  8.50000000E-01  8.50000000E-01
  8.50000000E-01  8.50000000E-01  8.50000000E-01  8.50000000E-01  8.50000000E-01
  8.50000000E-01  8.50000000E-01  8.50000000E-01  8.50000000E-01  8.50000000E-01
  8.50000000E-01  8.50000000E-01  8.50000000E-01  8.50000000E-01  8.50000000E-01
  8.50000000E-01  8.50000000E-01  8.50000000E-01  8.50000000E-01  8.50000000E-01
  8.50000000E-01  8.50000000E-01  8.50000000E-01  8.50000000E-01  8.50000000E-01
  8.50000000E-01  8.50000000E-01  8.50000000E-01  8.50000000E-01  8.50000000E-01
  8.50000000E-01  8.50000000E-01  8.50000000E-01  8.50000000E-01  8.50000000E-01
  8.50000000E-01  8.50000000E-01  8.50000000E-01  8.50000000E-01  8.50000000E-01
  8.50000000E-01  8.50000000E-01  8.50000000E-01  8.50000000E-01  8.50000000E-01
  8.50000000E-01  8.50000000E-01  8.50000000E-01  8.50000000E-01  8.50000000E-01
  8.50000000E-01  8.50000000E-01  8.50000000E-01  8.50000000E-01  8.50000000E-01
  8.50000000E-01  8.50000000E-01  8.50000000E-01  8.50000000E-01  8.50000000E-01
  8.50000000E-01  8.50000000E-01  8.50000000E-01  8.50000000E-01  8.50000000E-01
  8.50000000E-01  8.50000000E-01  8.50000000E-01  8.50000000E-01  8.50000000E-01
  8.50000000E-01  8.50000000E-01  8.50000000E-01  8.50000000E-01  8.50000000E-01
  8.50000000E-01  8.50000000E-01  8.50000000E-01  8.50000000E-01  8.50000000E-01
  8.50000000E-01  8.50000000E-01  8.50000000E-01  8.50000000E-01  8.50000000E-01
  8.50000000E-01  8.50000000E-01  8.50000000E-01  8.50000000E-01  8.50000000E-01
  8.50000000E-01  8.50000000E-01  8.50000000E-01  8.50000000E-01  8.50000000E-01
  8.50000000E-01  8.50000000E-01  8.50000000E-01  8.50000000E-01  8.50000000E-01
  8.50000000E-01  8.50000000E-01  8.50000000E-01  8.50000000E-01  8.50000000E-01
  8.50000000E-01  8.50000000E-01  8.50000000E-01  8.50000000E-01  8.50000000E-01
  8.50000000E-01  8.50000000E-01  8.50000000E-01  8.50000000E-01  8.50000000E-01
  8.50000000E-01  8.50000000E-01  8.50000000E-01  8.50000000E-01  8.50000000E-01
  8.50000000E-01  8.50000000E-01  8.50000000E-01  8.50000000E-01  8.50000000E-01
  8.50000000E-01  8.50000000E-01  8.50000000E-01  8.50000000E-01  8.50000000E-01
  8.50000000E-01  8.50000000E-01  8.50000000E-01  8.50000000E-01  8.50000000E-01
  8.50000000E-01  8.50000000E-01  8.50000000E-01  8.50000000E-01  8.50000000E-01
  8.50000000E-01  8.50000000E-01  8.50000000E-01  8.50000000E-01  8.50000000E-01
  8.50000000E-01  8.50000000E-01  8.50000000E-01  8.50000000E-01  8.50000000E-01
  8.50000000E-01  8.50000000E-01  8.50000000E-01  8.50000000E-01  8.50000000E-01
  8.50000000E-01  8.50000000E-01  8.50000000E-01  8.50000000E-01  8.50000000E-01
  8.50000000E-01  8.50000000E-01  8.50000000E-01  8.50000000E-01  8.50000000E-01
  8.50000000E-01  8.50000000E-01  8.50000000E-01  8.50000000E-01  8.50000000E-01
  8.50000000E-01  8.50000000E-01  8.50000000E-01  8.50000000E-01  8.50000000E-01
  8.50000000E-01  8.50000000E-01  8.50000000E-01  8.50000000E-01  8.50000000E-01
  8.50000000E-01  8.50000000E-01  8.50000000E-01  8.50000000E-01  8.50000000E-01
  8.50000000E-01  8.50000000E-01  8.50000000E-01  8.50000000E-01  8.50000000E-01
  8.50000000E-01  8.50000000E-01  8.50000000E-01  8.50000000E-01  8.50000000E-01
  8.50000000E-01  8.50000000E-01  8.50000000E-01  8.50000000E-01  8.50000000E-01
  8.50000000E-01  8.50000000E-01  8.50000000E-01  8.50000000E-01  8.50000000E-01
  8.50000000E-01  8.50000000E-01  8.50000000E-01  8.50000000E-01  8.50000000E-01
  8.50000000E-01  8.50000000E-01  8.50000000E-01  8.50000000E-01  8.50000000E-01
  8.50000000E-01  8.50000000E-01  8.50000000E-01  8.50000000E-01  8.50000000E-01
  8.50000000E-01  8.50000000E-01  8.50000000E-01  8.50000000E-01  8.50000000E-01
  8.50000000E-01  8.50000000E-01  8.50000000E-01  8.50000000E-01  8.50000000E-01
  8.50000000E-01  8.50000000E-01  8.50000000E-01  8.50000000E-01  8.50000000E-01
  8.50000000E-01  8.50000000E-01  8.50000000E-01  8.50000000E-01  8.50000000E-01
  8.50000000E-01  8.50000000E-01  8.50000000E-01  8.50000000E-01  8.50000000E-01
  8.50000000E-01  8.50000000E-01  8.50000000E-01  8.50000000E-01  8.50000000E-01
  8.50000000E-01  8.50000000E-01  8.50000000E-01  8.50000000E-01  8.50000000E-01
  8.50000000E-01  8.50000000E-01  8.50000000E-01  8.50000000E-01  8.50000000E-01
  8.50000000E-01  8.50000000E-01  8.50000000E-01  8.50000000E-01  8.50000000E-01
  8.50000000E-01  8.50000000E-01  8.50000000E-01  8.50000000E-01  8.50000000E-01
  8.50000000E-01  8.50000000E-01  8.50000000E-01  8.50000000E-01  8.50000000E-01
  8.50000000E-01  8.50000000E-01  8.50000000E-01  8.50000000E-01  8.50000000E-01
  8.50000000E-01  8.50000000E-01  8.50000000E-01  8.50000000E-01  8.50000000E-01
  8.50000000E-01  8.50000000E-01  8.50000000E-01  8.50000000E-01  8.50000000E-01
  8.50000000E-01  8.50000000E-01  8.50000000E-01  8.50000000E-01  8.50000000E-01
  8.50000000E-01  8.50000000E-01  8.50000000E-01  8.50000000E-01  8.50000000E-01
  8.50000000E-01  8.50000000E-01  8.50000000E-01  8.50000000E-01  8.50000000E-01
  8.50000000E-01  8.50000000E-01  8.50000000E-01  8.50000000E-01  8.50000000E-01
  8.50000000E-01  8.50000000E-01  8.50000000E-01  8.50000000E-01  8.50000000E-01
  8.50000000E-01  8.50000000E-01  8.50000000E-01  8.50000000E-01  8.50000000E-01
  8.50000000E-01  8.50000000E-01  8.50000000E-01  8.50000000E-01  8.50000000E-01
  8.50000000E-01  8.50000000E-01  8.50000000E-01  8.50000000E-01  8.50000000E-01
  8.50000000E-01  8.50000000E-01  8.50000000E-01  8.50000000E-01  8.50000000E-01
  8.50000000E-01  8.50000000E-01  8.50000000E-01  8.50000000E-01  8.50000000E-01
  8.50000000E-01  8.50000000E-01  8.50000000E-01  8.50000000E-01  8.50000000E-01
  8.50000000E-01  8.50000000E-01  8.50000000E-01  8.50000000E-01  8.50000000E-01
  8.50000000E-01  8.50000000E-01  8.50000000E-01  8.50000000E-01  8.50000000E-01
  8.50000000E-01  8.50000000E-01  8.50000000E-01  8.50000000E-01  8.50000000E-01
  8.50000000E-01  8.50000000E-01  8.50000000E-01  8.50000000E-01  8.50000000E-01
  8.50000000E-01  8.50000000E-01  8.50000000E-01  8.50000000E-01  8.50000000E-01
  8.50000000E-01  8.50000000E-01  8.50000000E-01  8.50000000E-01  8.50000000E-01
  8.50000000E-01  8.50000000E-01  8.50000000E-01  8.50000000E-01  8.50000000E-01
  8.50000000E-01  8.50000000E-01  8.50000000E-01  8.50000000E-01  8.50000000E-01
  8.50000000E-01  8.50000000E-01  8.50000000E-01  8.50000000E-01  8.50000000E-01
  8.50000000E-01  8.50000000E-01  8.50000000E-01  8.50000000E-01  8.50000000E-01
  8.50000000E-01  8.50000000E-01  8.50000000E-01  8.50000000E-01  8.50000000E-01
  8.50000000E-01  8.50000000E-01  8.50000000E-01  8.50000000E-01  8.50000000E-01
  8.50000000E-01  8.50000000E-01  8.50000000E-01  8.50000000E-01  8.50000000E-01
  8.50000000E-01  8.50000000E-01  8.50000000E-01  8.50000000E-01  8.50000000E-01
  8.50000000E-01  8.50000000E-01  8.50000000E-01  8.50000000E-01  8.50000000E-01
  8.50000000E-01  8.50000000E-01  8.50000000E-01  8.50000000E-01  8.50000000E-01
  8.50000000E-01  8.50000000E-01  8.50000000E-01  8.50000000E-01  8.50000000E-01
  8.50000000E-01  8.50000000E-01  8.50000000E-01  8.50000000E-01  8.50000000E-01
  8.50000000E-01  8.50000000E-01  8.50000000E-01  8.50000000E-01  8.50000000E-01
  8.50000000E-01  8.50000000E-01  8.50000000E-01  8.50000000E-01  8.50000000E-01
  8.50000000E-01  8.50000000E-01  8.50000000E-01  8.50000000E-01  8.50000000E-01
  8.50000000E-01  8.50000000E-01  8.50000000E-01  8.50000000E-01  8.50000000E-01
  8.50000000E-01  8.50000000E-01  8.50000000E-01  8.50000000E-01  8.50000000E-01
  8.50000000E-01  8.50000000E-01  8.50000000E-01  8.50000000E-01  8.50000000E-01
  8.50000000E-01  8.50000000E-01  8.50000000E-01  8.50000000E-01  8.50000000E-01
  8.50000000E-01  8.50000000E-01  8.50000000E-01  8.50000000E-01  8.50000000E-01
  8.50000000E-01  8.50000000E-01  8.50000000E-01  8.50000000E-01  8.50000000E-01
  8.50000000E-01  8.50000000E-01  8.50000000E-01  8.50000000E-01  8.50000000E-01
  8.50000000E-01  8.50000000E-01  8.50000000E-01  8.50000000E-01  8.50000000E-01
  8.50000000E-01  8.50000000E-01  8.50000000E-01  8.50000000E-01  8.50000000E-01
  8.50000000E-01  8.50000000E-01  8.50000000E-01  8.50000000E-01  8.50000000E-01
  8.50000000E-01  8.50000000E-01  8.50000000E-01  8.50000000E-01  8.50000000E-01
  8.50000000E-01  8.50000000E-01  8.50000000E-01  8.50000000E-01  8.50000000E-01
  8.50000000E-01  8.50000000E-01  8.50000000E-01  8.50000000E-01  8.50000000E-01
  8.50000000E-01  8.50000000E-01  8.50000000E-01  8.50000000E-01  8.50000000E-01
  8.50000000E-01  8.50000000E-01  8.50000000E-01  8.50000000E-01  8.50000000E-01
  8.50000000E-01  8.50000000E-01  8.50000000E-01  8.50000000E-01  8.50000000E-01
  8.50000000E-01  8.50000000E-01  8.50000000E-01  8.50000000E-01  8.50000000E-01
  8.50000000E-01  8.50000000E-01  8.50000000E-01  8.50000000E-01  8.50000000E-01
  8.50000000E-01  8.50000000E-01  8.50000000E-01  8.50000000E-01  8.50000000E-01
  8.50000000E-01  8.50000000E-01  8.50000000E-01  8.50000000E-01  8.50000000E-01
  8.50000000E-01  8.50000000E-01  8.50000000E-01  8.50000000E-01  8.50000000E-01
  8.50000000E-01  8.50000000E-01  8.50000000E-01  8.50000000E-01  8.50000000E-01
  8.50000000E-01  8.50000000E-01  8.50000000E-01  8.50000000E-01  8.50000000E-01
  8.50000000E-01  8.50000000E-01  8.50000000E-01  8.50000000E-01  8.50000000E-01
  8.50000000E-01  8.50000000E-01  8.50000000E-01  8.50000000E-01  8.50000000E-01
  8.50000000E-01  8.50000000E-01  8.50000000E-01  8.50000000E-01  8.50000000E-01
  8.50000000E-01  8.50000000E-01  8.50000000E-01  8.50000000E-01  8.50000000E-01
  8.50000000E-01  8.50000000E-01  8.50000000E-01  8.50000000E-01  8.50000000E-01
  8.50000000E-01  8.50000000E-01  8.50000000E-01  8.50000000E-01  8.50000000E-01
  8.50000000E-01  8.50000000E-01  8.50000000E-01  8.50000000E-01  8.50000000E-01
  8.50000000E-01  8.50000000E-01  8.50000000E-01  8.50000000E-01  8.50000000E-01
  8.50000000E-01  8.50000000E-01  8.50000000E-01  8.50000000E-01  8.50000000E-01
  8.50000000E-01  8.50000000E-01  8.50000000E-01  8.50000000E-01  8.50000000E-01
  8.50000000E-01  8.50000000E-01  8.50000000E-01  8.50000000E-01  8.50000000E-01
  8.50000000E-01  8.50000000E-01  8.50000000E-01  8.50000000E-01  8.50000000E-01
  8.50000000E-01  8.50000000E-01  8.50000000E-01  8.50000000E-01  8.50000000E-01
  8.50000000E-01  8.50000000E-01  8.50000000E-01  8.50000000E-01  8.50000000E-01
  8.50000000E-01  8.50000000E-01  8.50000000E-01  8.50000000E-01  8.50000000E-01
  8.50000000E-01  8.50000000E-01  8.50000000E-01  8.50000000E-01  8.50000000E-01
  8.50000000E-01  8.50000000E-01  8.50000000E-01  8.50000000E-01  8.50000000E-01
  8.50000000E-01  8.50000000E-01  8.50000000E-01  8.50000000E-01  8.50000000E-01
  8.50000000E-01  8.50000000E-01  8.50000000E-01  8.50000000E-01  8.50000000E-01
  8.50000000E-01  8.50000000E-01  8.50000000E-01  8.50000000E-01  8.50000000E-01
  8.50000000E-01  8.50000000E-01  8.50000000E-01  8.50000000E-01  8.50000000E-01
  8.50000000E-01  8.50000000E-01  8.50000000E-01  8.50000000E-01  8.50000000E-01
  8.50000000E-01  8.50000000E-01  8.50000000E-01  8.50000000E-01  8.50000000E-01
  8.50000000E-01  8.50000000E-01  8.50000000E-01  8.50000000E-01  8.50000000E-01
  8.50000000E-01  8.50000000E-01  8.50000000E-01  8.50000000E-01  8.50000000E-01
  8.50000000E-01  8.50000000E-01  8.50000000E-01  8.50000000E-01  8.50000000E-01
  8.50000000E-01  8.50000000E-01  8.50000000E-01  8.50000000E-01  8.50000000E-01
  8.50000000E-01  8.50000000E-01  8.50000000E-01  8.50000000E-01  8.50000000E-01
  8.50000000E-01  8.50000000E-01  8.50000000E-01  8.50000000E-01  8.50000000E-01
  8.50000000E-01  8.50000000E-01  8.50000000E-01  8.50000000E-01  8.50000000E-01
  8.50000000E-01  8.50000000E-01  8.50000000E-01  8.50000000E-01  8.50000000E-01
  8.50000000E-01  8.50000000E-01  8.50000000E-01  8.50000000E-01  8.50000000E-01
  8.50000000E-01  8.50000000E-01  8.50000000E-01  8.50000000E-01  8.50000000E-01
  8.50000000E-01  8.50000000E-01  8.50000000E-01  8.50000000E-01  8.50000000E-01
  8.50000000E-01  8.50000000E-01  8.50000000E-01  8.50000000E-01  8.50000000E-01
  8.50000000E-01  8.50000000E-01  8.50000000E-01  8.50000000E-01  8.50000000E-01
  8.50000000E-01  8.50000000E-01  8.50000000E-01  8.50000000E-01  8.50000000E-01
  8.50000000E-01  8.50000000E-01  8.50000000E-01  8.50000000E-01  8.50000000E-01
  8.50000000E-01  8.50000000E-01  8.50000000E-01  8.50000000E-01  8.50000000E-01
  8.50000000E-01  8.50000000E-01  8.50000000E-01  8.50000000E-01  8.50000000E-01
  8.50000000E-01  8.50000000E-01  8.50000000E-01  8.50000000E-01  8.50000000E-01
  8.50000000E-01  8.50000000E-01  8.50000000E-01  8.50000000E-01  8.50000000E-01
  8.50000000E-01  8.50000000E-01  8.50000000E-01  8.50000000E-01  8.50000000E-01
  8.50000000E-01  8.50000000E-01  8.50000000E-01  8.50000000E-01  8.50000000E-01
  8.50000000E-01  8.50000000E-01  8.50000000E-01  8.50000000E-01  8.50000000E-01
  8.50000000E-01  8.50000000E-01  8.50000000E-01  8.50000000E-01  8.50000000E-01
  8.50000000E-01  8.50000000E-01  8.50000000E-01  8.50000000E-01  8.50000000E-01
  8.50000000E-01  8.50000000E-01  8.50000000E-01  8.50000000E-01  8.50000000E-01
  8.50000000E-01  8.50000000E-01  8.50000000E-01  8.50000000E-01  8.50000000E-01
  8.50000000E-01  8.50000000E-01  8.50000000E-01  8.50000000E-01  8.50000000E-01
  8.50000000E-01  8.50000000E-01  8.50000000E-01  8.50000000E-01  8.50000000E-01
  8.50000000E-01  8.50000000E-01  8.50000000E-01  8.50000000E-01  8.50000000E-01
  8.50000000E-01  8.50000000E-01  8.50000000E-01  8.50000000E-01  8.50000000E-01
  8.50000000E-01  8.50000000E-01  8.50000000E-01  8.50000000E-01  8.50000000E-01
  8.50000000E-01  8.50000000E-01  8.50000000E-01  8.50000000E-01  8.50000000E-01
  8.50000000E-01  8.50000000E-01  8.50000000E-01  8.50000000E-01  8.50000000E-01
  8.50000000E-01  8.50000000E-01  8.50000000E-01  8.50000000E-01  8.50000000E-01
  8.50000000E-01  8.50000000E-01  8.50000000E-01  8.50000000E-01  8.50000000E-01
  8.50000000E-01  8.50000000E-01  8.50000000E-01  8.50000000E-01  8.50000000E-01
  8.50000000E-01  8.50000000E-01  8.50000000E-01  8.50000000E-01  8.50000000E-01
  8.50000000E-01  8.50000000E-01  8.50000000E-01  8.50000000E-01  8.50000000E-01
  8.50000000E-01  8.50000000E-01  8.50000000E-01  8.50000000E-01  8.50000000E-01
  8.50000000E-01  8.50000000E-01  8.50000000E-01  8.50000000E-01  8.50000000E-01
  8.50000000E-01  8.50000000E-01  8.50000000E-01  8.50000000E-01  8.50000000E-01
  8.50000000E-01  8.50000000E-01  8.50000000E-01  8.50000000E-01  8.50000000E-01
  8.50000000E-01  8.50000000E-01  8.50000000E-01  8.50000000E-01  8.50000000E-01
  8.50000000E-01  8.50000000E-01  8.50000000E-01  8.50000000E-01  8.50000000E-01
  8.50000000E-01  8.50000000E-01  8.50000000E-01  8.50000000E-01  8.50000000E-01
  8.50000000E-01  8.50000000E-01  8.50000000E-01  8.50000000E-01  8.50000000E-01
  8.50000000E-01  8.50000000E-01  8.50000000E-01  8.50000000E-01  8.50000000E-01
  8.50000000E-01  8.50000000E-01  8.50000000E-01  8.50000000E-01  8.50000000E-01
  8.50000000E-01  8.50000000E-01  8.50000000E-01  8.50000000E-01  8.50000000E-01
  8.50000000E-01  8.50000000E-01  8.50000000E-01  8.50000000E-01  8.50000000E-01
  8.50000000E-01  8.50000000E-01  8.50000000E-01  8.50000000E-01  8.50000000E-01
  8.50000000E-01  8.50000000E-01  8.50000000E-01  8.50000000E-01  8.50000000E-01
  8.50000000E-01  8.50000000E-01  8.50000000E-01  8.50000000E-01  8.50000000E-01
  8.50000000E-01  8.50000000E-01  8.50000000E-01  8.50000000E-01  8.50000000E-01
  8.50000000E-01  8.50000000E-01  8.50000000E-01  8.50000000E-01  8.50000000E-01
  8.50000000E-01  8.50000000E-01  8.50000000E-01  8.50000000E-01  8.50000000E-01
  8.50000000E-01  8.50000000E-01  8.50000000E-01  8.50000000E-01  8.50000000E-01
  8.50000000E-01  8.50000000E-01  8.50000000E-01  8.50000000E-01  8.50000000E-01
  8.50000000E-01  8.50000000E-01  8.50000000E-01  8.50000000E-01  8.50000000E-01
  8.50000000E-01  8.50000000E-01  8.50000000E-01  8.50000000E-01  8.50000000E-01
  8.50000000E-01  8.50000000E-01  8.50000000E-01  8.50000000E-01  8.50000000E-01
  8.50000000E-01  8.50000000E-01  8.50000000E-01  8.50000000E-01  8.50000000E-01
  8.50000000E-01  8.50000000E-01  8.50000000E-01  8.50000000E-01  8.50000000E-01
  8.50000000E-01  8.50000000E-01  8.50000000E-01  8.50000000E-01  8.50000000E-01
  8.50000000E-01  8.50000000E-01  8.50000000E-01  8.50000000E-01  8.50000000E-01
  8.50000000E-01  8.50000000E-01  8.50000000E-01  8.50000000E-01  8.50000000E-01
  8.50000000E-01  8.50000000E-01  8.50000000E-01  8.50000000E-01  8.50000000E-01
  8.50000000E-01  8.50000000E-01  8.50000000E-01  8.50000000E-01  8.50000000E-01
  8.50000000E-01  8.50000000E-01  8.50000000E-01  8.50000000E-01  8.50000000E-01
  8.50000000E-01  8.50000000E-01  8.50000000E-01  8.50000000E-01  8.50000000E-01
  8.50000000E-01  8.50000000E-01  8.50000000E-01  8.50000000E-01  8.50000000E-01
  8.50000000E-01  8.50000000E-01  8.50000000E-01  8.50000000E-01  8.50000000E-01
  8.50000000E-01  8.50000000E-01  8.50000000E-01  8.50000000E-01  8.50000000E-01
  8.50000000E-01  8.50000000E-01  8.50000000E-01  8.50000000E-01  8.50000000E-01
  8.50000000E-01  8.50000000E-01  8.50000000E-01  8.50000000E-01  8.50000000E-01
  8.50000000E-01  8.50000000E-01  8.50000000E-01  8.50000000E-01  8.50000000E-01
  8.50000000E-01  8.50000000E-01  8.50000000E-01  8.50000000E-01  8.50000000E-01
  8.50000000E-01  8.50000000E-01  8.50000000E-01  8.50000000E-01  8.50000000E-01
  8.50000000E-01  8.50000000E-01  8.50000000E-01  8.50000000E-01  8.50000000E-01
  8.50000000E-01  8.50000000E-01  8.50000000E-01  8.50000000E-01  8.50000000E-01
  8.50000000E-01  8.50000000E-01  8.50000000E-01  8.50000000E-01  8.50000000E-01
  8.50000000E-01  8.50000000E-01  8.50000000E-01  8.50000000E-01  8.50000000E-01
  8.50000000E-01  8.50000000E-01  8.50000000E-01  8.50000000E-01  8.50000000E-01
  8.50000000E-01  8.50000000E-01  8.50000000E-01  8.50000000E-01  8.50000000E-01
  8.50000000E-01  8.50000000E-01  8.50000000E-01  8.50000000E-01  8.50000000E-01
  8.50000000E-01  8.50000000E-01  8.50000000E-01  8.50000000E-01  8.50000000E-01
  8.50000000E-01  8.50000000E-01  8.50000000E-01  8.50000000E-01  8.50000000E-01
  8.50000000E-01  8.50000000E-01  8.50000000E-01  8.50000000E-01  8.50000000E-01
  8.50000000E-01  8.50000000E-01  8.50000000E-01  8.50000000E-01  8.50000000E-01
  8.50000000E-01  8.50000000E-01  8.50000000E-01  8.50000000E-01  8.50000000E-01
  8.50000000E-01  8.50000000E-01  8.50000000E-01  8.50000000E-01  8.50000000E-01
  8.50000000E-01  8.50000000E-01  8.50000000E-01  8.50000000E-01  8.50000000E-01
  8.50000000E-01  8.50000000E-01  8.50000000E-01  8.50000000E-01  8.50000000E-01
  8.50000000E-01  8.50000000E-01  8.50000000E-01  8.50000000E-01  8.50000000E-01
  8.50000000E-01  8.50000000E-01  8.50000000E-01  8.50000000E-01  8.50000000E-01
  8.50000000E-01  8.50000000E-01  8.50000000E-01  8.50000000E-01  8.50000000E-01
  8.50000000E-01  8.50000000E-01  8.50000000E-01  8.50000000E-01  8.50000000E-01
  8.50000000E-01  8.50000000E-01  8.50000000E-01  8.50000000E-01  8.50000000E-01
  8.50000000E-01  8.50000000E-01  8.50000000E-01  8.50000000E-01  8.50000000E-01
  8.50000000E-01  8.50000000E-01  8.50000000E-01  8.50000000E-01  8.50000000E-01
  8.50000000E-01  8.50000000E-01  8.50000000E-01  8.50000000E-01  8.50000000E-01
  8.50000000E-01  8.50000000E-01  8.50000000E-01  8.50000000E-01  8.50000000E-01
  8.50000000E-01  8.50000000E-01  8.50000000E-01  8.50000000E-01  8.50000000E-01
  8.50000000E-01  8.50000000E-01  8.50000000E-01  8.50000000E-01  8.50000000E-01
  8.50000000E-01  8.50000000E-01  8.50000000E-01  8.50000000E-01  8.50000000E-01
  8.50000000E-01  8.50000000E-01  8.50000000E-01  8.50000000E-01  8.50000000E-01
  8.50000000E-01  8.50000000E-01  8.50000000E-01  8.50000000E-01  8.50000000E-01
  8.50000000E-01  8.50000000E-01  8.50000000E-01  8.50000000E-01  8.50000000E-01
  8.50000000E-01  8.50000000E-01  8.50000000E-01  8.50000000E-01  8.50000000E-01
  8.50000000E-01  8.50000000E-01  8.50000000E-01  8.50000000E-01  8.50000000E-01
  8.50000000E-01  8.50000000E-01  8.50000000E-01  8.50000000E-01  8.50000000E-01
  8.50000000E-01  8.50000000E-01  8.50000000E-01  8.50000000E-01  8.50000000E-01
  8.50000000E-01  8.50000000E-01  8.50000000E-01  8.50000000E-01  8.50000000E-01
  8.50000000E-01  8.50000000E-01  8.50000000E-01  8.50000000E-01  8.50000000E-01
  8.50000000E-01  8.50000000E-01  8.50000000E-01  8.50000000E-01  8.50000000E-01
  8.50000000E-01  8.50000000E-01  8.50000000E-01  8.50000000E-01  8.50000000E-01
  8.50000000E-01  8.50000000E-01  8.50000000E-01  8.50000000E-01  8.50000000E-01
  8.50000000E-01  8.50000000E-01  8.50000000E-01  8.50000000E-01  8.50000000E-01
  8.50000000E-01  8.50000000E-01  8.50000000E-01  8.50000000E-01  8.50000000E-01
  8.50000000E-01  8.50000000E-01  8.50000000E-01  8.50000000E-01  8.50000000E-01
  8.50000000E-01  8.50000000E-01  8.50000000E-01  8.50000000E-01  8.50000000E-01
  8.50000000E-01  8.50000000E-01  8.50000000E-01  8.50000000E-01  8.50000000E-01
  8.50000000E-01  8.50000000E-01  8.50000000E-01  8.50000000E-01  8.50000000E-01
  8.50000000E-01  8.50000000E-01  8.50000000E-01  8.50000000E-01  8.50000000E-01
  8.50000000E-01  8.50000000E-01  8.50000000E-01  8.50000000E-01  8.50000000E-01
  8.50000000E-01  8.50000000E-01  8.50000000E-01  8.50000000E-01  8.50000000E-01
  8.50000000E-01  8.50000000E-01  8.50000000E-01  8.50000000E-01  8.50000000E-01
  8.50000000E-01  8.50000000E-01  8.50000000E-01  8.50000000E-01  8.50000000E-01
  8.50000000E-01  8.50000000E-01  8.50000000E-01  8.50000000E-01  8.50000000E-01
  8.50000000E-01  8.50000000E-01  8.50000000E-01  8.50000000E-01  8.50000000E-01
  8.50000000E-01  8.50000000E-01  8.50000000E-01  8.50000000E-01  8.50000000E-01
  8.50000000E-01  8.50000000E-01  8.50000000E-01  8.50000000E-01  8.50000000E-01
  8.50000000E-01  8.50000000E-01  8.50000000E-01  8.50000000E-01  8.50000000E-01
  8.50000000E-01  8.50000000E-01  8.50000000E-01  8.50000000E-01  8.50000000E-01
  8.50000000E-01  8.50000000E-01  8.50000000E-01  8.50000000E-01  8.50000000E-01
  8.50000000E-01  8.50000000E-01  8.50000000E-01  8.50000000E-01  8.50000000E-01
  8.50000000E-01  8.50000000E-01  8.50000000E-01  8.50000000E-01  8.50000000E-01
  8.50000000E-01  8.50000000E-01  8.50000000E-01  8.50000000E-01  8.50000000E-01
  8.50000000E-01  8.50000000E-01  8.50000000E-01  8.50000000E-01  8.50000000E-01
  8.50000000E-01  8.50000000E-01  8.50000000E-01  8.50000000E-01  8.50000000E-01
  8.50000000E-01  8.50000000E-01  8.50000000E-01  8.50000000E-01  8.50000000E-01
  8.50000000E-01  8.50000000E-01  8.50000000E-01  8.50000000E-01  8.50000000E-01
  8.50000000E-01  8.50000000E-01  8.50000000E-01  8.50000000E-01  8.50000000E-01
  8.50000000E-01  8.50000000E-01  8.50000000E-01  8.50000000E-01  8.50000000E-01
  8.50000000E-01  8.50000000E-01  8.50000000E-01  8.50000000E-01  8.50000000E-01
  8.50000000E-01  8.50000000E-01  8.50000000E-01  8.50000000E-01  8.50000000E-01
  8.50000000E-01  8.50000000E-01  8.50000000E-01  8.50000000E-01  8.50000000E-01
  8.50000000E-01  8.50000000E-01  8.50000000E-01  8.50000000E-01  8.50000000E-01
  8.50000000E-01  8.50000000E-01  8.50000000E-01  8.50000000E-01  8.50000000E-01
  8.50000000E-01  8.50000000E-01  8.50000000E-01  8.50000000E-01  8.50000000E-01
  8.50000000E-01  8.50000000E-01  8.50000000E-01  8.50000000E-01  8.50000000E-01
  8.50000000E-01  8.50000000E-01  8.50000000E-01  8.50000000E-01  8.50000000E-01
  8.50000000E-01  8.50000000E-01  8.50000000E-01  8.50000000E-01  8.50000000E-01
  8.50000000E-01  8.50000000E-01  8.50000000E-01  8.50000000E-01  8.50000000E-01
  8.50000000E-01  8.50000000E-01  8.50000000E-01  8.50000000E-01  8.50000000E-01
  8.50000000E-01  8.50000000E-01  8.50000000E-01  8.50000000E-01  8.50000000E-01
  8.50000000E-01  8.50000000E-01  8.50000000E-01  8.50000000E-01  8.50000000E-01
  8.50000000E-01  8.50000000E-01  8.50000000E-01  8.50000000E-01  8.50000000E-01
  8.50000000E-01  8.50000000E-01  8.50000000E-01  8.50000000E-01  8.50000000E-01
  8.50000000E-01  8.50000000E-01  8.50000000E-01  8.50000000E-01  8.50000000E-01
  8.50000000E-01  8.50000000E-01  8.50000000E-01  8.50000000E-01  8.50000000E-01
  8.50000000E-01  8.50000000E-01  8.50000000E-01  8.50000000E-01  8.50000000E-01
  8.50000000E-01  8.50000000E-01  8.50000000E-01  8.50000000E-01  8.50000000E-01
  8.50000000E-01  8.50000000E-01  8.50000000E-01  8.50000000E-01  8.50000000E-01
  8.50000000E-01  8.50000000E-01  8.50000000E-01  8.50000000E-01  8.50000000E-01
  8.50000000E-01  8.50000000E-01  8.50000000E-01  8.50000000E-01  8.50000000E-01
  8.50000000E-01  8.50000000E-01  8.50000000E-01  8.50000000E-01  8.50000000E-01
  8.50000000E-01  8.50000000E-01  8.50000000E-01  8.50000000E-01  8.50000000E-01
  8.50000000E-01  8.50000000E-01  8.50000000E-01  8.50000000E-01  8.50000000E-01
  8.50000000E-01  8.50000000E-01  8.50000000E-01  8.50000000E-01  8.50000000E-01
  8.50000000E-01  8.50000000E-01  8.50000000E-01  8.50000000E-01  8.50000000E-01
  8.50000000E-01  8.50000000E-01  8.50000000E-01  8.50000000E-01  8.50000000E-01
  8.50000000E-01  8.50000000E-01  8.50000000E-01  8.50000000E-01  8.50000000E-01
  8.50000000E-01  8.50000000E-01  8.50000000E-01  8.50000000E-01  8.50000000E-01
  8.50000000E-01  8.50000000E-01  8.50000000E-01  8.50000000E-01  8.50000000E-01
  8.50000000E-01  8.50000000E-01  8.50000000E-01  8.50000000E-01  8.50000000E-01
  8.50000000E-01  8.50000000E-01  8.50000000E-01  8.50000000E-01  8.50000000E-01
  8.50000000E-01  8.50000000E-01  8.50000000E-01  8.50000000E-01  8.50000000E-01
  8.50000000E-01  8.50000000E-01  8.50000000E-01  8.50000000E-01  8.50000000E-01
  8.50000000E-01  8.50000000E-01  8.50000000E-01  8.50000000E-01  8.50000000E-01
  8.50000000E-01  8.50000000E-01  8.50000000E-01  8.50000000E-01  8.50000000E-01
  8.50000000E-01  8.50000000E-01  8.50000000E-01  8.50000000E-01  8.50000000E-01
  8.50000000E-01  8.50000000E-01  8.50000000E-01  8.50000000E-01  8.50000000E-01
  8.50000000E-01  8.50000000E-01  8.50000000E-01  8.50000000E-01  8.50000000E-01
  8.50000000E-01  8.50000000E-01  8.50000000E-01  8.50000000E-01  8.50000000E-01
  8.50000000E-01  8.50000000E-01  8.50000000E-01  8.50000000E-01  8.50000000E-01
  8.50000000E-01  8.50000000E-01  8.50000000E-01  8.50000000E-01  8.50000000E-01
  8.50000000E-01  8.50000000E-01  8.50000000E-01  8.50000000E-01  8.50000000E-01
  8.50000000E-01  8.50000000E-01  8.50000000E-01  8.50000000E-01  8.50000000E-01
  8.50000000E-01  8.50000000E-01  8.50000000E-01  8.50000000E-01  8.50000000E-01
  8.50000000E-01  8.50000000E-01  8.50000000E-01  8.50000000E-01  8.50000000E-01
  8.50000000E-01  8.50000000E-01  8.50000000E-01  8.50000000E-01  8.50000000E-01
  8.50000000E-01  8.50000000E-01  8.50000000E-01  8.50000000E-01  8.50000000E-01
  8.50000000E-01  8.50000000E-01  8.50000000E-01  8.50000000E-01  8.50000000E-01
  8.50000000E-01  8.50000000E-01  8.50000000E-01  8.50000000E-01  8.50000000E-01
  8.50000000E-01  8.50000000E-01  8.50000000E-01  8.50000000E-01  8.50000000E-01
  8.50000000E-01  8.50000000E-01  8.50000000E-01  8.50000000E-01  8.50000000E-01
  8.50000000E-01  8.50000000E-01  8.50000000E-01  8.50000000E-01  8.50000000E-01
  8.50000000E-01  8.50000000E-01  8.50000000E-01  8.50000000E-01  8.50000000E-01
  8.50000000E-01  8.50000000E-01  8.50000000E-01  8.50000000E-01  8.50000000E-01
  8.50000000E-01  8.50000000E-01  8.50000000E-01  8.50000000E-01  8.50000000E-01
  8.50000000E-01  8.50000000E-01  8.50000000E-01  8.50000000E-01  8.50000000E-01
  8.50000000E-01  8.50000000E-01  8.50000000E-01  8.50000000E-01  8.50000000E-01
  8.50000000E-01  8.50000000E-01  8.50000000E-01  8.50000000E-01  8.50000000E-01
  8.50000000E-01  8.50000000E-01  8.50000000E-01  8.50000000E-01  8.50000000E-01
  8.50000000E-01  8.50000000E-01  8.50000000E-01  8.50000000E-01  8.50000000E-01
  8.50000000E-01  8.50000000E-01  8.50000000E-01  8.50000000E-01  8.50000000E-01
  8.50000000E-01  8.50000000E-01  8.50000000E-01  8.50000000E-01  8.50000000E-01
  8.50000000E-01  8.50000000E-01  8.50000000E-01  8.50000000E-01  8.50000000E-01
  8.50000000E-01  8.50000000E-01  8.50000000E-01  8.50000000E-01  8.50000000E-01
  8.50000000E-01  8.50000000E-01  8.50000000E-01  8.50000000E-01  8.50000000E-01
  8.50000000E-01  8.50000000E-01  8.50000000E-01  8.50000000E-01  8.50000000E-01
  8.50000000E-01  8.50000000E-01  8.50000000E-01  8.50000000E-01  8.50000000E-01
  8.50000000E-01  8.50000000E-01  8.50000000E-01  8.50000000E-01  8.50000000E-01
  8.50000000E-01  8.50000000E-01  8.50000000E-01  8.50000000E-01  8.50000000E-01
  8.50000000E-01  8.50000000E-01  8.50000000E-01  8.50000000E-01  8.50000000E-01
  8.50000000E-01  8.50000000E-01  8.50000000E-01  8.50000000E-01  8.50000000E-01
  8.50000000E-01  8.50000000E-01  8.50000000E-01  8.50000000E-01  8.50000000E-01
  8.50000000E-01  8.50000000E-01  8.50000000E-01  8.50000000E-01  8.50000000E-01
  8.50000000E-01  8.50000000E-01  8.50000000E-01  8.50000000E-01  8.50000000E-01
  8.50000000E-01  8.50000000E-01  8.50000000E-01  8.50000000E-01  8.50000000E-01
  8.50000000E-01  8.50000000E-01  8.50000000E-01  8.50000000E-01  8.50000000E-01
  8.50000000E-01  8.50000000E-01  8.50000000E-01  8.50000000E-01  8.50000000E-01
  8.50000000E-01  8.50000000E-01  8.50000000E-01  8.50000000E-01  8.50000000E-01
  8.50000000E-01  8.50000000E-01  8.50000000E-01  8.50000000E-01  8.50000000E-01
  8.50000000E-01  8.50000000E-01  8.50000000E-01  8.50000000E-01  8.50000000E-01
  8.50000000E-01  8.50000000E-01  8.50000000E-01  8.50000000E-01  8.50000000E-01
  8.50000000E-01  8.50000000E-01  8.50000000E-01  8.50000000E-01  8.50000000E-01
  8.50000000E-01  8.50000000E-01  8.50000000E-01  8.50000000E-01  8.50000000E-01
  8.50000000E-01  8.50000000E-01  8.50000000E-01  8.50000000E-01  8.50000000E-01
  8.50000000E-01  8.50000000E-01  8.50000000E-01  8.50000000E-01  8.50000000E-01
  8.50000000E-01  8.50000000E-01  8.50000000E-01  8.50000000E-01  8.50000000E-01
  8.50000000E-01  8.50000000E-01  8.50000000E-01  8.50000000E-01  8.50000000E-01
  8.50000000E-01  8.50000000E-01  8.50000000E-01  8.50000000E-01  8.50000000E-01
  8.50000000E-01  8.50000000E-01  8.50000000E-01  8.50000000E-01  8.50000000E-01
  8.50000000E-01  8.50000000E-01  8.50000000E-01  8.50000000E-01  8.50000000E-01
  8.50000000E-01  8.50000000E-01  8.50000000E-01  8.50000000E-01  8.50000000E-01
  8.50000000E-01  8.50000000E-01  8.50000000E-01  8.50000000E-01  8.50000000E-01
  8.50000000E-01  8.50000000E-01  8.50000000E-01  8.50000000E-01  8.50000000E-01
  8.50000000E-01  8.50000000E-01  8.50000000E-01  8.50000000E-01  8.50000000E-01
  8.50000000E-01  8.50000000E-01  8.50000000E-01  8.50000000E-01  8.50000000E-01
  8.50000000E-01  8.50000000E-01  8.50000000E-01  8.50000000E-01  8.50000000E-01
  8.50000000E-01  8.50000000E-01  8.50000000E-01  8.50000000E-01  8.50000000E-01
  8.50000000E-01  8.50000000E-01  8.50000000E-01  8.50000000E-01  8.50000000E-01
  8.50000000E-01  8.50000000E-01  8.50000000E-01  8.50000000E-01  8.50000000E-01
  8.50000000E-01  8.50000000E-01  8.50000000E-01  8.50000000E-01  8.50000000E-01
  8.50000000E-01  8.50000000E-01  8.50000000E-01  8.50000000E-01  8.50000000E-01
  8.50000000E-01  8.50000000E-01  8.50000000E-01  8.50000000E-01  8.50000000E-01
  8.50000000E-01  8.50000000E-01  8.50000000E-01  8.50000000E-01  8.50000000E-01
  8.50000000E-01  8.50000000E-01  8.50000000E-01  8.50000000E-01  8.50000000E-01
  8.50000000E-01  8.50000000E-01  8.50000000E-01  8.50000000E-01  8.50000000E-01
  8.50000000E-01  8.50000000E-01  8.50000000E-01  8.50000000E-01  8.50000000E-01
  8.50000000E-01  8.50000000E-01  8.50000000E-01  8.50000000E-01  8.50000000E-01
  8.50000000E-01  8.50000000E-01  8.50000000E-01  8.50000000E-01  8.50000000E-01
  8.50000000E-01  8.50000000E-01  8.50000000E-01  8.50000000E-01  8.50000000E-01
  8.50000000E-01  8.50000000E-01  8.50000000E-01  8.50000000E-01  8.50000000E-01
  8.50000000E-01  8.50000000E-01  8.50000000E-01  8.50000000E-01  8.50000000E-01
  8.50000000E-01  8.50000000E-01  8.50000000E-01  8.50000000E-01  8.50000000E-01
  8.50000000E-01  8.50000000E-01  8.50000000E-01  8.50000000E-01  8.50000000E-01
  8.50000000E-01  8.50000000E-01  8.50000000E-01  8.50000000E-01  8.50000000E-01
  8.50000000E-01  8.50000000E-01  8.50000000E-01  8.50000000E-01  8.50000000E-01
  8.50000000E-01  8.50000000E-01  8.50000000E-01  8.50000000E-01  8.50000000E-01
  8.50000000E-01  8.50000000E-01  8.50000000E-01  8.50000000E-01  8.50000000E-01
  8.50000000E-01  8.50000000E-01  8.50000000E-01  8.50000000E-01  8.50000000E-01
  8.50000000E-01  8.50000000E-01  8.50000000E-01  8.50000000E-01  8.50000000E-01
  8.50000000E-01  8.50000000E-01  8.50000000E-01  8.50000000E-01  8.50000000E-01
  8.50000000E-01  8.50000000E-01  8.50000000E-01  8.50000000E-01  8.50000000E-01
  8.50000000E-01  8.50000000E-01  8.50000000E-01  8.50000000E-01  8.50000000E-01
  8.50000000E-01  8.50000000E-01  8.50000000E-01  8.50000000E-01  8.50000000E-01
  8.50000000E-01  8.50000000E-01  8.50000000E-01  8.50000000E-01  8.50000000E-01
  8.50000000E-01  8.50000000E-01  8.50000000E-01  8.50000000E-01  8.50000000E-01
  8.50000000E-01  8.50000000E-01  8.50000000E-01  8.50000000E-01  8.50000000E-01
  8.50000000E-01  8.50000000E-01  8.50000000E-01  8.50000000E-01  8.50000000E-01
  8.50000000E-01  8.50000000E-01  8.50000000E-01  8.50000000E-01  8.50000000E-01
  8.50000000E-01  8.50000000E-01  8.50000000E-01  8.50000000E-01  8.50000000E-01
  8.50000000E-01  8.50000000E-01  8.50000000E-01  8.50000000E-01  8.50000000E-01
  8.50000000E-01  8.50000000E-01  8.50000000E-01  8.50000000E-01  8.50000000E-01
  8.50000000E-01  8.50000000E-01  8.50000000E-01  8.50000000E-01  8.50000000E-01
  8.50000000E-01  8.50000000E-01  8.50000000E-01  8.50000000E-01  8.50000000E-01
  8.50000000E-01  8.50000000E-01  8.50000000E-01  8.50000000E-01  8.50000000E-01
  8.50000000E-01  8.50000000E-01  8.50000000E-01  8.50000000E-01  8.50000000E-01
  8.50000000E-01  8.50000000E-01  8.50000000E-01  8.50000000E-01  8.50000000E-01
  8.50000000E-01  8.50000000E-01  8.50000000E-01  8.50000000E-01  8.50000000E-01
  8.50000000E-01  8.50000000E-01  8.50000000E-01  8.50000000E-01  8.50000000E-01
  8.50000000E-01  8.50000000E-01  8.50000000E-01  8.50000000E-01  8.50000000E-01
  8.50000000E-01  8.50000000E-01  8.50000000E-01  8.50000000E-01  8.50000000E-01
  8.50000000E-01  8.50000000E-01  8.50000000E-01  8.50000000E-01  8.50000000E-01
  8.50000000E-01  8.50000000E-01  8.50000000E-01  8.50000000E-01  8.50000000E-01
  8.50000000E-01  8.50000000E-01  8.50000000E-01  8.50000000E-01  8.50000000E-01
  8.50000000E-01  8.50000000E-01  8.50000000E-01  8.50000000E-01  8.50000000E-01
  8.50000000E-01  8.50000000E-01  8.50000000E-01  8.50000000E-01  8.50000000E-01
  8.50000000E-01  8.50000000E-01  8.50000000E-01  8.50000000E-01  8.50000000E-01
  8.50000000E-01  8.50000000E-01  8.50000000E-01  8.50000000E-01  8.50000000E-01
  8.50000000E-01  8.50000000E-01  8.50000000E-01  8.50000000E-01  8.50000000E-01
  8.50000000E-01  8.50000000E-01  8.50000000E-01  8.50000000E-01  8.50000000E-01
  8.50000000E-01  8.50000000E-01  8.50000000E-01  8.50000000E-01  8.50000000E-01
  8.50000000E-01  8.50000000E-01  8.50000000E-01  8.50000000E-01  8.50000000E-01
  8.50000000E-01  8.50000000E-01  8.50000000E-01  8.50000000E-01  8.50000000E-01
  8.50000000E-01  8.50000000E-01  8.50000000E-01  8.50000000E-01  8.50000000E-01
  8.50000000E-01  8.50000000E-01  8.50000000E-01  8.50000000E-01  8.50000000E-01
  8.50000000E-01  8.50000000E-01  8.50000000E-01  8.50000000E-01  8.50000000E-01
  8.50000000E-01  8.50000000E-01  8.50000000E-01  8.50000000E-01  8.50000000E-01
  8.50000000E-01  8.50000000E-01  8.50000000E-01  8.50000000E-01  8.50000000E-01
  8.50000000E-01  8.50000000E-01  8.50000000E-01  8.50000000E-01  8.50000000E-01
  8.50000000E-01  8.50000000E-01  8.50000000E-01  8.50000000E-01  8.50000000E-01
  8.50000000E-01  8.50000000E-01  8.50000000E-01  8.50000000E-01  8.50000000E-01
  8.50000000E-01  8.50000000E-01  8.50000000E-01  8.50000000E-01  8.50000000E-01
  8.50000000E-01  8.50000000E-01  8.50000000E-01  8.50000000E-01  8.50000000E-01
  8.50000000E-01  8.50000000E-01  8.50000000E-01  8.50000000E-01  8.50000000E-01
  8.50000000E-01  8.50000000E-01  8.50000000E-01  8.50000000E-01  8.50000000E-01
  8.50000000E-01  8.50000000E-01  8.50000000E-01  8.50000000E-01  8.50000000E-01
  8.50000000E-01  8.50000000E-01  8.50000000E-01  8.50000000E-01  8.50000000E-01
  8.50000000E-01  8.50000000E-01  8.50000000E-01  8.50000000E-01  8.50000000E-01
  8.50000000E-01  8.50000000E-01  8.50000000E-01  8.50000000E-01  8.50000000E-01
  8.50000000E-01  8.50000000E-01  8.50000000E-01  8.50000000E-01  8.50000000E-01
  8.50000000E-01  8.50000000E-01  8.50000000E-01  8.50000000E-01  8.50000000E-01
  8.50000000E-01  8.50000000E-01  8.50000000E-01  8.50000000E-01  8.50000000E-01
  8.50000000E-01  8.50000000E-01  8.50000000E-01  8.50000000E-01  8.50000000E-01
  8.50000000E-01  8.50000000E-01  8.50000000E-01  8.50000000E-01  8.50000000E-01
  8.50000000E-01  8.50000000E-01  8.50000000E-01  8.50000000E-01  8.50000000E-01
  8.50000000E-01  8.50000000E-01  8.50000000E-01  8.50000000E-01  8.50000000E-01
  8.50000000E-01  8.50000000E-01  8.50000000E-01  8.50000000E-01  8.50000000E-01
  8.50000000E-01  8.50000000E-01  8.50000000E-01  8.50000000E-01  8.50000000E-01
  8.50000000E-01  8.50000000E-01  8.50000000E-01  8.50000000E-01  8.50000000E-01
  8.50000000E-01  8.50000000E-01  8.50000000E-01  8.50000000E-01  8.50000000E-01
  8.50000000E-01  8.50000000E-01  8.50000000E-01  8.50000000E-01  8.50000000E-01
  8.50000000E-01  8.50000000E-01  8.50000000E-01  8.50000000E-01  8.50000000E-01
  8.50000000E-01  8.50000000E-01  8.50000000E-01  8.50000000E-01  8.50000000E-01
  8.50000000E-01  8.50000000E-01  8.50000000E-01  8.50000000E-01  8.50000000E-01
  8.50000000E-01  8.50000000E-01  8.50000000E-01  8.50000000E-01  8.50000000E-01
  8.50000000E-01  8.50000000E-01  8.50000000E-01  8.50000000E-01  8.50000000E-01
  8.50000000E-01  8.50000000E-01  8.50000000E-01  8.50000000E-01  8.50000000E-01
  8.50000000E-01  8.50000000E-01  8.50000000E-01  8.50000000E-01  8.50000000E-01
  8.50000000E-01  8.50000000E-01  8.50000000E-01  8.50000000E-01  8.50000000E-01
  8.50000000E-01  8.50000000E-01  8.50000000E-01  8.50000000E-01  8.50000000E-01
  8.50000000E-01  8.50000000E-01  8.50000000E-01  8.50000000E-01  8.50000000E-01
  8.50000000E-01  8.50000000E-01  8.50000000E-01  8.50000000E-01  8.50000000E-01
  8.50000000E-01  8.50000000E-01  8.50000000E-01  8.50000000E-01  8.50000000E-01
  8.50000000E-01  8.50000000E-01  8.50000000E-01  8.50000000E-01  8.50000000E-01
  8.50000000E-01  8.50000000E-01  8.50000000E-01  8.50000000E-01  8.50000000E-01
  8.50000000E-01  8.50000000E-01  8.50000000E-01  8.50000000E-01  8.50000000E-01
  8.50000000E-01  8.50000000E-01  8.50000000E-01  8.50000000E-01  8.50000000E-01
  8.50000000E-01  8.50000000E-01  8.50000000E-01  8.50000000E-01  8.50000000E-01
  8.50000000E-01  8.50000000E-01  8.50000000E-01  8.50000000E-01  8.50000000E-01
  8.50000000E-01  8.50000000E-01  8.50000000E-01  8.50000000E-01  8.50000000E-01
  8.50000000E-01  8.50000000E-01  8.50000000E-01  8.50000000E-01  8.50000000E-01
  8.50000000E-01  8.50000000E-01  8.50000000E-01  8.50000000E-01  8.50000000E-01
  8.50000000E-01  8.50000000E-01  8.50000000E-01  8.50000000E-01  8.50000000E-01
  8.50000000E-01  8.50000000E-01  8.50000000E-01  8.50000000E-01  8.50000000E-01
  8.50000000E-01  8.50000000E-01  8.50000000E-01  8.50000000E-01  8.50000000E-01
  8.50000000E-01  8.50000000E-01  8.50000000E-01  8.50000000E-01  8.50000000E-01
  8.50000000E-01  8.50000000E-01  8.50000000E-01  8.50000000E-01  8.50000000E-01
  8.50000000E-01  8.50000000E-01  8.50000000E-01  8.50000000E-01  8.50000000E-01
  8.50000000E-01  8.50000000E-01  8.50000000E-01  8.50000000E-01  8.50000000E-01
  8.50000000E-01  8.50000000E-01  8.50000000E-01  8.50000000E-01  8.50000000E-01
  8.50000000E-01  8.50000000E-01  8.50000000E-01  8.50000000E-01  8.50000000E-01
  8.50000000E-01  8.50000000E-01  8.50000000E-01  8.50000000E-01  8.50000000E-01
  8.50000000E-01  8.50000000E-01  8.50000000E-01  8.50000000E-01  8.50000000E-01
  8.50000000E-01  8.50000000E-01  8.50000000E-01  8.50000000E-01  8.50000000E-01
  8.50000000E-01  8.50000000E-01  8.50000000E-01  8.50000000E-01  8.50000000E-01
  8.50000000E-01  8.50000000E-01  8.50000000E-01  8.50000000E-01  8.50000000E-01
  8.50000000E-01  8.50000000E-01  8.50000000E-01  8.50000000E-01  8.50000000E-01
  8.50000000E-01  8.50000000E-01  8.50000000E-01  8.50000000E-01  8.50000000E-01
  8.50000000E-01  8.50000000E-01  8.50000000E-01  8.50000000E-01  8.50000000E-01
  8.50000000E-01  8.50000000E-01  8.50000000E-01  8.50000000E-01  8.50000000E-01
  8.50000000E-01  8.50000000E-01  8.50000000E-01  8.50000000E-01  8.50000000E-01
  8.50000000E-01  8.50000000E-01  8.50000000E-01  8.50000000E-01  8.50000000E-01
  8.50000000E-01  8.50000000E-01  8.50000000E-01  8.50000000E-01  8.50000000E-01
  8.50000000E-01  8.50000000E-01  8.50000000E-01  8.50000000E-01  8.50000000E-01
  8.50000000E-01  8.50000000E-01  8.50000000E-01  8.50000000E-01  8.50000000E-01
  8.50000000E-01  8.50000000E-01  8.50000000E-01  8.50000000E-01  8.50000000E-01
  8.50000000E-01  8.50000000E-01  8.50000000E-01  8.50000000E-01  8.50000000E-01
  8.50000000E-01  8.50000000E-01  8.50000000E-01  8.50000000E-01  8.50000000E-01
  8.50000000E-01  8.50000000E-01  8.50000000E-01  8.50000000E-01  8.50000000E-01
  8.50000000E-01  8.50000000E-01  8.50000000E-01  8.50000000E-01  8.50000000E-01
  8.50000000E-01  8.50000000E-01  8.50000000E-01  8.50000000E-01  8.50000000E-01
  8.50000000E-01  8.50000000E-01  8.50000000E-01  8.50000000E-01  8.50000000E-01
  8.50000000E-01  8.50000000E-01  8.50000000E-01  8.50000000E-01  8.50000000E-01
  8.50000000E-01  8.50000000E-01  8.50000000E-01  8.50000000E-01  8.50000000E-01
  8.50000000E-01  8.50000000E-01  8.50000000E-01  8.50000000E-01  8.50000000E-01
  8.50000000E-01  8.50000000E-01  8.50000000E-01  8.50000000E-01  8.50000000E-01
  8.50000000E-01  8.50000000E-01  8.50000000E-01  8.50000000E-01  8.50000000E-01
  8.50000000E-01  8.50000000E-01  8.50000000E-01  8.50000000E-01  8.50000000E-01
  8.50000000E-01  8.50000000E-01  8.50000000E-01  8.50000000E-01  8.50000000E-01
  8.50000000E-01  8.50000000E-01  8.50000000E-01  8.50000000E-01  8.50000000E-01
  8.50000000E-01  8.50000000E-01  8.50000000E-01  8.50000000E-01  8.50000000E-01
  8.50000000E-01  8.50000000E-01  8.50000000E-01  8.50000000E-01  8.50000000E-01
  8.50000000E-01  8.50000000E-01  8.50000000E-01  8.50000000E-01  8.50000000E-01
  8.50000000E-01  8.50000000E-01  8.50000000E-01  8.50000000E-01  8.50000000E-01
  8.50000000E-01  8.50000000E-01  8.50000000E-01  8.50000000E-01  8.50000000E-01
  8.50000000E-01  8.50000000E-01  8.50000000E-01  8.50000000E-01  8.50000000E-01
  8.50000000E-01  8.50000000E-01  8.50000000E-01  8.50000000E-01  8.50000000E-01
  8.50000000E-01  8.50000000E-01  8.50000000E-01  8.50000000E-01  8.50000000E-01
  8.50000000E-01  8.50000000E-01  8.50000000E-01  8.50000000E-01  8.50000000E-01
  8.50000000E-01  8.50000000E-01  8.50000000E-01  8.50000000E-01  8.50000000E-01
  8.50000000E-01  8.50000000E-01  8.50000000E-01  8.50000000E-01  8.50000000E-01
  8.50000000E-01  8.50000000E-01  8.50000000E-01  8.50000000E-01  8.50000000E-01
  8.50000000E-01  8.50000000E-01  8.50000000E-01  8.50000000E-01  8.50000000E-01
  8.50000000E-01  8.50000000E-01  8.50000000E-01  8.50000000E-01  8.50000000E-01
  8.50000000E-01  8.50000000E-01  8.50000000E-01  8.50000000E-01  8.50000000E-01
  8.50000000E-01  8.50000000E-01  8.50000000E-01  8.50000000E-01  8.50000000E-01
  8.50000000E-01  8.50000000E-01  8.50000000E-01  8.50000000E-01  8.50000000E-01
  8.50000000E-01  8.50000000E-01  8.50000000E-01  8.50000000E-01  8.50000000E-01
  8.50000000E-01  8.50000000E-01  8.50000000E-01  8.50000000E-01  8.50000000E-01
  8.50000000E-01  8.50000000E-01  8.50000000E-01  8.50000000E-01  8.50000000E-01
  8.50000000E-01  8.50000000E-01  8.50000000E-01  8.50000000E-01  8.50000000E-01
  8.50000000E-01  8.50000000E-01  8.50000000E-01  8.50000000E-01  8.50000000E-01
  8.50000000E-01  8.50000000E-01  8.50000000E-01  8.50000000E-01  8.50000000E-01
  8.50000000E-01  8.50000000E-01  8.50000000E-01  8.50000000E-01  8.50000000E-01
  8.50000000E-01  8.50000000E-01  8.50000000E-01  8.50000000E-01  8.50000000E-01
  8.50000000E-01  8.50000000E-01  8.50000000E-01  8.50000000E-01  8.50000000E-01
  8.50000000E-01  8.50000000E-01  8.50000000E-01  8.50000000E-01  8.50000000E-01
  8.50000000E-01  8.50000000E-01  8.50000000E-01  8.50000000E-01  8.50000000E-01
  8.50000000E-01  8.50000000E-01  8.50000000E-01  8.50000000E-01  8.50000000E-01
  8.50000000E-01  8.50000000E-01  8.50000000E-01  8.50000000E-01  8.50000000E-01
  8.50000000E-01  8.50000000E-01  8.50000000E-01  8.50000000E-01  8.50000000E-01
  8.50000000E-01  8.50000000E-01  8.50000000E-01  8.50000000E-01  8.50000000E-01
  8.50000000E-01  8.50000000E-01  8.50000000E-01  8.50000000E-01  8.50000000E-01
  8.50000000E-01  8.50000000E-01  8.50000000E-01  8.50000000E-01  8.50000000E-01
  8.50000000E-01  8.50000000E-01  8.50000000E-01  8.50000000E-01  8.50000000E-01
  8.50000000E-01  8.50000000E-01  8.50000000E-01  8.50000000E-01  8.50000000E-01
  8.50000000E-01  8.50000000E-01  8.50000000E-01  8.50000000E-01  8.50000000E-01
  8.50000000E-01  8.50000000E-01  8.50000000E-01  8.50000000E-01  8.50000000E-01
  8.50000000E-01  8.50000000E-01  8.50000000E-01  8.50000000E-01  8.50000000E-01
  8.50000000E-01  8.50000000E-01  8.50000000E-01  8.50000000E-01  8.50000000E-01
  8.50000000E-01  8.50000000E-01  8.50000000E-01  8.50000000E-01  8.50000000E-01
  8.50000000E-01  8.50000000E-01  8.50000000E-01  8.50000000E-01  8.50000000E-01
  8.50000000E-01  8.50000000E-01  8.50000000E-01  8.50000000E-01  8.50000000E-01
  8.50000000E-01  8.50000000E-01  8.50000000E-01  8.50000000E-01  8.50000000E-01
  8.50000000E-01  8.50000000E-01  8.50000000E-01  8.50000000E-01  8.50000000E-01
  8.50000000E-01  8.50000000E-01  8.50000000E-01  8.50000000E-01  8.50000000E-01
  8.50000000E-01  8.50000000E-01  8.50000000E-01  8.50000000E-01  8.50000000E-01
  8.50000000E-01  8.50000000E-01  8.50000000E-01  8.50000000E-01  8.50000000E-01
  8.50000000E-01  8.50000000E-01  8.50000000E-01  8.50000000E-01  8.50000000E-01
  8.50000000E-01  8.50000000E-01  8.50000000E-01  8.50000000E-01  8.50000000E-01
  8.50000000E-01  8.50000000E-01  8.50000000E-01  8.50000000E-01  8.50000000E-01
  8.50000000E-01  8.50000000E-01  8.50000000E-01  8.50000000E-01  8.50000000E-01
  8.50000000E-01  8.50000000E-01  8.50000000E-01  8.50000000E-01  8.50000000E-01
  8.50000000E-01  8.50000000E-01  8.50000000E-01  8.50000000E-01  8.50000000E-01
  8.50000000E-01  8.50000000E-01  8.50000000E-01  8.50000000E-01  8.50000000E-01
  8.50000000E-01  8.50000000E-01  8.50000000E-01  8.50000000E-01  8.50000000E-01
  8.50000000E-01  8.50000000E-01  8.50000000E-01  8.50000000E-01  8.50000000E-01
  8.50000000E-01  8.50000000E-01  8.50000000E-01  8.50000000E-01  8.50000000E-01
  8.50000000E-01  8.50000000E-01  8.50000000E-01  8.50000000E-01  8.50000000E-01
  8.50000000E-01  8.50000000E-01  8.50000000E-01  8.50000000E-01  8.50000000E-01
  8.50000000E-01  8.50000000E-01  8.50000000E-01  8.50000000E-01  8.50000000E-01
  8.50000000E-01  8.50000000E-01  8.50000000E-01  8.50000000E-01  8.50000000E-01
  8.50000000E-01  8.50000000E-01  8.50000000E-01  8.50000000E-01  8.50000000E-01
  8.50000000E-01  8.50000000E-01  8.50000000E-01  8.50000000E-01  8.50000000E-01
  8.50000000E-01  8.50000000E-01  8.50000000E-01  8.50000000E-01  8.50000000E-01
  8.50000000E-01  8.50000000E-01  8.50000000E-01  8.50000000E-01  8.50000000E-01
  8.50000000E-01  8.50000000E-01  8.50000000E-01  8.50000000E-01  8.50000000E-01
  8.50000000E-01  8.50000000E-01  8.50000000E-01  8.50000000E-01  8.50000000E-01
  8.50000000E-01  8.50000000E-01  8.50000000E-01  8.50000000E-01  8.50000000E-01
  8.50000000E-01  8.50000000E-01  8.50000000E-01  8.50000000E-01  8.50000000E-01
  8.50000000E-01  8.50000000E-01  8.50000000E-01  8.50000000E-01  8.50000000E-01
  8.50000000E-01  8.50000000E-01  8.50000000E-01  8.50000000E-01  8.50000000E-01
  8.50000000E-01  8.50000000E-01  8.50000000E-01  8.50000000E-01  8.50000000E-01
  8.50000000E-01  8.50000000E-01  8.50000000E-01  8.50000000E-01  8.50000000E-01
  8.50000000E-01  8.50000000E-01  8.50000000E-01  8.50000000E-01  8.50000000E-01
  8.50000000E-01  8.50000000E-01  8.50000000E-01  8.50000000E-01  8.50000000E-01
  8.50000000E-01  8.50000000E-01  8.50000000E-01  8.50000000E-01  8.50000000E-01
  8.50000000E-01  8.50000000E-01  8.50000000E-01  8.50000000E-01  8.50000000E-01
  8.50000000E-01  8.50000000E-01  8.50000000E-01  8.50000000E-01  8.50000000E-01
  8.50000000E-01  8.50000000E-01  8.50000000E-01  8.50000000E-01  8.50000000E-01
  8.50000000E-01  8.50000000E-01  8.50000000E-01  8.50000000E-01  8.50000000E-01
  8.50000000E-01  8.50000000E-01  8.50000000E-01  8.50000000E-01  8.50000000E-01
  8.50000000E-01  8.50000000E-01  8.50000000E-01  8.50000000E-01  8.50000000E-01
  8.50000000E-01  8.50000000E-01  8.50000000E-01  8.50000000E-01  8.50000000E-01
  8.50000000E-01  8.50000000E-01  8.50000000E-01  8.50000000E-01  8.50000000E-01
  8.50000000E-01  8.50000000E-01  8.50000000E-01  8.50000000E-01  8.50000000E-01
  8.50000000E-01  8.50000000E-01  8.50000000E-01  8.50000000E-01  8.50000000E-01
  8.50000000E-01  8.50000000E-01  8.50000000E-01  8.50000000E-01  8.50000000E-01
  8.50000000E-01  8.50000000E-01  8.50000000E-01  8.50000000E-01  8.50000000E-01
  8.50000000E-01  8.50000000E-01  8.50000000E-01  8.50000000E-01  8.50000000E-01
  8.50000000E-01  8.50000000E-01  8.50000000E-01  8.50000000E-01  8.50000000E-01
  8.50000000E-01  8.50000000E-01  8.50000000E-01  8.50000000E-01  8.50000000E-01
  8.50000000E-01  8.50000000E-01  8.50000000E-01  8.50000000E-01  8.50000000E-01
  8.50000000E-01  8.50000000E-01  8.50000000E-01  8.50000000E-01  8.50000000E-01
  8.50000000E-01  8.50000000E-01  8.50000000E-01  8.50000000E-01  8.50000000E-01
  8.50000000E-01  8.50000000E-01  8.50000000E-01  8.50000000E-01  8.50000000E-01
  8.50000000E-01  8.50000000E-01  8.50000000E-01  8.50000000E-01  8.50000000E-01
  8.50000000E-01  8.50000000E-01  8.50000000E-01  8.50000000E-01  8.50000000E-01
  8.50000000E-01  8.50000000E-01  8.50000000E-01  8.50000000E-01  8.50000000E-01
  8.50000000E-01  8.50000000E-01  8.50000000E-01  8.50000000E-01  8.50000000E-01
  8.50000000E-01  8.50000000E-01  8.50000000E-01  8.50000000E-01  8.50000000E-01
  8.50000000E-01  8.50000000E-01  8.50000000E-01  8.50000000E-01  8.50000000E-01
  8.50000000E-01  8.50000000E-01  8.50000000E-01  8.50000000E-01  8.50000000E-01
  8.50000000E-01  8.50000000E-01  8.50000000E-01  8.50000000E-01  8.50000000E-01
  8.50000000E-01  8.50000000E-01  8.50000000E-01  8.50000000E-01  8.50000000E-01
  8.50000000E-01  8.50000000E-01  8.50000000E-01  8.50000000E-01  8.50000000E-01
  8.50000000E-01  8.50000000E-01  8.50000000E-01  8.50000000E-01  8.50000000E-01
  8.50000000E-01  8.50000000E-01  8.50000000E-01  8.50000000E-01  8.50000000E-01
  8.50000000E-01  8.50000000E-01  8.50000000E-01  8.50000000E-01  8.50000000E-01
  8.50000000E-01  8.50000000E-01  8.50000000E-01  8.50000000E-01  8.50000000E-01
  8.50000000E-01  8.50000000E-01  8.50000000E-01  8.50000000E-01  8.50000000E-01
  8.50000000E-01  8.50000000E-01  8.50000000E-01  8.50000000E-01  8.50000000E-01
  8.50000000E-01  8.50000000E-01  8.50000000E-01  8.50000000E-01  8.50000000E-01
  8.50000000E-01  8.50000000E-01  8.50000000E-01  8.50000000E-01  8.50000000E-01
  8.50000000E-01  8.50000000E-01  8.50000000E-01  8.50000000E-01  8.50000000E-01
  8.50000000E-01  8.50000000E-01  8.50000000E-01  8.50000000E-01  8.50000000E-01
  8.50000000E-01  8.50000000E-01  8.50000000E-01  8.50000000E-01  8.50000000E-01
  8.50000000E-01  8.50000000E-01  8.50000000E-01  8.50000000E-01  8.50000000E-01
  8.50000000E-01  8.50000000E-01  8.50000000E-01  8.50000000E-01  8.50000000E-01
  8.50000000E-01  8.50000000E-01  8.50000000E-01  8.50000000E-01  8.50000000E-01
  8.50000000E-01  8.50000000E-01  8.50000000E-01  8.50000000E-01  8.50000000E-01
  8.50000000E-01  8.50000000E-01  8.50000000E-01  8.50000000E-01  8.50000000E-01
  8.50000000E-01  8.50000000E-01  8.50000000E-01  8.50000000E-01  8.50000000E-01
  8.50000000E-01  8.50000000E-01  8.50000000E-01  8.50000000E-01  8.50000000E-01
  8.50000000E-01  8.50000000E-01  8.50000000E-01  8.50000000E-01  8.50000000E-01
  8.50000000E-01  8.50000000E-01  8.50000000E-01  8.50000000E-01  8.50000000E-01
  8.50000000E-01  8.50000000E-01  8.50000000E-01  8.50000000E-01  8.50000000E-01
  8.50000000E-01  8.50000000E-01  8.50000000E-01  8.50000000E-01  8.50000000E-01
  8.50000000E-01  8.50000000E-01  8.50000000E-01  8.50000000E-01  8.50000000E-01
  8.50000000E-01  8.50000000E-01  8.50000000E-01  8.50000000E-01  8.50000000E-01
  8.50000000E-01  8.50000000E-01  8.50000000E-01  8.50000000E-01  8.50000000E-01
  8.50000000E-01  8.50000000E-01  8.50000000E-01  8.50000000E-01  8.50000000E-01
  8.50000000E-01  8.50000000E-01  8.50000000E-01  8.50000000E-01  8.50000000E-01
  8.50000000E-01  8.50000000E-01  8.50000000E-01  8.50000000E-01  8.50000000E-01
  8.50000000E-01  8.50000000E-01  8.50000000E-01  8.50000000E-01  8.50000000E-01
  8.50000000E-01  8.50000000E-01  8.50000000E-01  8.50000000E-01  8.50000000E-01
  8.50000000E-01  8.50000000E-01  8.50000000E-01  8.50000000E-01  8.50000000E-01
  8.50000000E-01  8.50000000E-01  8.50000000E-01  8.50000000E-01  8.50000000E-01
  8.50000000E-01  8.50000000E-01  8.50000000E-01  8.50000000E-01  8.50000000E-01
  8.50000000E-01  8.50000000E-01  8.50000000E-01  8.50000000E-01  8.50000000E-01
  8.50000000E-01  8.50000000E-01  8.50000000E-01  8.50000000E-01  8.50000000E-01
  8.50000000E-01  8.50000000E-01  8.50000000E-01  8.50000000E-01  8.50000000E-01
  8.50000000E-01  8.50000000E-01  8.50000000E-01  8.50000000E-01  8.50000000E-01
  8.50000000E-01  8.50000000E-01  8.50000000E-01  8.50000000E-01  8.50000000E-01
  8.50000000E-01  8.50000000E-01  8.50000000E-01  8.50000000E-01  8.50000000E-01
  8.50000000E-01  8.50000000E-01  8.50000000E-01  8.50000000E-01  8.50000000E-01
  8.50000000E-01  8.50000000E-01  8.50000000E-01  8.50000000E-01  8.50000000E-01
  8.50000000E-01  8.50000000E-01  8.50000000E-01  8.50000000E-01  8.50000000E-01
  8.50000000E-01  8.50000000E-01  8.50000000E-01  8.50000000E-01  8.50000000E-01
  8.50000000E-01  8.50000000E-01  8.50000000E-01  8.50000000E-01  8.50000000E-01
  8.50000000E-01  8.50000000E-01  8.50000000E-01  8.50000000E-01  8.50000000E-01
  8.50000000E-01  8.50000000E-01  8.50000000E-01  8.50000000E-01  8.50000000E-01
  8.50000000E-01  8.50000000E-01  8.50000000E-01  8.50000000E-01  8.50000000E-01
  8.50000000E-01  8.50000000E-01  8.50000000E-01  8.50000000E-01  8.50000000E-01
  8.50000000E-01  8.50000000E-01  8.50000000E-01  8.50000000E-01  8.50000000E-01
  8.50000000E-01  8.50000000E-01  8.50000000E-01  8.50000000E-01  8.50000000E-01
  8.50000000E-01  8.50000000E-01  8.50000000E-01  8.50000000E-01  8.50000000E-01
  8.50000000E-01  8.50000000E-01  8.50000000E-01  8.50000000E-01  8.50000000E-01
  8.50000000E-01  8.50000000E-01  8.50000000E-01  8.50000000E-01  8.50000000E-01
  8.50000000E-01  8.50000000E-01  8.50000000E-01  8.50000000E-01  8.50000000E-01
  8.50000000E-01  8.50000000E-01  8.50000000E-01  8.50000000E-01  8.50000000E-01
  8.50000000E-01  8.50000000E-01  8.50000000E-01  8.50000000E-01  8.50000000E-01
  8.50000000E-01  8.50000000E-01  8.50000000E-01  8.50000000E-01  8.50000000E-01
  8.50000000E-01  8.50000000E-01  8.50000000E-01  8.50000000E-01  8.50000000E-01
  8.50000000E-01  8.50000000E-01  8.50000000E-01  8.50000000E-01  8.50000000E-01
  8.50000000E-01  8.50000000E-01  8.50000000E-01  8.50000000E-01  8.50000000E-01
  8.50000000E-01  8.50000000E-01  8.50000000E-01  8.50000000E-01  8.50000000E-01
  8.50000000E-01  8.50000000E-01  8.50000000E-01  8.50000000E-01  8.50000000E-01
  8.50000000E-01  8.50000000E-01  8.50000000E-01  8.50000000E-01  8.50000000E-01
  8.50000000E-01  8.50000000E-01  8.50000000E-01  8.50000000E-01  8.50000000E-01
  8.50000000E-01  8.50000000E-01  8.50000000E-01  8.50000000E-01  8.50000000E-01
  8.50000000E-01  8.50000000E-01  8.50000000E-01  8.50000000E-01  8.50000000E-01
  8.50000000E-01  8.50000000E-01  8.50000000E-01  8.50000000E-01  8.50000000E-01
  8.50000000E-01  8.50000000E-01  8.50000000E-01  8.50000000E-01  8.50000000E-01
  8.50000000E-01  8.50000000E-01  8.50000000E-01  8.50000000E-01  8.50000000E-01
  8.50000000E-01  8.50000000E-01  8.50000000E-01  8.50000000E-01  8.50000000E-01
  8.50000000E-01  8.50000000E-01  8.50000000E-01  8.50000000E-01  8.50000000E-01
  8.50000000E-01  8.50000000E-01  8.50000000E-01  8.50000000E-01  8.50000000E-01
  8.50000000E-01  8.50000000E-01  8.50000000E-01  8.50000000E-01  8.50000000E-01
  8.50000000E-01  8.50000000E-01  8.50000000E-01  8.50000000E-01  8.50000000E-01
  8.50000000E-01  8.50000000E-01  8.50000000E-01  8.50000000E-01  8.50000000E-01
  8.50000000E-01  8.50000000E-01  8.50000000E-01  8.50000000E-01  8.50000000E-01
  8.50000000E-01  8.50000000E-01  8.50000000E-01  8.50000000E-01  8.50000000E-01
  8.50000000E-01  8.50000000E-01  8.50000000E-01  8.50000000E-01  8.50000000E-01
  8.50000000E-01  8.50000000E-01  8.50000000E-01  8.50000000E-01  8.50000000E-01
  8.50000000E-01  8.50000000E-01  8.50000000E-01  8.50000000E-01  8.50000000E-01
  8.50000000E-01  8.50000000E-01  8.50000000E-01  8.50000000E-01  8.50000000E-01
  8.50000000E-01  8.50000000E-01  8.50000000E-01  8.50000000E-01  8.50000000E-01
  8.50000000E-01  8.50000000E-01  8.50000000E-01  8.50000000E-01  8.50000000E-01
  8.50000000E-01  8.50000000E-01  8.50000000E-01  8.50000000E-01  8.50000000E-01
  8.50000000E-01  8.50000000E-01  8.50000000E-01  8.50000000E-01  8.50000000E-01
  8.50000000E-01  8.50000000E-01  8.50000000E-01  8.50000000E-01  8.50000000E-01
  8.50000000E-01  8.50000000E-01  8.50000000E-01  8.50000000E-01  8.50000000E-01
  8.50000000E-01  8.50000000E-01  8.50000000E-01  8.50000000E-01  8.50000000E-01
  8.50000000E-01  8.50000000E-01  8.50000000E-01  8.50000000E-01  8.50000000E-01
  8.50000000E-01  8.50000000E-01  8.50000000E-01  8.50000000E-01  8.50000000E-01
  8.50000000E-01  8.50000000E-01  8.50000000E-01  8.50000000E-01  8.50000000E-01
  8.50000000E-01  8.50000000E-01  8.50000000E-01  8.50000000E-01  8.50000000E-01
  8.50000000E-01  8.50000000E-01  8.50000000E-01  8.50000000E-01  8.50000000E-01
  8.50000000E-01  8.50000000E-01  8.50000000E-01  8.50000000E-01  8.50000000E-01
  8.50000000E-01  8.50000000E-01  8.50000000E-01  8.50000000E-01  8.50000000E-01
  8.50000000E-01  8.50000000E-01  8.50000000E-01  8.50000000E-01  8.50000000E-01
  8.50000000E-01  8.50000000E-01  8.50000000E-01  8.50000000E-01  8.50000000E-01
  8.50000000E-01  8.50000000E-01  8.50000000E-01  8.50000000E-01  8.50000000E-01
  8.50000000E-01  8.50000000E-01  8.50000000E-01  8.50000000E-01  8.50000000E-01
  8.50000000E-01  8.50000000E-01  8.50000000E-01  8.50000000E-01  8.50000000E-01
  8.50000000E-01  8.50000000E-01  8.50000000E-01  8.50000000E-01  8.50000000E-01
  8.50000000E-01  8.50000000E-01  8.50000000E-01  8.50000000E-01  8.50000000E-01
  8.50000000E-01  8.50000000E-01  8.50000000E-01  8.50000000E-01  8.50000000E-01
  8.50000000E-01  8.50000000E-01  8.50000000E-01  8.50000000E-01  8.50000000E-01
  8.50000000E-01  8.50000000E-01  8.50000000E-01  8.50000000E-01  8.50000000E-01
  8.50000000E-01  8.50000000E-01  8.50000000E-01  8.50000000E-01  8.50000000E-01
  8.50000000E-01  8.50000000E-01  8.50000000E-01  8.50000000E-01  8.50000000E-01
  8.50000000E-01  8.50000000E-01  8.50000000E-01  8.50000000E-01  8.50000000E-01
  8.50000000E-01  8.50000000E-01  8.50000000E-01  8.50000000E-01  8.50000000E-01
  8.50000000E-01  8.50000000E-01  8.50000000E-01  8.50000000E-01  8.50000000E-01
  8.50000000E-01  8.50000000E-01  8.50000000E-01  8.50000000E-01  8.50000000E-01
  8.50000000E-01  8.50000000E-01  8.50000000E-01  8.50000000E-01  8.50000000E-01
  8.50000000E-01  8.50000000E-01  8.50000000E-01  8.50000000E-01  8.50000000E-01
  8.50000000E-01  8.50000000E-01  8.50000000E-01  8.50000000E-01  8.50000000E-01
  8.50000000E-01  8.50000000E-01  8.50000000E-01  8.50000000E-01  8.50000000E-01
  8.50000000E-01  8.50000000E-01  8.50000000E-01  8.50000000E-01  8.50000000E-01
  8.50000000E-01  8.50000000E-01  8.50000000E-01  8.50000000E-01  8.50000000E-01
  8.50000000E-01  8.50000000E-01  8.50000000E-01  8.50000000E-01  8.50000000E-01
  8.50000000E-01  8.50000000E-01  8.50000000E-01  8.50000000E-01  8.50000000E-01
  8.50000000E-01  8.50000000E-01  8.50000000E-01  8.50000000E-01  8.50000000E-01
  8.50000000E-01  8.50000000E-01  8.50000000E-01  8.50000000E-01  8.50000000E-01
  8.50000000E-01  8.50000000E-01  8.50000000E-01  8.50000000E-01  8.50000000E-01
  8.50000000E-01  8.50000000E-01  8.50000000E-01  8.50000000E-01  8.50000000E-01
  8.50000000E-01  8.50000000E-01  8.50000000E-01  8.50000000E-01  8.50000000E-01
  8.50000000E-01  8.50000000E-01  8.50000000E-01  8.50000000E-01  8.50000000E-01
  8.50000000E-01  8.50000000E-01  8.50000000E-01  8.50000000E-01  8.50000000E-01
  8.50000000E-01  8.50000000E-01  8.50000000E-01  8.50000000E-01  8.50000000E-01
  8.50000000E-01  8.50000000E-01  8.50000000E-01  8.50000000E-01  8.50000000E-01
  8.50000000E-01  8.50000000E-01  8.50000000E-01  8.50000000E-01  8.50000000E-01
  8.50000000E-01  8.50000000E-01  8.50000000E-01  8.50000000E-01  8.50000000E-01
  8.50000000E-01  8.50000000E-01  8.50000000E-01  8.50000000E-01  8.50000000E-01
  8.50000000E-01  8.50000000E-01  8.50000000E-01  8.50000000E-01  8.50000000E-01
  8.50000000E-01  8.50000000E-01  8.50000000E-01  8.50000000E-01  8.50000000E-01
  8.50000000E-01  8.50000000E-01  8.50000000E-01  8.50000000E-01  8.50000000E-01
  8.50000000E-01  8.50000000E-01  8.50000000E-01  8.50000000E-01  8.50000000E-01
  8.50000000E-01  8.50000000E-01  8.50000000E-01  8.50000000E-01  8.50000000E-01
  8.50000000E-01  8.50000000E-01  8.50000000E-01  8.50000000E-01  8.50000000E-01
  8.50000000E-01  8.50000000E-01  8.50000000E-01  8.50000000E-01  8.50000000E-01
  8.50000000E-01  8.50000000E-01  8.50000000E-01  8.50000000E-01  8.50000000E-01
  8.50000000E-01  8.50000000E-01  8.50000000E-01  8.50000000E-01  8.50000000E-01
  8.50000000E-01  8.50000000E-01  8.50000000E-01  8.50000000E-01  8.50000000E-01
  8.50000000E-01  8.50000000E-01  8.50000000E-01  8.50000000E-01  8.50000000E-01
  8.50000000E-01  8.50000000E-01  8.50000000E-01  8.50000000E-01  8.50000000E-01
  8.50000000E-01  8.50000000E-01  8.50000000E-01  8.50000000E-01  8.50000000E-01
  8.50000000E-01  8.50000000E-01  8.50000000E-01  8.50000000E-01  8.50000000E-01
  8.50000000E-01  8.50000000E-01  8.50000000E-01  8.50000000E-01  8.50000000E-01
  8.50000000E-01  8.50000000E-01  8.50000000E-01  8.50000000E-01  8.50000000E-01
  8.50000000E-01  8.50000000E-01  8.50000000E-01  8.50000000E-01  8.50000000E-01
  8.50000000E-01  8.50000000E-01  8.50000000E-01  8.50000000E-01  8.50000000E-01
  8.50000000E-01  8.50000000E-01  8.50000000E-01  8.50000000E-01  8.50000000E-01
  8.50000000E-01  8.50000000E-01  8.50000000E-01  8.50000000E-01  8.50000000E-01
  8.50000000E-01  8.50000000E-01  8.50000000E-01  8.50000000E-01  8.50000000E-01
  8.50000000E-01  8.50000000E-01  8.50000000E-01  8.50000000E-01  8.50000000E-01
  8.50000000E-01  8.50000000E-01  8.50000000E-01  8.50000000E-01  8.50000000E-01
  8.50000000E-01  8.50000000E-01  8.50000000E-01  8.50000000E-01  8.50000000E-01
  8.50000000E-01  8.50000000E-01  8.50000000E-01  8.50000000E-01  8.50000000E-01
  8.50000000E-01  8.50000000E-01  8.50000000E-01  8.50000000E-01  8.50000000E-01
  8.50000000E-01  8.50000000E-01  8.50000000E-01  8.50000000E-01  8.50000000E-01
  8.50000000E-01  8.50000000E-01  8.50000000E-01  8.50000000E-01  8.50000000E-01
  8.50000000E-01  8.50000000E-01  8.50000000E-01  8.50000000E-01  8.50000000E-01
  8.50000000E-01  8.50000000E-01  8.50000000E-01  8.50000000E-01  8.50000000E-01
  8.50000000E-01  8.50000000E-01  8.50000000E-01  8.50000000E-01  8.50000000E-01
  8.50000000E-01  8.50000000E-01  8.50000000E-01  8.50000000E-01  8.50000000E-01
  8.50000000E-01  8.50000000E-01  8.50000000E-01  8.50000000E-01  8.50000000E-01
  8.50000000E-01  8.50000000E-01  8.50000000E-01  8.50000000E-01  8.50000000E-01
  8.50000000E-01  8.50000000E-01  8.50000000E-01  8.50000000E-01  8.50000000E-01
  8.50000000E-01  8.50000000E-01  8.50000000E-01  8.50000000E-01  8.50000000E-01
  8.50000000E-01  8.50000000E-01  8.50000000E-01  8.50000000E-01  8.50000000E-01
  8.50000000E-01  8.50000000E-01  8.50000000E-01  8.50000000E-01  8.50000000E-01
  8.50000000E-01  8.50000000E-01  8.50000000E-01  8.50000000E-01  8.50000000E-01
  8.50000000E-01  8.50000000E-01  8.50000000E-01  8.50000000E-01  8.50000000E-01
  8.50000000E-01  8.50000000E-01  8.50000000E-01  8.50000000E-01  8.50000000E-01
  8.50000000E-01  8.50000000E-01  8.50000000E-01  8.50000000E-01  8.50000000E-01
  8.50000000E-01  8.50000000E-01  8.50000000E-01  8.50000000E-01  8.50000000E-01
  8.50000000E-01  8.50000000E-01  8.50000000E-01  8.50000000E-01  8.50000000E-01
  8.50000000E-01  8.50000000E-01  8.50000000E-01  8.50000000E-01  8.50000000E-01
  8.50000000E-01  8.50000000E-01  8.50000000E-01  8.50000000E-01  8.50000000E-01
  8.50000000E-01  8.50000000E-01  8.50000000E-01  8.50000000E-01  8.50000000E-01
  8.50000000E-01  8.50000000E-01  8.50000000E-01  8.50000000E-01  8.50000000E-01
  8.50000000E-01  8.50000000E-01  8.50000000E-01  8.50000000E-01  8.50000000E-01
  8.50000000E-01  8.50000000E-01  8.50000000E-01  8.50000000E-01  8.50000000E-01
  8.50000000E-01  8.50000000E-01  8.50000000E-01  8.50000000E-01  8.50000000E-01
  8.50000000E-01  8.50000000E-01  8.50000000E-01  8.50000000E-01  8.50000000E-01
  8.50000000E-01  8.50000000E-01  8.50000000E-01  8.50000000E-01  8.50000000E-01
  8.50000000E-01  8.50000000E-01  8.50000000E-01  8.50000000E-01  8.50000000E-01
  8.50000000E-01  8.50000000E-01  8.50000000E-01  8.50000000E-01  8.50000000E-01
  8.50000000E-01  8.50000000E-01  8.50000000E-01  8.50000000E-01  8.50000000E-01
  8.50000000E-01  8.50000000E-01  8.50000000E-01  8.50000000E-01  8.50000000E-01
  8.50000000E-01  8.50000000E-01  8.50000000E-01  8.50000000E-01  8.50000000E-01
  8.50000000E-01  8.50000000E-01  8.50000000E-01  8.50000000E-01  8.50000000E-01
  8.50000000E-01  8.50000000E-01  8.50000000E-01  8.50000000E-01  8.50000000E-01
  8.50000000E-01  8.50000000E-01  8.50000000E-01  8.50000000E-01  8.50000000E-01
  8.50000000E-01  8.50000000E-01  8.50000000E-01  8.50000000E-01  8.50000000E-01
  8.50000000E-01  8.50000000E-01  8.50000000E-01  8.50000000E-01  8.50000000E-01
  8.50000000E-01  8.50000000E-01  8.50000000E-01  8.50000000E-01  8.50000000E-01
  8.50000000E-01  8.50000000E-01  8.50000000E-01  8.50000000E-01  8.50000000E-01
  8.50000000E-01  8.50000000E-01  8.50000000E-01  8.50000000E-01  8.50000000E-01
  8.50000000E-01  8.50000000E-01  8.50000000E-01  8.50000000E-01  8.50000000E-01
  8.50000000E-01  8.50000000E-01  8.50000000E-01  8.50000000E-01  8.50000000E-01
  8.50000000E-01  8.50000000E-01  8.50000000E-01  8.50000000E-01  8.50000000E-01
  8.50000000E-01  8.50000000E-01  8.50000000E-01  8.50000000E-01  8.50000000E-01
  8.50000000E-01  8.50000000E-01  8.50000000E-01  8.50000000E-01  8.50000000E-01
  8.50000000E-01  8.50000000E-01  8.50000000E-01  8.50000000E-01  8.50000000E-01
  8.50000000E-01  8.50000000E-01  8.50000000E-01  8.50000000E-01  8.50000000E-01
  8.50000000E-01  8.50000000E-01  8.50000000E-01  8.50000000E-01  8.50000000E-01
  8.50000000E-01  8.50000000E-01  8.50000000E-01  8.50000000E-01  8.50000000E-01
  8.50000000E-01  8.50000000E-01  8.50000000E-01  8.50000000E-01  8.50000000E-01
  8.50000000E-01  8.50000000E-01  8.50000000E-01  8.50000000E-01  8.50000000E-01
  8.50000000E-01  8.50000000E-01  8.50000000E-01  8.50000000E-01  8.50000000E-01
  8.50000000E-01  8.50000000E-01  8.50000000E-01  8.50000000E-01  8.50000000E-01
  8.50000000E-01  8.50000000E-01  8.50000000E-01  8.50000000E-01  8.50000000E-01
  8.50000000E-01  8.50000000E-01  8.50000000E-01  8.50000000E-01  8.50000000E-01
  8.50000000E-01  8.50000000E-01  8.50000000E-01  8.50000000E-01  8.50000000E-01
  8.50000000E-01  8.50000000E-01  8.50000000E-01  8.50000000E-01  8.50000000E-01
  8.50000000E-01  8.50000000E-01  8.50000000E-01  8.50000000E-01  8.50000000E-01
  8.50000000E-01  8.50000000E-01  8.50000000E-01  8.50000000E-01  8.50000000E-01
  8.50000000E-01  8.50000000E-01  8.50000000E-01  8.50000000E-01  8.50000000E-01
  8.50000000E-01  8.50000000E-01  8.50000000E-01  8.50000000E-01  8.50000000E-01
  8.50000000E-01  8.50000000E-01  8.50000000E-01  8.50000000E-01  8.50000000E-01
  8.50000000E-01  8.50000000E-01  8.50000000E-01  8.50000000E-01  8.50000000E-01
  8.50000000E-01  8.50000000E-01  8.50000000E-01  8.50000000E-01  8.50000000E-01
  8.50000000E-01  8.50000000E-01  8.50000000E-01  8.50000000E-01  8.50000000E-01
  8.50000000E-01  8.50000000E-01  8.50000000E-01  8.50000000E-01  8.50000000E-01
  8.50000000E-01  8.50000000E-01  8.50000000E-01  8.50000000E-01  8.50000000E-01
  8.50000000E-01  8.50000000E-01  8.50000000E-01  8.50000000E-01  8.50000000E-01
  8.50000000E-01  8.50000000E-01  8.50000000E-01  8.50000000E-01  8.50000000E-01
  8.50000000E-01  8.50000000E-01  8.50000000E-01  8.50000000E-01  8.50000000E-01
  8.50000000E-01  8.50000000E-01  8.50000000E-01  8.50000000E-01  8.50000000E-01
  8.50000000E-01  8.50000000E-01  8.50000000E-01  8.50000000E-01  8.50000000E-01
  8.50000000E-01  8.50000000E-01  8.50000000E-01  8.50000000E-01  8.50000000E-01
  8.50000000E-01  8.50000000E-01  8.50000000E-01  8.50000000E-01  8.50000000E-01
  8.50000000E-01  8.50000000E-01  8.50000000E-01  8.50000000E-01  8.50000000E-01
  8.50000000E-01  8.50000000E-01  8.50000000E-01  8.50000000E-01  8.50000000E-01
  8.50000000E-01  8.50000000E-01  8.50000000E-01  8.50000000E-01  8.50000000E-01
  8.50000000E-01  8.50000000E-01  8.50000000E-01  8.50000000E-01  8.50000000E-01
  8.50000000E-01  8.50000000E-01  8.50000000E-01  8.50000000E-01  8.50000000E-01
  8.50000000E-01  8.50000000E-01  8.50000000E-01  8.50000000E-01  8.50000000E-01
  8.50000000E-01  8.50000000E-01  8.50000000E-01  8.50000000E-01  8.50000000E-01
  8.50000000E-01  8.50000000E-01  8.50000000E-01  8.50000000E-01  8.50000000E-01
  8.50000000E-01  8.50000000E-01  8.50000000E-01  8.50000000E-01  8.50000000E-01
  8.50000000E-01  8.50000000E-01  8.50000000E-01  8.50000000E-01  8.50000000E-01
  8.50000000E-01  8.50000000E-01  8.50000000E-01  8.50000000E-01  8.50000000E-01
  8.50000000E-01  8.50000000E-01  8.50000000E-01  8.50000000E-01  8.50000000E-01
  8.50000000E-01  8.50000000E-01  8.50000000E-01  8.50000000E-01  8.50000000E-01
  8.50000000E-01  8.50000000E-01  8.50000000E-01  8.50000000E-01  8.50000000E-01
  8.50000000E-01  8.50000000E-01  8.50000000E-01  8.50000000E-01  8.50000000E-01
  8.50000000E-01  8.50000000E-01  8.50000000E-01  8.50000000E-01  8.50000000E-01
  8.50000000E-01  8.50000000E-01  8.50000000E-01  8.50000000E-01  8.50000000E-01
  8.50000000E-01  8.50000000E-01  8.50000000E-01  8.50000000E-01  8.50000000E-01
  8.50000000E-01  8.50000000E-01  8.50000000E-01  8.50000000E-01  8.50000000E-01
  8.50000000E-01  8.50000000E-01  8.50000000E-01  8.50000000E-01  8.50000000E-01
  8.50000000E-01  8.50000000E-01  8.50000000E-01  8.50000000E-01  8.50000000E-01
  8.50000000E-01  8.50000000E-01  8.50000000E-01  8.50000000E-01  8.50000000E-01
  8.50000000E-01  8.50000000E-01  8.50000000E-01  8.50000000E-01  8.50000000E-01
  8.50000000E-01  8.50000000E-01  8.50000000E-01  8.50000000E-01  8.50000000E-01
  8.50000000E-01  8.50000000E-01  8.50000000E-01  8.50000000E-01  8.50000000E-01
  8.50000000E-01  8.50000000E-01  8.50000000E-01  8.50000000E-01  8.50000000E-01
  8.50000000E-01  8.50000000E-01  8.50000000E-01  8.50000000E-01  8.50000000E-01
  8.50000000E-01  8.50000000E-01  8.50000000E-01  8.50000000E-01  8.50000000E-01
  8.50000000E-01  8.50000000E-01  8.50000000E-01  8.50000000E-01  8.50000000E-01
  8.50000000E-01  8.50000000E-01  8.50000000E-01  8.50000000E-01  8.50000000E-01
  8.50000000E-01  8.50000000E-01  8.50000000E-01  8.50000000E-01  8.50000000E-01
  8.50000000E-01  8.50000000E-01  8.50000000E-01  8.50000000E-01  8.50000000E-01
  8.50000000E-01  8.50000000E-01  8.50000000E-01  8.50000000E-01  8.50000000E-01
  8.50000000E-01  8.50000000E-01  8.50000000E-01  8.50000000E-01  8.50000000E-01
  8.50000000E-01  8.50000000E-01  8.50000000E-01  8.50000000E-01  8.50000000E-01
  8.50000000E-01  8.50000000E-01  8.50000000E-01  8.50000000E-01  8.50000000E-01
  8.50000000E-01  8.50000000E-01  8.50000000E-01  8.50000000E-01  8.50000000E-01
  8.50000000E-01  8.50000000E-01  8.50000000E-01  8.50000000E-01  8.50000000E-01
  8.50000000E-01  8.50000000E-01  8.50000000E-01  8.50000000E-01  8.50000000E-01
  8.50000000E-01  8.50000000E-01  8.50000000E-01  8.50000000E-01  8.50000000E-01
  8.50000000E-01  8.50000000E-01  8.50000000E-01  8.50000000E-01  8.50000000E-01
  8.50000000E-01  8.50000000E-01  8.50000000E-01  8.50000000E-01  8.50000000E-01
  8.50000000E-01  8.50000000E-01  8.50000000E-01  8.50000000E-01  8.50000000E-01
  8.50000000E-01  8.50000000E-01  8.50000000E-01  8.50000000E-01  8.50000000E-01
  8.50000000E-01  8.50000000E-01  8.50000000E-01  8.50000000E-01  8.50000000E-01
  8.50000000E-01  8.50000000E-01  8.50000000E-01  8.50000000E-01  8.50000000E-01
  8.50000000E-01  8.50000000E-01  8.50000000E-01  8.50000000E-01  8.50000000E-01
  8.50000000E-01  8.50000000E-01  8.50000000E-01  8.50000000E-01  8.50000000E-01
  8.50000000E-01  8.50000000E-01  8.50000000E-01  8.50000000E-01  8.50000000E-01
  8.50000000E-01  8.50000000E-01  8.50000000E-01  8.50000000E-01  8.50000000E-01
  8.50000000E-01  8.50000000E-01  8.50000000E-01  8.50000000E-01  8.50000000E-01
  8.50000000E-01  8.50000000E-01  8.50000000E-01  8.50000000E-01  8.50000000E-01
  8.50000000E-01  8.50000000E-01  8.50000000E-01  8.50000000E-01  8.50000000E-01
  8.50000000E-01  8.50000000E-01  8.50000000E-01  8.50000000E-01  8.50000000E-01
  8.50000000E-01  8.50000000E-01  8.50000000E-01  8.50000000E-01  8.50000000E-01
  8.50000000E-01  8.50000000E-01  8.50000000E-01  8.50000000E-01  8.50000000E-01
  8.50000000E-01  8.50000000E-01  8.50000000E-01  8.50000000E-01  8.50000000E-01
  8.50000000E-01  8.50000000E-01  8.50000000E-01  8.50000000E-01  8.50000000E-01
  8.50000000E-01  8.50000000E-01  8.50000000E-01  8.50000000E-01  8.50000000E-01
  8.50000000E-01  8.50000000E-01  8.50000000E-01  8.50000000E-01  8.50000000E-01
  8.50000000E-01  8.50000000E-01  8.50000000E-01  8.50000000E-01  8.50000000E-01
  8.50000000E-01  8.50000000E-01  8.50000000E-01  8.50000000E-01  8.50000000E-01
  8.50000000E-01  8.50000000E-01  8.50000000E-01  8.50000000E-01  8.50000000E-01
  8.50000000E-01  8.50000000E-01  8.50000000E-01  8.50000000E-01  8.50000000E-01
  8.50000000E-01  8.50000000E-01  8.50000000E-01  8.50000000E-01  8.50000000E-01
  8.50000000E-01  8.50000000E-01  8.50000000E-01  8.50000000E-01  8.50000000E-01
  8.50000000E-01  8.50000000E-01  8.50000000E-01  8.50000000E-01  8.50000000E-01
  8.50000000E-01  8.50000000E-01  8.50000000E-01  8.50000000E-01  8.50000000E-01
  8.50000000E-01  8.50000000E-01  8.50000000E-01  8.50000000E-01  8.50000000E-01
  8.50000000E-01  8.50000000E-01  8.50000000E-01  8.50000000E-01  8.50000000E-01
  8.50000000E-01  8.50000000E-01  8.50000000E-01  8.50000000E-01  8.50000000E-01
  8.50000000E-01  8.50000000E-01  8.50000000E-01  8.50000000E-01  8.50000000E-01
  8.50000000E-01  8.50000000E-01  8.50000000E-01  8.50000000E-01  8.50000000E-01
  8.50000000E-01  8.50000000E-01  8.50000000E-01  8.50000000E-01  8.50000000E-01
  8.50000000E-01  8.50000000E-01  8.50000000E-01  8.50000000E-01  8.50000000E-01
  8.50000000E-01  8.50000000E-01  8.50000000E-01  8.50000000E-01  8.50000000E-01
  8.50000000E-01  8.50000000E-01  8.50000000E-01  8.50000000E-01  8.50000000E-01
  8.50000000E-01  8.50000000E-01  8.50000000E-01  8.50000000E-01  8.50000000E-01
  8.50000000E-01  8.50000000E-01  8.50000000E-01  8.50000000E-01  8.50000000E-01
  8.50000000E-01  8.50000000E-01  8.50000000E-01  8.50000000E-01  8.50000000E-01
  8.50000000E-01  8.50000000E-01  8.50000000E-01  8.50000000E-01  8.50000000E-01
  8.50000000E-01  8.50000000E-01  8.50000000E-01  8.50000000E-01  8.50000000E-01
  8.50000000E-01  8.50000000E-01  8.50000000E-01  8.50000000E-01  8.50000000E-01
  8.50000000E-01  8.50000000E-01  8.50000000E-01  8.50000000E-01  8.50000000E-01
  8.50000000E-01  8.50000000E-01  8.50000000E-01  8.50000000E-01  8.50000000E-01
  8.50000000E-01  8.50000000E-01  8.50000000E-01  8.50000000E-01  8.50000000E-01
  8.50000000E-01  8.50000000E-01  8.50000000E-01  8.50000000E-01  8.50000000E-01
  8.50000000E-01  8.50000000E-01  8.50000000E-01  8.50000000E-01  8.50000000E-01
  8.50000000E-01  8.50000000E-01  8.50000000E-01  8.50000000E-01  8.50000000E-01
  8.50000000E-01  8.50000000E-01  8.50000000E-01  8.50000000E-01  8.50000000E-01
  8.50000000E-01  8.50000000E-01  8.50000000E-01  8.50000000E-01  8.50000000E-01
  8.50000000E-01  8.50000000E-01  8.50000000E-01  8.50000000E-01  8.50000000E-01
  8.50000000E-01  8.50000000E-01  8.50000000E-01  8.50000000E-01  8.50000000E-01
  8.50000000E-01  8.50000000E-01  8.50000000E-01  8.50000000E-01  8.50000000E-01
  8.50000000E-01  8.50000000E-01  8.50000000E-01  8.50000000E-01  8.50000000E-01
  8.50000000E-01  8.50000000E-01  8.50000000E-01  8.50000000E-01  8.50000000E-01
  8.50000000E-01  8.50000000E-01  8.50000000E-01  8.50000000E-01  8.50000000E-01
  8.50000000E-01  8.50000000E-01  8.50000000E-01  8.50000000E-01  8.50000000E-01
  8.50000000E-01  8.50000000E-01  8.50000000E-01  8.50000000E-01  8.50000000E-01
  8.50000000E-01  8.50000000E-01  8.50000000E-01  8.50000000E-01  8.50000000E-01
  8.50000000E-01  8.50000000E-01  8.50000000E-01  8.50000000E-01  8.50000000E-01
  8.50000000E-01  8.50000000E-01  8.50000000E-01  8.50000000E-01  8.50000000E-01
  8.50000000E-01  8.50000000E-01  8.50000000E-01  8.50000000E-01  8.50000000E-01
  8.50000000E-01  8.50000000E-01  8.50000000E-01  8.50000000E-01  8.50000000E-01
  8.50000000E-01  8.50000000E-01  8.50000000E-01  8.50000000E-01  8.50000000E-01
  8.50000000E-01  8.50000000E-01  8.50000000E-01  8.50000000E-01  8.50000000E-01
  8.50000000E-01  8.50000000E-01  8.50000000E-01  8.50000000E-01  8.50000000E-01
  8.50000000E-01  8.50000000E-01  8.50000000E-01  8.50000000E-01  8.50000000E-01
  8.50000000E-01  8.50000000E-01  8.50000000E-01  8.50000000E-01  8.50000000E-01
  8.50000000E-01  8.50000000E-01  8.50000000E-01  8.50000000E-01  8.50000000E-01
  8.50000000E-01  8.50000000E-01  8.50000000E-01  8.50000000E-01  8.50000000E-01
  8.50000000E-01  8.50000000E-01  8.50000000E-01  8.50000000E-01  8.50000000E-01
  8.50000000E-01  8.50000000E-01  8.50000000E-01  8.50000000E-01  8.50000000E-01
  8.50000000E-01  8.50000000E-01  8.50000000E-01  8.50000000E-01  8.50000000E-01
  8.50000000E-01  8.50000000E-01  8.50000000E-01  8.50000000E-01  8.50000000E-01
  8.50000000E-01  8.50000000E-01  8.50000000E-01  8.50000000E-01  8.50000000E-01
  8.50000000E-01  8.50000000E-01  8.50000000E-01  8.50000000E-01  8.50000000E-01
  8.50000000E-01  8.50000000E-01  8.50000000E-01  8.50000000E-01  8.50000000E-01
  8.50000000E-01  8.50000000E-01  8.50000000E-01  8.50000000E-01  8.50000000E-01
  8.50000000E-01  8.50000000E-01  8.50000000E-01  8.50000000E-01  8.50000000E-01
  8.50000000E-01  8.50000000E-01  8.50000000E-01  8.50000000E-01  8.50000000E-01
  8.50000000E-01  8.50000000E-01  8.50000000E-01  8.50000000E-01  8.50000000E-01
  8.50000000E-01  8.50000000E-01  8.50000000E-01  8.50000000E-01  8.50000000E-01
  8.50000000E-01  8.50000000E-01  8.50000000E-01  8.50000000E-01  8.50000000E-01
  8.50000000E-01  8.50000000E-01  8.50000000E-01  8.50000000E-01  8.50000000E-01
  8.50000000E-01  8.50000000E-01  8.50000000E-01  8.50000000E-01  8.50000000E-01
  8.50000000E-01  8.50000000E-01  8.50000000E-01  8.50000000E-01  8.50000000E-01
  8.50000000E-01  8.50000000E-01  8.50000000E-01  8.50000000E-01  8.50000000E-01
  8.50000000E-01  8.50000000E-01  8.50000000E-01  8.50000000E-01  8.50000000E-01
  8.50000000E-01  8.50000000E-01  8.50000000E-01  8.50000000E-01  8.50000000E-01
  8.50000000E-01  8.50000000E-01  8.50000000E-01  8.50000000E-01  8.50000000E-01
  8.50000000E-01  8.50000000E-01  8.50000000E-01  8.50000000E-01  8.50000000E-01
  8.50000000E-01  8.50000000E-01  8.50000000E-01  8.50000000E-01  8.50000000E-01
  8.50000000E-01  8.50000000E-01  8.50000000E-01  8.50000000E-01  8.50000000E-01
  8.50000000E-01  8.50000000E-01  8.50000000E-01  8.50000000E-01  8.50000000E-01
  8.50000000E-01  8.50000000E-01  8.50000000E-01  8.50000000E-01  8.50000000E-01
  8.50000000E-01  8.50000000E-01  8.50000000E-01  8.50000000E-01  8.50000000E-01
  8.50000000E-01  8.50000000E-01  8.50000000E-01  8.50000000E-01  8.50000000E-01
  8.50000000E-01  8.50000000E-01  8.50000000E-01  8.50000000E-01  8.50000000E-01
  8.50000000E-01  8.50000000E-01  8.50000000E-01  8.50000000E-01  8.50000000E-01
  8.50000000E-01  8.50000000E-01  8.50000000E-01  8.50000000E-01  8.50000000E-01
  8.50000000E-01  8.50000000E-01  8.50000000E-01  8.50000000E-01  8.50000000E-01
  8.50000000E-01  8.50000000E-01  8.50000000E-01  8.50000000E-01  8.50000000E-01
  8.50000000E-01  8.50000000E-01  8.50000000E-01  8.50000000E-01  8.50000000E-01
  8.50000000E-01  8.50000000E-01  8.50000000E-01  8.50000000E-01  8.50000000E-01
  8.50000000E-01  8.50000000E-01  8.50000000E-01  8.50000000E-01  8.50000000E-01
  8.50000000E-01  8.50000000E-01  8.50000000E-01  8.50000000E-01  8.50000000E-01
  8.50000000E-01  8.50000000E-01  8.50000000E-01  8.50000000E-01  8.50000000E-01
  8.50000000E-01  8.50000000E-01  8.50000000E-01  8.50000000E-01  8.50000000E-01
  8.50000000E-01  8.50000000E-01  8.50000000E-01  8.50000000E-01  8.50000000E-01
  8.50000000E-01  8.50000000E-01  8.50000000E-01  8.50000000E-01  8.50000000E-01
  8.50000000E-01  8.50000000E-01  8.50000000E-01  8.50000000E-01  8.50000000E-01
  8.50000000E-01  8.50000000E-01  8.50000000E-01  8.50000000E-01  8.50000000E-01
  8.50000000E-01  8.50000000E-01  8.50000000E-01  8.50000000E-01  8.50000000E-01
  8.50000000E-01  8.50000000E-01  8.50000000E-01  8.50000000E-01  8.50000000E-01
  8.50000000E-01  8.50000000E-01  8.50000000E-01  8.50000000E-01  8.50000000E-01
  8.50000000E-01  8.50000000E-01  8.50000000E-01  8.50000000E-01  8.50000000E-01
  8.50000000E-01  8.50000000E-01  8.50000000E-01  8.50000000E-01  8.50000000E-01
  8.50000000E-01  8.50000000E-01  8.50000000E-01  8.50000000E-01  8.50000000E-01
  8.50000000E-01  8.50000000E-01  8.50000000E-01  8.50000000E-01  8.50000000E-01
  8.50000000E-01  8.50000000E-01  8.50000000E-01  8.50000000E-01  8.50000000E-01
  8.50000000E-01  8.50000000E-01  8.50000000E-01  8.50000000E-01  8.50000000E-01
  8.50000000E-01  8.50000000E-01  8.50000000E-01  8.50000000E-01  8.50000000E-01
  8.50000000E-01  8.50000000E-01  8.50000000E-01  8.50000000E-01  8.50000000E-01
  8.50000000E-01  8.50000000E-01  8.50000000E-01  8.50000000E-01  8.50000000E-01
  8.50000000E-01  8.50000000E-01  8.50000000E-01  8.50000000E-01  8.50000000E-01
  8.50000000E-01  8.50000000E-01  8.50000000E-01  8.50000000E-01  8.50000000E-01
  8.50000000E-01  8.50000000E-01  8.50000000E-01  8.50000000E-01  8.50000000E-01
  8.50000000E-01  8.50000000E-01  8.50000000E-01  8.50000000E-01  8.50000000E-01
  8.50000000E-01  8.50000000E-01  8.50000000E-01  8.50000000E-01  8.50000000E-01
  8.50000000E-01  8.50000000E-01  8.50000000E-01  8.50000000E-01  8.50000000E-01
  8.50000000E-01  8.50000000E-01  8.50000000E-01  8.50000000E-01  8.50000000E-01
  8.50000000E-01  8.50000000E-01  8.50000000E-01  8.50000000E-01  8.50000000E-01
  8.50000000E-01  8.50000000E-01  8.50000000E-01  8.50000000E-01  8.50000000E-01
  8.50000000E-01  8.50000000E-01  8.50000000E-01  8.50000000E-01  8.50000000E-01
  8.50000000E-01  8.50000000E-01  8.50000000E-01  8.50000000E-01  8.50000000E-01
  8.50000000E-01  8.50000000E-01  8.50000000E-01  8.50000000E-01  8.50000000E-01
  8.50000000E-01  8.50000000E-01  8.50000000E-01  8.50000000E-01  8.50000000E-01
  8.50000000E-01  8.50000000E-01  8.50000000E-01  8.50000000E-01  8.50000000E-01
  8.50000000E-01  8.50000000E-01  8.50000000E-01  8.50000000E-01  8.50000000E-01
  8.50000000E-01  8.50000000E-01  8.50000000E-01  8.50000000E-01  8.50000000E-01
  8.50000000E-01  8.50000000E-01  8.50000000E-01  8.50000000E-01  8.50000000E-01
  8.50000000E-01  8.50000000E-01  8.50000000E-01  8.50000000E-01  8.50000000E-01
  8.50000000E-01  8.50000000E-01  8.50000000E-01  8.50000000E-01  8.50000000E-01
  8.50000000E-01  8.50000000E-01  8.50000000E-01  8.50000000E-01  8.50000000E-01
  8.50000000E-01  8.50000000E-01  8.50000000E-01  8.50000000E-01  8.50000000E-01
  8.50000000E-01  8.50000000E-01  8.50000000E-01  8.50000000E-01  8.50000000E-01
  8.50000000E-01  8.50000000E-01  8.50000000E-01  8.50000000E-01  8.50000000E-01
  8.50000000E-01  8.50000000E-01  8.50000000E-01  8.50000000E-01  8.50000000E-01
  8.50000000E-01  8.50000000E-01  8.50000000E-01  8.50000000E-01  8.50000000E-01
  8.50000000E-01  8.50000000E-01  8.50000000E-01  8.50000000E-01  8.50000000E-01
  8.50000000E-01  8.50000000E-01  8.50000000E-01  8.50000000E-01  8.50000000E-01
  8.50000000E-01  8.50000000E-01  8.50000000E-01  8.50000000E-01  8.50000000E-01
  8.50000000E-01  8.50000000E-01  8.50000000E-01  8.50000000E-01  8.50000000E-01
  8.50000000E-01  8.50000000E-01  8.50000000E-01  8.50000000E-01  8.50000000E-01
  8.50000000E-01  8.50000000E-01  8.50000000E-01  8.50000000E-01  8.50000000E-01
  8.50000000E-01  8.50000000E-01  8.50000000E-01  8.50000000E-01  8.50000000E-01
  8.50000000E-01  8.50000000E-01  8.50000000E-01  8.50000000E-01  8.50000000E-01
  8.50000000E-01  8.50000000E-01  8.50000000E-01  8.50000000E-01  8.50000000E-01
  8.50000000E-01  8.50000000E-01  8.50000000E-01  8.50000000E-01  8.50000000E-01
  8.50000000E-01  8.50000000E-01  8.50000000E-01  8.50000000E-01  8.50000000E-01
  8.50000000E-01  8.50000000E-01  8.50000000E-01  8.50000000E-01  8.50000000E-01
  8.50000000E-01  8.50000000E-01  8.50000000E-01  8.50000000E-01  8.50000000E-01
  8.50000000E-01  8.50000000E-01  8.50000000E-01  8.50000000E-01  8.50000000E-01
  8.50000000E-01  8.50000000E-01  8.50000000E-01  8.50000000E-01  8.50000000E-01
  8.50000000E-01  8.50000000E-01  8.50000000E-01  8.50000000E-01  8.50000000E-01
  8.50000000E-01  8.50000000E-01  8.50000000E-01  8.50000000E-01  8.50000000E-01
  8.50000000E-01  8.50000000E-01  8.50000000E-01  8.50000000E-01  8.50000000E-01
  8.50000000E-01  8.50000000E-01  8.50000000E-01  8.50000000E-01  8.50000000E-01
  8.50000000E-01  8.50000000E-01  8.50000000E-01  8.50000000E-01  8.50000000E-01
  8.50000000E-01  8.50000000E-01  8.50000000E-01  8.50000000E-01  8.50000000E-01
  8.50000000E-01  8.50000000E-01  8.50000000E-01  8.50000000E-01  8.50000000E-01
  8.50000000E-01  8.50000000E-01  8.50000000E-01  8.50000000E-01  8.50000000E-01
  8.50000000E-01  8.50000000E-01  8.50000000E-01  8.50000000E-01  8.50000000E-01
  8.50000000E-01  8.50000000E-01  8.50000000E-01  8.50000000E-01  8.50000000E-01
  8.50000000E-01  8.50000000E-01  8.50000000E-01  8.50000000E-01  8.50000000E-01
  8.50000000E-01  8.50000000E-01  8.50000000E-01  8.50000000E-01  8.50000000E-01
  8.50000000E-01  8.50000000E-01  8.50000000E-01  8.50000000E-01  8.50000000E-01
  8.50000000E-01  8.50000000E-01  8.50000000E-01  8.50000000E-01  8.50000000E-01
  8.50000000E-01  8.50000000E-01  8.50000000E-01  8.50000000E-01  8.50000000E-01
  8.50000000E-01  8.50000000E-01  8.50000000E-01  8.50000000E-01  8.50000000E-01
  8.50000000E-01  8.50000000E-01  8.50000000E-01  8.50000000E-01  8.50000000E-01
  8.50000000E-01  8.50000000E-01  8.50000000E-01  8.50000000E-01  8.50000000E-01
  8.50000000E-01  8.50000000E-01  8.50000000E-01  8.50000000E-01  8.50000000E-01
  8.50000000E-01  8.50000000E-01  8.50000000E-01  8.50000000E-01  8.50000000E-01
  8.50000000E-01  8.50000000E-01  8.50000000E-01  8.50000000E-01  8.50000000E-01
  8.50000000E-01  8.50000000E-01  8.50000000E-01  8.50000000E-01  8.50000000E-01
  8.50000000E-01  8.50000000E-01  8.50000000E-01  8.50000000E-01  8.50000000E-01
  8.50000000E-01  8.50000000E-01  8.50000000E-01  8.50000000E-01  8.50000000E-01
  8.50000000E-01  8.50000000E-01  8.50000000E-01  8.50000000E-01  8.50000000E-01
  8.50000000E-01  8.50000000E-01  8.50000000E-01  8.50000000E-01  8.50000000E-01
  8.50000000E-01  8.50000000E-01  8.50000000E-01  8.50000000E-01  8.50000000E-01
  8.50000000E-01  8.50000000E-01  8.50000000E-01  8.50000000E-01  8.50000000E-01
  8.50000000E-01  8.50000000E-01  8.50000000E-01  8.50000000E-01  8.50000000E-01
  8.50000000E-01  8.50000000E-01  8.50000000E-01  8.50000000E-01  8.50000000E-01
  8.50000000E-01  8.50000000E-01  8.50000000E-01  8.50000000E-01  8.50000000E-01
  8.50000000E-01  8.50000000E-01  8.50000000E-01  8.50000000E-01  8.50000000E-01
  8.50000000E-01  8.50000000E-01  8.50000000E-01  8.50000000E-01  8.50000000E-01
  8.50000000E-01  8.50000000E-01  8.50000000E-01  8.50000000E-01  8.50000000E-01
  8.50000000E-01  8.50000000E-01  8.50000000E-01  8.50000000E-01  8.50000000E-01
  8.50000000E-01  8.50000000E-01  8.50000000E-01  8.50000000E-01  8.50000000E-01
  8.50000000E-01  8.50000000E-01  8.50000000E-01  8.50000000E-01  8.50000000E-01
  8.50000000E-01  8.50000000E-01  8.50000000E-01  8.50000000E-01  8.50000000E-01
  8.50000000E-01  8.50000000E-01  8.50000000E-01  8.50000000E-01  8.50000000E-01
  8.50000000E-01  8.50000000E-01  8.50000000E-01  8.50000000E-01  8.50000000E-01
  8.50000000E-01  8.50000000E-01  8.50000000E-01  8.50000000E-01  8.50000000E-01
  8.50000000E-01  8.50000000E-01  8.50000000E-01  8.50000000E-01  8.50000000E-01
  8.50000000E-01  8.50000000E-01  8.50000000E-01  8.50000000E-01  8.50000000E-01
  8.50000000E-01  8.50000000E-01  8.50000000E-01  8.50000000E-01  8.50000000E-01
  8.50000000E-01  8.50000000E-01  8.50000000E-01  8.50000000E-01  8.50000000E-01
  8.50000000E-01  8.50000000E-01  8.50000000E-01  8.50000000E-01  8.50000000E-01
  8.50000000E-01  8.50000000E-01  8.50000000E-01  8.50000000E-01  8.50000000E-01
  8.50000000E-01  8.50000000E-01  8.50000000E-01  8.50000000E-01  8.50000000E-01
  8.50000000E-01  8.50000000E-01  8.50000000E-01  8.50000000E-01  8.50000000E-01
  8.50000000E-01  8.50000000E-01  8.50000000E-01  8.50000000E-01  8.50000000E-01
  8.50000000E-01  8.50000000E-01  8.50000000E-01  8.50000000E-01  8.50000000E-01
  8.50000000E-01  8.50000000E-01  8.50000000E-01  8.50000000E-01  8.50000000E-01
  8.50000000E-01  8.50000000E-01  8.50000000E-01  8.50000000E-01  8.50000000E-01
  8.50000000E-01  8.50000000E-01  8.50000000E-01  8.50000000E-01  8.50000000E-01
  8.50000000E-01  8.50000000E-01  8.50000000E-01  8.50000000E-01  8.50000000E-01
  8.50000000E-01  8.50000000E-01  8.50000000E-01  8.50000000E-01  8.50000000E-01
  8.50000000E-01  8.50000000E-01  8.50000000E-01  8.50000000E-01  8.50000000E-01
  8.50000000E-01  8.50000000E-01  8.50000000E-01  8.50000000E-01  8.50000000E-01
  8.50000000E-01  8.50000000E-01  8.50000000E-01  8.50000000E-01  8.50000000E-01
  8.50000000E-01  8.50000000E-01  8.50000000E-01  8.50000000E-01  8.50000000E-01
  8.50000000E-01  8.50000000E-01  8.50000000E-01  8.50000000E-01  8.50000000E-01
  8.50000000E-01  8.50000000E-01  8.50000000E-01  8.50000000E-01  8.50000000E-01
  8.50000000E-01  8.50000000E-01  8.50000000E-01  8.50000000E-01  8.50000000E-01
  8.50000000E-01  8.50000000E-01  8.50000000E-01  8.50000000E-01  8.50000000E-01
  8.50000000E-01  8.50000000E-01  8.50000000E-01  8.50000000E-01  8.50000000E-01
  8.50000000E-01  8.50000000E-01  8.50000000E-01  8.50000000E-01  8.50000000E-01
  8.50000000E-01  8.50000000E-01  8.50000000E-01  8.50000000E-01  8.50000000E-01
  8.50000000E-01  8.50000000E-01  8.50000000E-01  8.50000000E-01  8.50000000E-01
  8.50000000E-01  8.50000000E-01  8.50000000E-01  8.50000000E-01  8.50000000E-01
  8.50000000E-01  8.50000000E-01  8.50000000E-01  8.50000000E-01  8.50000000E-01
  8.50000000E-01  8.50000000E-01  8.50000000E-01  8.50000000E-01  8.50000000E-01
  8.50000000E-01  8.50000000E-01  8.50000000E-01  8.50000000E-01  8.50000000E-01
  8.50000000E-01  8.50000000E-01  8.50000000E-01  8.50000000E-01  8.50000000E-01
  8.50000000E-01  8.50000000E-01  8.50000000E-01  8.50000000E-01  8.50000000E-01
  8.50000000E-01  8.50000000E-01  8.50000000E-01  8.50000000E-01  8.50000000E-01
  8.50000000E-01  8.50000000E-01  8.50000000E-01  8.50000000E-01  8.50000000E-01
  8.50000000E-01  8.50000000E-01  8.50000000E-01  8.50000000E-01  8.50000000E-01
  8.50000000E-01  8.50000000E-01  8.50000000E-01  8.50000000E-01  8.50000000E-01
  8.50000000E-01  8.50000000E-01  8.50000000E-01  8.50000000E-01  8.50000000E-01
  8.50000000E-01  8.50000000E-01  8.50000000E-01  8.50000000E-01  8.50000000E-01
  8.50000000E-01  8.50000000E-01  8.50000000E-01  8.50000000E-01  8.50000000E-01
  8.50000000E-01  8.50000000E-01  8.50000000E-01  8.50000000E-01  8.50000000E-01
  8.50000000E-01  8.50000000E-01  8.50000000E-01  8.50000000E-01  8.50000000E-01
  8.50000000E-01  8.50000000E-01  8.50000000E-01  8.50000000E-01  8.50000000E-01
  8.50000000E-01  8.50000000E-01  8.50000000E-01  8.50000000E-01  8.50000000E-01
  8.50000000E-01  8.50000000E-01  8.50000000E-01  8.50000000E-01  8.50000000E-01
  8.50000000E-01  8.50000000E-01  8.50000000E-01  8.50000000E-01  8.50000000E-01
  8.50000000E-01  8.50000000E-01  8.50000000E-01  8.50000000E-01  8.50000000E-01
  8.50000000E-01  8.50000000E-01  8.50000000E-01  8.50000000E-01  8.50000000E-01
  8.50000000E-01  8.50000000E-01  8.50000000E-01  8.50000000E-01  8.50000000E-01
  8.50000000E-01  8.50000000E-01  8.50000000E-01  8.50000000E-01  8.50000000E-01
  8.50000000E-01  8.50000000E-01  8.50000000E-01  8.50000000E-01  8.50000000E-01
  8.50000000E-01  8.50000000E-01  8.50000000E-01  8.50000000E-01  8.50000000E-01
  8.50000000E-01  8.50000000E-01  8.50000000E-01  8.50000000E-01  8.50000000E-01
  8.50000000E-01  8.50000000E-01  8.50000000E-01  8.50000000E-01  8.50000000E-01
  8.50000000E-01  8.50000000E-01  8.50000000E-01  8.50000000E-01  8.50000000E-01
  8.50000000E-01  8.50000000E-01  8.50000000E-01  8.50000000E-01  8.50000000E-01
  8.50000000E-01  8.50000000E-01  8.50000000E-01  8.50000000E-01  8.50000000E-01
  8.50000000E-01  8.50000000E-01  8.50000000E-01  8.50000000E-01  8.50000000E-01
  8.50000000E-01  8.50000000E-01  8.50000000E-01  8.50000000E-01  8.50000000E-01
  8.50000000E-01  8.50000000E-01  8.50000000E-01  8.50000000E-01  8.50000000E-01
  8.50000000E-01  8.50000000E-01  8.50000000E-01  8.50000000E-01  8.50000000E-01
  8.50000000E-01  8.50000000E-01  8.50000000E-01  8.50000000E-01  8.50000000E-01
  8.50000000E-01  8.50000000E-01  8.50000000E-01  8.50000000E-01  8.50000000E-01
  8.50000000E-01  8.50000000E-01  8.50000000E-01  8.50000000E-01  8.50000000E-01
  8.50000000E-01  8.50000000E-01  8.50000000E-01  8.50000000E-01  8.50000000E-01
  8.50000000E-01  8.50000000E-01  8.50000000E-01  8.50000000E-01  8.50000000E-01
  8.50000000E-01  8.50000000E-01  8.50000000E-01  8.50000000E-01  8.50000000E-01
  8.50000000E-01  8.50000000E-01  8.50000000E-01  8.50000000E-01  8.50000000E-01
  8.50000000E-01  8.50000000E-01  8.50000000E-01  8.50000000E-01  8.50000000E-01
  8.50000000E-01  8.50000000E-01  8.50000000E-01  8.50000000E-01  8.50000000E-01
  8.50000000E-01  8.50000000E-01  8.50000000E-01  8.50000000E-01  8.50000000E-01
  8.50000000E-01  8.50000000E-01  8.50000000E-01  8.50000000E-01  8.50000000E-01
  8.50000000E-01  8.50000000E-01  8.50000000E-01  8.50000000E-01  8.50000000E-01
  8.50000000E-01  8.50000000E-01  8.50000000E-01  8.50000000E-01  8.50000000E-01
  8.50000000E-01  8.50000000E-01  8.50000000E-01  8.50000000E-01  8.50000000E-01
  8.50000000E-01  8.50000000E-01  8.50000000E-01  8.50000000E-01  8.50000000E-01
  8.50000000E-01  8.50000000E-01  8.50000000E-01  8.50000000E-01  8.50000000E-01
  8.50000000E-01  8.50000000E-01  8.50000000E-01  8.50000000E-01  8.50000000E-01
  8.50000000E-01  8.50000000E-01  8.50000000E-01  8.50000000E-01  8.50000000E-01
  8.50000000E-01  8.50000000E-01  8.50000000E-01  8.50000000E-01  8.50000000E-01
  8.50000000E-01  8.50000000E-01  8.50000000E-01  8.50000000E-01  8.50000000E-01
  8.50000000E-01  8.50000000E-01  8.50000000E-01  8.50000000E-01  8.50000000E-01
  8.50000000E-01  8.50000000E-01  8.50000000E-01  8.50000000E-01  8.50000000E-01
  8.50000000E-01  8.50000000E-01  8.50000000E-01  8.50000000E-01  8.50000000E-01
  8.50000000E-01  8.50000000E-01  8.50000000E-01  8.50000000E-01  8.50000000E-01
  8.50000000E-01  8.50000000E-01  8.50000000E-01  8.50000000E-01  8.50000000E-01
  8.50000000E-01  8.50000000E-01  8.50000000E-01  8.50000000E-01  8.50000000E-01
  8.50000000E-01  8.50000000E-01  8.50000000E-01  8.50000000E-01  8.50000000E-01
  8.50000000E-01  8.50000000E-01  8.50000000E-01  8.50000000E-01  8.50000000E-01
  8.50000000E-01  8.50000000E-01  8.50000000E-01  8.50000000E-01  8.50000000E-01
  8.50000000E-01  8.50000000E-01  8.50000000E-01  8.50000000E-01  8.50000000E-01
  8.50000000E-01  8.50000000E-01  8.50000000E-01  8.50000000E-01  8.50000000E-01
  8.50000000E-01  8.50000000E-01  8.50000000E-01  8.50000000E-01  8.50000000E-01
  8.50000000E-01  8.50000000E-01  8.50000000E-01  8.50000000E-01  8.50000000E-01
  8.50000000E-01  8.50000000E-01  8.50000000E-01  8.50000000E-01  8.50000000E-01
  8.50000000E-01  8.50000000E-01  8.50000000E-01  8.50000000E-01  8.50000000E-01
  8.50000000E-01  8.50000000E-01  8.50000000E-01  8.50000000E-01  8.50000000E-01
  8.50000000E-01  8.50000000E-01  8.50000000E-01  8.50000000E-01  8.50000000E-01
  8.50000000E-01  8.50000000E-01  8.50000000E-01  8.50000000E-01  8.50000000E-01
  8.50000000E-01  8.50000000E-01  8.50000000E-01  8.50000000E-01  8.50000000E-01
  8.50000000E-01  8.50000000E-01  8.50000000E-01  8.50000000E-01  8.50000000E-01
  8.50000000E-01  8.50000000E-01  8.50000000E-01  8.50000000E-01  8.50000000E-01
  8.50000000E-01  8.50000000E-01  8.50000000E-01  8.50000000E-01  8.50000000E-01
  8.50000000E-01  8.50000000E-01  8.50000000E-01  8.50000000E-01  8.50000000E-01
  8.50000000E-01  8.50000000E-01  8.50000000E-01  8.50000000E-01  8.50000000E-01
  8.50000000E-01  8.50000000E-01  8.50000000E-01  8.50000000E-01  8.50000000E-01
  8.50000000E-01  8.50000000E-01  8.50000000E-01  8.50000000E-01  8.50000000E-01
  8.50000000E-01  8.50000000E-01  8.50000000E-01  8.50000000E-01  8.50000000E-01
  8.50000000E-01  8.50000000E-01  8.50000000E-01  8.50000000E-01  8.50000000E-01
  8.50000000E-01  8.50000000E-01  8.50000000E-01  8.50000000E-01  8.50000000E-01
  8.50000000E-01  8.50000000E-01  8.50000000E-01  8.50000000E-01  8.50000000E-01
  8.50000000E-01  8.50000000E-01  8.50000000E-01  8.50000000E-01  8.50000000E-01
  8.50000000E-01  8.50000000E-01  8.50000000E-01  8.50000000E-01  8.50000000E-01
  8.50000000E-01  8.50000000E-01  8.50000000E-01  8.50000000E-01  8.50000000E-01
  8.50000000E-01  8.50000000E-01  8.50000000E-01  8.50000000E-01  8.50000000E-01
  8.50000000E-01  8.50000000E-01  8.50000000E-01  8.50000000E-01  8.50000000E-01
  8.50000000E-01  8.50000000E-01  8.50000000E-01  8.50000000E-01  8.50000000E-01
  8.50000000E-01  8.50000000E-01  8.50000000E-01  8.50000000E-01  8.50000000E-01
  8.50000000E-01  8.50000000E-01  8.50000000E-01  8.50000000E-01  8.50000000E-01
  8.50000000E-01  8.50000000E-01  8.50000000E-01  8.50000000E-01  8.50000000E-01
  8.50000000E-01  8.50000000E-01  8.50000000E-01  8.50000000E-01  8.50000000E-01
  8.50000000E-01  8.50000000E-01  8.50000000E-01  8.50000000E-01  8.50000000E-01
  8.50000000E-01  8.50000000E-01  8.50000000E-01  8.50000000E-01  8.50000000E-01
  8.50000000E-01  8.50000000E-01  8.50000000E-01  8.50000000E-01  8.50000000E-01
  8.50000000E-01  8.50000000E-01  8.50000000E-01  8.50000000E-01  8.50000000E-01
  8.50000000E-01  8.50000000E-01  8.50000000E-01  8.50000000E-01  8.50000000E-01
  8.50000000E-01  8.50000000E-01  8.50000000E-01  8.50000000E-01  8.50000000E-01
  8.50000000E-01  8.50000000E-01  8.50000000E-01  8.50000000E-01  8.50000000E-01
  8.50000000E-01  8.50000000E-01  8.50000000E-01  8.50000000E-01  8.50000000E-01
  8.50000000E-01  8.50000000E-01  8.50000000E-01  8.50000000E-01  8.50000000E-01
  8.50000000E-01  8.50000000E-01  8.50000000E-01  8.50000000E-01  8.50000000E-01
  8.50000000E-01  8.50000000E-01  8.50000000E-01  8.50000000E-01  8.50000000E-01
  8.50000000E-01  8.50000000E-01  8.50000000E-01  8.50000000E-01  8.50000000E-01
  8.50000000E-01  8.50000000E-01  8.50000000E-01  8.50000000E-01  8.50000000E-01
  8.50000000E-01  8.50000000E-01  8.50000000E-01  8.50000000E-01  8.50000000E-01
  8.50000000E-01  8.50000000E-01  8.50000000E-01  8.50000000E-01  8.50000000E-01
  8.50000000E-01  8.50000000E-01  8.50000000E-01  8.50000000E-01  8.50000000E-01
  8.50000000E-01  8.50000000E-01  8.50000000E-01  8.50000000E-01  8.50000000E-01
  8.50000000E-01  8.50000000E-01  8.50000000E-01  8.50000000E-01  8.50000000E-01
  8.50000000E-01  8.50000000E-01  8.50000000E-01  8.50000000E-01  8.50000000E-01
  8.50000000E-01  8.50000000E-01  8.50000000E-01  8.50000000E-01  8.50000000E-01
  8.50000000E-01  8.50000000E-01  8.50000000E-01  8.50000000E-01  8.50000000E-01
  8.50000000E-01  8.50000000E-01  8.50000000E-01  8.50000000E-01  8.50000000E-01
  8.50000000E-01  8.50000000E-01  8.50000000E-01  8.50000000E-01  8.50000000E-01
  8.50000000E-01  8.50000000E-01  8.50000000E-01  8.50000000E-01  8.50000000E-01
  8.50000000E-01  8.50000000E-01  8.50000000E-01  8.50000000E-01  8.50000000E-01
  8.50000000E-01  8.50000000E-01  8.50000000E-01  8.50000000E-01  8.50000000E-01
  8.50000000E-01  8.50000000E-01  8.50000000E-01  8.50000000E-01  8.50000000E-01
  8.50000000E-01  8.50000000E-01  8.50000000E-01  8.50000000E-01  8.50000000E-01
  8.50000000E-01  8.50000000E-01  8.50000000E-01  8.50000000E-01  8.50000000E-01
  8.50000000E-01  8.50000000E-01  8.50000000E-01  8.50000000E-01  8.50000000E-01
  8.50000000E-01  8.50000000E-01  8.50000000E-01  8.50000000E-01  8.50000000E-01
  8.50000000E-01  8.50000000E-01  8.50000000E-01  8.50000000E-01  8.50000000E-01
  8.50000000E-01  8.50000000E-01  8.50000000E-01  8.50000000E-01  8.50000000E-01
  8.50000000E-01  8.50000000E-01  8.50000000E-01  8.50000000E-01  8.50000000E-01
  8.50000000E-01  8.50000000E-01  8.50000000E-01  8.50000000E-01  8.50000000E-01
  8.50000000E-01  8.50000000E-01  8.50000000E-01  8.50000000E-01  8.50000000E-01
  8.50000000E-01  8.50000000E-01  8.50000000E-01  8.50000000E-01  8.50000000E-01
  8.50000000E-01  8.50000000E-01  8.50000000E-01  8.50000000E-01  8.50000000E-01
  8.50000000E-01  8.50000000E-01  8.50000000E-01  8.50000000E-01  8.50000000E-01
  8.50000000E-01  8.50000000E-01  8.50000000E-01  8.50000000E-01  8.50000000E-01
  8.50000000E-01  8.50000000E-01  8.50000000E-01  8.50000000E-01  8.50000000E-01
  8.50000000E-01  8.50000000E-01  8.50000000E-01  8.50000000E-01  8.50000000E-01
  8.50000000E-01  8.50000000E-01  8.50000000E-01  8.50000000E-01  8.50000000E-01
  8.50000000E-01  8.50000000E-01  8.50000000E-01  8.50000000E-01  8.50000000E-01
  8.50000000E-01  8.50000000E-01  8.50000000E-01  8.50000000E-01  8.50000000E-01
  8.50000000E-01  8.50000000E-01  8.50000000E-01  8.50000000E-01  8.50000000E-01
  8.50000000E-01  8.50000000E-01  8.50000000E-01  8.50000000E-01  8.50000000E-01
  8.50000000E-01  8.50000000E-01  8.50000000E-01  8.50000000E-01  8.50000000E-01
  8.50000000E-01  8.50000000E-01  8.50000000E-01  8.50000000E-01  8.50000000E-01
  8.50000000E-01  8.50000000E-01  8.50000000E-01  8.50000000E-01  8.50000000E-01
  8.50000000E-01  8.50000000E-01  8.50000000E-01  8.50000000E-01  8.50000000E-01
  8.50000000E-01  8.50000000E-01  8.50000000E-01  8.50000000E-01  8.50000000E-01
  8.50000000E-01  8.50000000E-01  8.50000000E-01  8.50000000E-01  8.50000000E-01
  8.50000000E-01  8.50000000E-01  8.50000000E-01  8.50000000E-01  8.50000000E-01
  8.50000000E-01  8.50000000E-01  8.50000000E-01  8.50000000E-01  8.50000000E-01
  8.50000000E-01  8.50000000E-01  8.50000000E-01  8.50000000E-01  8.50000000E-01
  8.50000000E-01  8.50000000E-01  8.50000000E-01  8.50000000E-01  8.50000000E-01
  8.50000000E-01  8.50000000E-01  8.50000000E-01  8.50000000E-01  8.50000000E-01
  8.50000000E-01  8.50000000E-01  8.50000000E-01  8.50000000E-01  8.50000000E-01
  8.50000000E-01  8.50000000E-01  8.50000000E-01  8.50000000E-01  8.50000000E-01
  8.50000000E-01  8.50000000E-01  8.50000000E-01  8.50000000E-01  8.50000000E-01
  8.50000000E-01  8.50000000E-01  8.50000000E-01  8.50000000E-01  8.50000000E-01
  8.50000000E-01  8.50000000E-01  8.50000000E-01  8.50000000E-01  8.50000000E-01
  8.50000000E-01  8.50000000E-01  8.50000000E-01  8.50000000E-01  8.50000000E-01
  8.50000000E-01  8.50000000E-01  8.50000000E-01  8.50000000E-01  8.50000000E-01
  8.50000000E-01  8.50000000E-01  8.50000000E-01  8.50000000E-01  8.50000000E-01
  8.50000000E-01  8.50000000E-01  8.50000000E-01  8.50000000E-01  8.50000000E-01
  8.50000000E-01  8.50000000E-01  8.50000000E-01  8.50000000E-01  8.50000000E-01
  8.50000000E-01  8.50000000E-01  8.50000000E-01  8.50000000E-01  8.50000000E-01
  8.50000000E-01  8.50000000E-01  8.50000000E-01  8.50000000E-01  8.50000000E-01
  8.50000000E-01  8.50000000E-01  8.50000000E-01  8.50000000E-01  8.50000000E-01
  8.50000000E-01  8.50000000E-01  8.50000000E-01  8.50000000E-01  8.50000000E-01
  8.50000000E-01  8.50000000E-01  8.50000000E-01  8.50000000E-01  8.50000000E-01
  8.50000000E-01  8.50000000E-01  8.50000000E-01  8.50000000E-01  8.50000000E-01
  8.50000000E-01  8.50000000E-01  8.50000000E-01  8.50000000E-01  8.50000000E-01
  8.50000000E-01  8.50000000E-01  8.50000000E-01  8.50000000E-01  8.50000000E-01
  8.50000000E-01  8.50000000E-01  8.50000000E-01  8.50000000E-01  8.50000000E-01
  8.50000000E-01  8.50000000E-01  8.50000000E-01  8.50000000E-01  8.50000000E-01
  8.50000000E-01  8.50000000E-01  8.50000000E-01  8.50000000E-01  8.50000000E-01
  8.50000000E-01  8.50000000E-01  8.50000000E-01  8.50000000E-01  8.50000000E-01
  8.50000000E-01  8.50000000E-01  8.50000000E-01  8.50000000E-01  8.50000000E-01
  8.50000000E-01  8.50000000E-01  8.50000000E-01  8.50000000E-01  8.50000000E-01
  8.50000000E-01  8.50000000E-01  8.50000000E-01  8.50000000E-01  8.50000000E-01
  8.50000000E-01  8.50000000E-01  8.50000000E-01  8.50000000E-01  8.50000000E-01
  8.50000000E-01  8.50000000E-01  8.50000000E-01  8.50000000E-01  8.50000000E-01
  8.50000000E-01  8.50000000E-01  8.50000000E-01  8.50000000E-01  8.50000000E-01
  8.50000000E-01  8.50000000E-01  8.50000000E-01  8.50000000E-01  8.50000000E-01
  8.50000000E-01  8.50000000E-01  8.50000000E-01  8.50000000E-01  8.50000000E-01
  8.50000000E-01  8.50000000E-01  8.50000000E-01  8.50000000E-01  8.50000000E-01
  8.50000000E-01  8.50000000E-01  8.50000000E-01  8.50000000E-01  8.50000000E-01
  8.50000000E-01  8.50000000E-01  8.50000000E-01  8.50000000E-01  8.50000000E-01
  8.50000000E-01  8.50000000E-01  8.50000000E-01  8.50000000E-01  8.50000000E-01
  8.50000000E-01  8.50000000E-01  8.50000000E-01  8.50000000E-01  8.50000000E-01
  8.50000000E-01  8.50000000E-01  8.50000000E-01  8.50000000E-01  8.50000000E-01
  8.50000000E-01  8.50000000E-01  8.50000000E-01  8.50000000E-01  8.50000000E-01
  8.50000000E-01  8.50000000E-01  8.50000000E-01  8.50000000E-01  8.50000000E-01
  8.50000000E-01  8.50000000E-01  8.50000000E-01  8.50000000E-01  8.50000000E-01
  8.50000000E-01  8.50000000E-01  8.50000000E-01  8.50000000E-01  8.50000000E-01
  8.50000000E-01  8.50000000E-01  8.50000000E-01  8.50000000E-01  8.50000000E-01
  8.50000000E-01  8.50000000E-01  8.50000000E-01  8.50000000E-01  8.50000000E-01
  8.50000000E-01  8.50000000E-01  8.50000000E-01  8.50000000E-01  8.50000000E-01
  8.50000000E-01  8.50000000E-01  8.50000000E-01  8.50000000E-01  8.50000000E-01
  8.50000000E-01  8.50000000E-01  8.50000000E-01  8.50000000E-01  8.50000000E-01
  8.50000000E-01  8.50000000E-01  8.50000000E-01  8.50000000E-01  8.50000000E-01
  8.50000000E-01  8.50000000E-01  8.50000000E-01  8.50000000E-01  8.50000000E-01
  8.50000000E-01  8.50000000E-01  8.50000000E-01  8.50000000E-01  8.50000000E-01
  8.50000000E-01  8.50000000E-01  8.50000000E-01  8.50000000E-01  8.50000000E-01
  8.50000000E-01  8.50000000E-01  8.50000000E-01  8.50000000E-01  8.50000000E-01
  8.50000000E-01  8.50000000E-01  8.50000000E-01  8.50000000E-01  8.50000000E-01
  8.50000000E-01  8.50000000E-01  8.50000000E-01  8.50000000E-01  8.50000000E-01
  8.50000000E-01  8.50000000E-01  8.50000000E-01  8.50000000E-01  8.50000000E-01
  8.50000000E-01  8.50000000E-01  8.50000000E-01  8.50000000E-01  8.50000000E-01
  8.50000000E-01  8.50000000E-01  8.50000000E-01  8.50000000E-01  8.50000000E-01
  8.50000000E-01  8.50000000E-01  8.50000000E-01  8.50000000E-01  8.50000000E-01
  8.50000000E-01  8.50000000E-01  8.50000000E-01  8.50000000E-01  8.50000000E-01
  8.50000000E-01  8.50000000E-01  8.50000000E-01  8.50000000E-01  8.50000000E-01
  8.50000000E-01  8.50000000E-01  8.50000000E-01  8.50000000E-01  8.50000000E-01
  8.50000000E-01  8.50000000E-01  8.50000000E-01  8.50000000E-01  8.50000000E-01
  8.50000000E-01  8.50000000E-01  8.50000000E-01  8.50000000E-01  8.50000000E-01
  8.50000000E-01  8.50000000E-01  8.50000000E-01  8.50000000E-01  8.50000000E-01
  8.50000000E-01  8.50000000E-01  8.50000000E-01  8.50000000E-01  8.50000000E-01
  8.50000000E-01  8.50000000E-01  8.50000000E-01  8.50000000E-01  8.50000000E-01
  8.50000000E-01  8.50000000E-01  8.50000000E-01  8.50000000E-01  8.50000000E-01
  8.50000000E-01  8.50000000E-01  8.50000000E-01  8.50000000E-01  8.50000000E-01
  8.50000000E-01  8.50000000E-01  8.50000000E-01  8.50000000E-01  8.50000000E-01
  8.50000000E-01  8.50000000E-01  8.50000000E-01  8.50000000E-01  8.50000000E-01
  8.50000000E-01  8.50000000E-01  8.50000000E-01  8.50000000E-01  8.50000000E-01
  8.50000000E-01  8.50000000E-01  8.50000000E-01  8.50000000E-01  8.50000000E-01
  8.50000000E-01  8.50000000E-01  8.50000000E-01  8.50000000E-01  8.50000000E-01
  8.50000000E-01  8.50000000E-01  8.50000000E-01  8.50000000E-01  8.50000000E-01
  8.50000000E-01  8.50000000E-01  8.50000000E-01  8.50000000E-01  8.50000000E-01
  8.50000000E-01  8.50000000E-01  8.50000000E-01  8.50000000E-01  8.50000000E-01
  8.50000000E-01  8.50000000E-01  8.50000000E-01  8.50000000E-01  8.50000000E-01
  8.50000000E-01  8.50000000E-01  8.50000000E-01  8.50000000E-01  8.50000000E-01
  8.50000000E-01  8.50000000E-01  8.50000000E-01  8.50000000E-01  8.50000000E-01
  8.50000000E-01  8.50000000E-01  8.50000000E-01  8.50000000E-01  8.50000000E-01
  8.50000000E-01  8.50000000E-01  8.50000000E-01  8.50000000E-01  8.50000000E-01
  8.50000000E-01  8.50000000E-01  8.50000000E-01  8.50000000E-01  8.50000000E-01
  8.50000000E-01  8.50000000E-01  8.50000000E-01  8.50000000E-01  8.50000000E-01
  8.50000000E-01  8.50000000E-01  8.50000000E-01  8.50000000E-01  8.50000000E-01
  8.50000000E-01  8.50000000E-01  8.50000000E-01  8.50000000E-01  8.50000000E-01
  8.50000000E-01  8.50000000E-01  8.50000000E-01  8.50000000E-01  8.50000000E-01
  8.50000000E-01  8.50000000E-01  8.50000000E-01  8.50000000E-01  8.50000000E-01
  8.50000000E-01  8.50000000E-01  8.50000000E-01  8.50000000E-01  8.50000000E-01
  8.50000000E-01  8.50000000E-01  8.50000000E-01  8.50000000E-01  8.50000000E-01
  8.50000000E-01  8.50000000E-01  8.50000000E-01  8.50000000E-01  8.50000000E-01
  8.50000000E-01  8.50000000E-01  8.50000000E-01  8.50000000E-01  8.50000000E-01
  8.50000000E-01  8.50000000E-01  8.50000000E-01  8.50000000E-01  8.50000000E-01
  8.50000000E-01  8.50000000E-01  8.50000000E-01  8.50000000E-01  8.50000000E-01
  8.50000000E-01  8.50000000E-01  8.50000000E-01  8.50000000E-01  8.50000000E-01
  8.50000000E-01  8.50000000E-01  8.50000000E-01  8.50000000E-01  8.50000000E-01
  8.50000000E-01  8.50000000E-01  8.50000000E-01  8.50000000E-01  8.50000000E-01
  8.50000000E-01  8.50000000E-01  8.50000000E-01  8.50000000E-01  8.50000000E-01
  8.50000000E-01  8.50000000E-01  8.50000000E-01  8.50000000E-01  8.50000000E-01
  8.50000000E-01  8.50000000E-01  8.50000000E-01  8.50000000E-01  8.50000000E-01
  8.50000000E-01  8.50000000E-01  8.50000000E-01  8.50000000E-01  8.50000000E-01
  8.50000000E-01  8.50000000E-01  8.50000000E-01  8.50000000E-01  8.50000000E-01
  8.50000000E-01  8.50000000E-01  8.50000000E-01  8.50000000E-01  8.50000000E-01
  8.50000000E-01  8.50000000E-01  8.50000000E-01  8.50000000E-01  8.50000000E-01
  8.50000000E-01  8.50000000E-01  8.50000000E-01  8.50000000E-01  8.50000000E-01
  8.50000000E-01  8.50000000E-01  8.50000000E-01  8.50000000E-01  8.50000000E-01
  8.50000000E-01  8.50000000E-01  8.50000000E-01  8.50000000E-01  8.50000000E-01
  8.50000000E-01  8.50000000E-01  8.50000000E-01  8.50000000E-01  8.50000000E-01
  8.50000000E-01  8.50000000E-01  8.50000000E-01  8.50000000E-01  8.50000000E-01
  8.50000000E-01  8.50000000E-01  8.50000000E-01  8.50000000E-01  8.50000000E-01
  8.50000000E-01  8.50000000E-01  8.50000000E-01  8.50000000E-01  8.50000000E-01
  8.50000000E-01  8.50000000E-01  8.50000000E-01  8.50000000E-01  8.50000000E-01
  8.50000000E-01  8.50000000E-01  8.50000000E-01  8.50000000E-01  8.50000000E-01
  8.50000000E-01  8.50000000E-01  8.50000000E-01  8.50000000E-01  8.50000000E-01
  8.50000000E-01  8.50000000E-01  8.50000000E-01  8.50000000E-01  8.50000000E-01
  8.50000000E-01  8.50000000E-01  8.50000000E-01  8.50000000E-01  8.50000000E-01
  8.50000000E-01  8.50000000E-01  8.50000000E-01  8.50000000E-01  8.50000000E-01
  8.50000000E-01  8.50000000E-01  8.50000000E-01  8.50000000E-01  8.50000000E-01
  8.50000000E-01  8.50000000E-01  8.50000000E-01  8.50000000E-01  8.50000000E-01
  8.50000000E-01  8.50000000E-01  8.50000000E-01  8.50000000E-01  8.50000000E-01
  8.50000000E-01  8.50000000E-01  8.50000000E-01  8.50000000E-01  8.50000000E-01
  8.50000000E-01  8.50000000E-01  8.50000000E-01  8.50000000E-01  8.50000000E-01
  8.50000000E-01  8.50000000E-01  8.50000000E-01  8.50000000E-01  8.50000000E-01
  8.50000000E-01  8.50000000E-01  8.50000000E-01  8.50000000E-01  8.50000000E-01
  8.50000000E-01  8.50000000E-01  8.50000000E-01  8.50000000E-01  8.50000000E-01
  8.50000000E-01  8.50000000E-01  8.50000000E-01  8.50000000E-01  8.50000000E-01
  8.50000000E-01  8.50000000E-01  8.50000000E-01  8.50000000E-01  8.50000000E-01
  8.50000000E-01  8.50000000E-01  8.50000000E-01  8.50000000E-01  8.50000000E-01
  8.50000000E-01  8.50000000E-01  8.50000000E-01  8.50000000E-01  8.50000000E-01
  8.50000000E-01  8.50000000E-01  8.50000000E-01  8.50000000E-01  8.50000000E-01
  8.50000000E-01  8.50000000E-01  8.50000000E-01  8.50000000E-01  8.50000000E-01
  8.50000000E-01  8.50000000E-01  8.50000000E-01  8.50000000E-01  8.50000000E-01
  8.50000000E-01  8.50000000E-01  8.50000000E-01  8.50000000E-01  8.50000000E-01
  8.50000000E-01  8.50000000E-01  8.50000000E-01  8.50000000E-01  8.50000000E-01
  8.50000000E-01  8.50000000E-01  8.50000000E-01  8.50000000E-01  8.50000000E-01
  8.50000000E-01  8.50000000E-01  8.50000000E-01  8.50000000E-01  8.50000000E-01
  8.50000000E-01  8.50000000E-01  8.50000000E-01  8.50000000E-01  8.50000000E-01
  8.50000000E-01  8.50000000E-01  8.50000000E-01  8.50000000E-01  8.50000000E-01
  8.50000000E-01  8.50000000E-01  8.50000000E-01  8.50000000E-01  8.50000000E-01
  8.50000000E-01  8.50000000E-01  8.50000000E-01  8.50000000E-01  8.50000000E-01
  8.50000000E-01  8.50000000E-01  8.50000000E-01  8.50000000E-01  8.50000000E-01
  8.50000000E-01  8.50000000E-01  8.50000000E-01  8.50000000E-01  8.50000000E-01
  8.50000000E-01  8.50000000E-01  8.50000000E-01  8.50000000E-01  8.50000000E-01
  8.50000000E-01  8.50000000E-01  8.50000000E-01  8.50000000E-01  8.50000000E-01
  8.50000000E-01  8.50000000E-01  8.50000000E-01  8.50000000E-01  8.50000000E-01
  8.50000000E-01  8.50000000E-01  8.50000000E-01  8.50000000E-01  8.50000000E-01
  8.50000000E-01  8.50000000E-01  8.50000000E-01  8.50000000E-01  8.50000000E-01
  8.50000000E-01  8.50000000E-01  8.50000000E-01  8.50000000E-01  8.50000000E-01
  8.50000000E-01  8.50000000E-01  8.50000000E-01  8.50000000E-01  8.50000000E-01
  8.50000000E-01  8.50000000E-01  8.50000000E-01  8.50000000E-01  8.50000000E-01
  8.50000000E-01  8.50000000E-01  8.50000000E-01  8.50000000E-01  8.50000000E-01
  8.50000000E-01  8.50000000E-01  8.50000000E-01  8.50000000E-01  8.50000000E-01
  8.50000000E-01  8.50000000E-01  8.50000000E-01  8.50000000E-01  8.50000000E-01
  8.50000000E-01  8.50000000E-01  8.50000000E-01  8.50000000E-01  8.50000000E-01
  8.50000000E-01  8.50000000E-01  8.50000000E-01  8.50000000E-01  8.50000000E-01
  8.50000000E-01  8.50000000E-01  8.50000000E-01  8.50000000E-01  8.50000000E-01
  8.50000000E-01  8.50000000E-01  8.50000000E-01  8.50000000E-01  8.50000000E-01
  8.50000000E-01  8.50000000E-01  8.50000000E-01  8.50000000E-01  8.50000000E-01
  8.50000000E-01  8.50000000E-01  8.50000000E-01  8.50000000E-01  8.50000000E-01
  8.50000000E-01  8.50000000E-01  8.50000000E-01  8.50000000E-01  8.50000000E-01
  8.50000000E-01  8.50000000E-01  8.50000000E-01  8.50000000E-01  8.50000000E-01
  8.50000000E-01  8.50000000E-01  8.50000000E-01  8.50000000E-01  8.50000000E-01
  8.50000000E-01  8.50000000E-01  8.50000000E-01  8.50000000E-01  8.50000000E-01
  8.50000000E-01  8.50000000E-01  8.50000000E-01  8.50000000E-01  8.50000000E-01
  8.50000000E-01  8.50000000E-01  8.50000000E-01  8.50000000E-01  8.50000000E-01
  8.50000000E-01  8.50000000E-01  8.50000000E-01  8.50000000E-01  8.50000000E-01
  8.50000000E-01  8.50000000E-01  8.50000000E-01  8.50000000E-01  8.50000000E-01
  8.50000000E-01  8.50000000E-01  8.50000000E-01  8.50000000E-01  8.50000000E-01
  8.50000000E-01  8.50000000E-01  8.50000000E-01  8.50000000E-01  8.50000000E-01
  8.50000000E-01  8.50000000E-01  8.50000000E-01  8.50000000E-01  8.50000000E-01
  8.50000000E-01  8.50000000E-01  8.50000000E-01  8.50000000E-01  8.50000000E-01
  8.50000000E-01  8.50000000E-01  8.50000000E-01  8.50000000E-01  8.50000000E-01
  8.50000000E-01  8.50000000E-01  8.50000000E-01  8.50000000E-01  8.50000000E-01
  8.50000000E-01  8.50000000E-01  8.50000000E-01  8.50000000E-01  8.50000000E-01
  8.50000000E-01  8.50000000E-01  8.50000000E-01  8.50000000E-01  8.50000000E-01
  8.50000000E-01  8.50000000E-01  8.50000000E-01  8.50000000E-01  8.50000000E-01
  8.50000000E-01  8.50000000E-01  8.50000000E-01  8.50000000E-01  8.50000000E-01
  8.50000000E-01  8.50000000E-01  8.50000000E-01  8.50000000E-01  8.50000000E-01
  8.50000000E-01  8.50000000E-01  8.50000000E-01  8.50000000E-01  8.50000000E-01
  8.50000000E-01  8.50000000E-01  8.50000000E-01  8.50000000E-01  8.50000000E-01
  8.50000000E-01  8.50000000E-01  8.50000000E-01  8.50000000E-01  8.50000000E-01
  8.50000000E-01  8.50000000E-01  8.50000000E-01  8.50000000E-01  8.50000000E-01
  8.50000000E-01  8.50000000E-01  8.50000000E-01  8.50000000E-01  8.50000000E-01
  8.50000000E-01  8.50000000E-01  8.50000000E-01  8.50000000E-01  8.50000000E-01
  8.50000000E-01  8.50000000E-01  8.50000000E-01  8.50000000E-01  8.50000000E-01
  8.50000000E-01  8.50000000E-01  8.50000000E-01  8.50000000E-01  8.50000000E-01
  8.50000000E-01  8.50000000E-01  8.50000000E-01  8.50000000E-01  8.50000000E-01
  8.50000000E-01  8.50000000E-01  8.50000000E-01  8.50000000E-01  8.50000000E-01
  8.50000000E-01  8.50000000E-01  8.50000000E-01  8.50000000E-01  8.50000000E-01
  8.50000000E-01  8.50000000E-01  8.50000000E-01  8.50000000E-01  8.50000000E-01
  8.50000000E-01  8.50000000E-01  8.50000000E-01  8.50000000E-01  8.50000000E-01
  8.50000000E-01  8.50000000E-01  8.50000000E-01  8.50000000E-01  8.50000000E-01
  8.50000000E-01  8.50000000E-01  8.50000000E-01  8.50000000E-01  8.50000000E-01
  8.50000000E-01  8.50000000E-01  8.50000000E-01  8.50000000E-01  8.50000000E-01
  8.50000000E-01  8.50000000E-01  8.50000000E-01  8.50000000E-01  8.50000000E-01
  8.50000000E-01  8.50000000E-01  8.50000000E-01  8.50000000E-01  8.50000000E-01
  8.50000000E-01  8.50000000E-01  8.50000000E-01  8.50000000E-01  8.50000000E-01
  8.50000000E-01  8.50000000E-01  8.50000000E-01  8.50000000E-01  8.50000000E-01
  8.50000000E-01  8.50000000E-01  8.50000000E-01  8.50000000E-01  8.50000000E-01
  8.50000000E-01  8.50000000E-01  8.50000000E-01  8.50000000E-01  8.50000000E-01
  8.50000000E-01  8.50000000E-01  8.50000000E-01  8.50000000E-01  8.50000000E-01
  8.50000000E-01  8.50000000E-01  8.50000000E-01  8.50000000E-01  8.50000000E-01
  8.50000000E-01  8.50000000E-01  8.50000000E-01  8.50000000E-01  8.50000000E-01
  8.50000000E-01  8.50000000E-01  8.50000000E-01  8.50000000E-01  8.50000000E-01
  8.50000000E-01  8.50000000E-01  8.50000000E-01  8.50000000E-01  8.50000000E-01
  8.50000000E-01  8.50000000E-01  8.50000000E-01  8.50000000E-01  8.50000000E-01
  8.50000000E-01  8.50000000E-01  8.50000000E-01  8.50000000E-01  8.50000000E-01
  8.50000000E-01  8.50000000E-01  8.50000000E-01  8.50000000E-01  8.50000000E-01
  8.50000000E-01  8.50000000E-01  8.50000000E-01  8.50000000E-01  8.50000000E-01
  8.50000000E-01  8.50000000E-01  8.50000000E-01  8.50000000E-01  8.50000000E-01
  8.50000000E-01  8.50000000E-01  8.50000000E-01  8.50000000E-01  8.50000000E-01
  8.50000000E-01  8.50000000E-01  8.50000000E-01  8.50000000E-01  8.50000000E-01
  8.50000000E-01  8.50000000E-01  8.50000000E-01  8.50000000E-01  8.50000000E-01
  8.50000000E-01  8.50000000E-01  8.50000000E-01  8.50000000E-01  8.50000000E-01
  8.50000000E-01  8.50000000E-01  8.50000000E-01  8.50000000E-01  8.50000000E-01
  8.50000000E-01  8.50000000E-01  8.50000000E-01  8.50000000E-01  8.50000000E-01
  8.50000000E-01  8.50000000E-01  8.50000000E-01  8.50000000E-01  8.50000000E-01
  8.50000000E-01  8.50000000E-01  8.50000000E-01  8.50000000E-01  8.50000000E-01
  8.50000000E-01  8.50000000E-01  8.50000000E-01  8.50000000E-01  8.50000000E-01
  8.50000000E-01  8.50000000E-01  8.50000000E-01  8.50000000E-01  8.50000000E-01
  8.50000000E-01  8.50000000E-01  8.50000000E-01  8.50000000E-01  8.50000000E-01
  8.50000000E-01  8.50000000E-01  8.50000000E-01  8.50000000E-01  8.50000000E-01
  8.50000000E-01  8.50000000E-01  8.50000000E-01  8.50000000E-01  8.50000000E-01
  8.50000000E-01  8.50000000E-01  8.50000000E-01  8.50000000E-01  8.50000000E-01
  8.50000000E-01  8.50000000E-01  8.50000000E-01  8.50000000E-01  8.50000000E-01
  8.50000000E-01  8.50000000E-01  8.50000000E-01  8.50000000E-01  8.50000000E-01
  8.50000000E-01  8.50000000E-01  8.50000000E-01  8.50000000E-01  8.50000000E-01
  8.50000000E-01  8.50000000E-01  8.50000000E-01  8.50000000E-01  8.50000000E-01
  8.50000000E-01  8.50000000E-01  8.50000000E-01  8.50000000E-01  8.50000000E-01
  8.50000000E-01  8.50000000E-01  8.50000000E-01  8.50000000E-01  8.50000000E-01
  8.50000000E-01  8.50000000E-01  8.50000000E-01  8.50000000E-01  8.50000000E-01
  8.50000000E-01  8.50000000E-01  8.50000000E-01  8.50000000E-01  8.50000000E-01
  8.50000000E-01  8.50000000E-01  8.50000000E-01  8.50000000E-01  8.50000000E-01
  8.50000000E-01  8.50000000E-01  8.50000000E-01  8.50000000E-01  8.50000000E-01
  8.50000000E-01  8.50000000E-01  8.50000000E-01  8.50000000E-01  8.50000000E-01
  8.50000000E-01  8.50000000E-01  8.50000000E-01  8.50000000E-01  8.50000000E-01
  8.50000000E-01  8.50000000E-01  8.50000000E-01  8.50000000E-01  8.50000000E-01
  8.50000000E-01  8.50000000E-01  8.50000000E-01  8.50000000E-01  8.50000000E-01
  8.50000000E-01  8.50000000E-01  8.50000000E-01  8.50000000E-01  8.50000000E-01
  8.50000000E-01  8.50000000E-01  8.50000000E-01  8.50000000E-01  8.50000000E-01
  8.50000000E-01  8.50000000E-01  8.50000000E-01  8.50000000E-01  8.50000000E-01
  8.50000000E-01  8.50000000E-01  8.50000000E-01  8.50000000E-01  8.50000000E-01
  8.50000000E-01  8.50000000E-01  8.50000000E-01  8.50000000E-01  8.50000000E-01
  8.50000000E-01  8.50000000E-01  8.50000000E-01  8.50000000E-01  8.50000000E-01
  8.50000000E-01  8.50000000E-01  8.50000000E-01  8.50000000E-01  8.50000000E-01
  8.50000000E-01  8.50000000E-01  8.50000000E-01  8.50000000E-01  8.50000000E-01
  8.50000000E-01  8.50000000E-01  8.50000000E-01  8.50000000E-01  8.50000000E-01
  8.50000000E-01  8.50000000E-01  8.50000000E-01  8.50000000E-01  8.50000000E-01
  8.50000000E-01  8.50000000E-01  8.50000000E-01  8.50000000E-01  8.50000000E-01
  8.50000000E-01  8.50000000E-01  8.50000000E-01  8.50000000E-01  8.50000000E-01
  8.50000000E-01  8.50000000E-01  8.50000000E-01  8.50000000E-01  8.50000000E-01
  8.50000000E-01  8.50000000E-01  8.50000000E-01  8.50000000E-01  8.50000000E-01
  8.50000000E-01  8.50000000E-01  8.50000000E-01  8.50000000E-01  8.50000000E-01
  8.50000000E-01  8.50000000E-01  8.50000000E-01  8.50000000E-01  8.50000000E-01
  8.50000000E-01  8.50000000E-01  8.50000000E-01  8.50000000E-01  8.50000000E-01
%FLAG IPOL
%FORMAT(1I8)
       0
