default_name
 30680
  29.4772959  42.2938764  31.9369119  29.4386219  41.4731637  31.3495142
  29.7988581  43.0747342  31.3828729  28.6126859  42.3638129  32.4542687
  30.5072959  42.0838764  32.9379119  31.2605903  42.8652616  32.8374943
  30.0538913  42.1420357  33.9274275  31.1742959  40.7328764  32.7799119
  31.0252959  40.0788764  31.7499119  31.9032959  40.3038764  33.8049119
  31.9906449  40.8581480  34.6447050  32.6862959  39.0788764  33.7009119
  33.3213981  39.0747113  32.8150638  33.5482959  38.8468764  34.9489119
  34.1865857  39.7167344  35.1039390  32.6662959  38.6348764  36.1829119
  32.0280068  37.7648533  36.0288092  33.2966890  38.4721006  37.0571026
  32.0455772  39.5165787  36.3423121  34.5072959  37.6758764  34.7129119
  33.9103204  36.7652880  34.6624149  34.9997608  37.8404658  33.7545341
  35.5472959  37.5348764  35.7939119  35.0555667  37.3697866  36.7525816
  36.1947746  36.6877275  35.5676171  36.1450059  38.4449659  35.8447022
  31.8412959  37.8418764  33.4109119  32.2872959  36.9208764  32.7219119
  30.6192959  37.8108764  33.9269119  30.2748330  38.5455956  34.5282706
  29.7632959  36.6548764  33.6879119  30.2876750  35.7297608  33.9272589
  28.4722959  36.7128764  34.5109119  27.9633705  37.6571841  34.3175807
  27.5622959  35.5588764  34.1239119  28.0703945  34.6141558  34.3174058
  26.6458542  35.6050918  34.7122140  27.3170296  35.6285168  33.0641496
  28.8002959  36.6688764  36.0089119  29.4287470  37.5206576  36.2689502
  27.8760049  36.7106223  36.5851437  29.3295170  35.7440422  36.2384933
  29.4322959  36.5268764  32.2019119  29.4982959  35.4388764  31.6299119
  29.0872959  37.6518764  31.5839119  29.0238885  38.5120695  32.1094085
  28.7552959  37.6828764  30.1649119  27.9566400  36.9719165  29.9532895
  28.2822959  39.0828764  29.7659119  29.0409939  39.7860225  30.1095135
  28.2335690  39.1050270  28.6772269  26.9272959  39.4758764  30.3429119
  26.6111483  40.4191299  29.8974635  26.2230076  38.6907161  30.0679563
  26.9242959  39.5908764  31.8639119  27.8882959  40.1498764  32.4369119
  25.9442959  39.1268764  32.4889119  26.0203239  39.2308440  33.4400111
  29.9592959  37.2798764  29.3239119  29.8232959  36.5728764  28.3269119
  25.2802637  38.7415890  31.9126361  27.7979494  40.1646104  33.3929419
  28.5524301  40.4732005  31.8242911  31.1412959  37.7198764  29.7429119
  31.1998305  38.3061106  30.5632792  32.3632959  37.4658764  28.9849119
  32.1445034  37.4720993  27.9171150  33.4072959  38.5478764  29.2769119
  33.6312913  38.5123852  30.3430572  34.3050509  38.3032140  28.7092181
  32.9382959  39.9428764  28.9049119  32.2537962  40.3028097  29.6730324
  33.8056326  40.6011245  28.8545284  32.2212959  39.9768764  27.5579119
  32.6822959  39.3898764  26.5769119  31.0852959  40.6648764  27.5099119
  30.5687317  40.7210935  26.6438273  30.7437319  41.1283682  28.3397377
  32.9802959  36.0838764  29.1949119  33.6072959  35.5448764  28.2839119
  32.8162959  35.5048764  30.3829119  32.2499375  35.9275293  31.1045088
  33.5422959  34.2798764  30.7019119  34.1073257  33.9444740  29.8322305
  34.5212959  34.5318764  31.8549119  34.0018758  35.0365289  32.6695455
  34.9167738  33.5805875  32.2109270  36.0002959  35.4538764  31.3579119
  32.6422959  33.0928764  31.0259119  33.0792959  31.9488764  30.9579119
  31.3972959  33.3708764  31.3909119  31.0917167  34.3303504  31.4692084
  30.4492959  32.3118764  31.7309119  30.9860627  31.3881085  31.9468598
  29.6372959  32.7048764  32.9649119  30.3092908  32.8557740  33.8097503
  29.0939880  33.6282234  32.7640470  28.4012959  31.4718764  33.4599119
  29.5112959  32.0238764  30.5609119  29.4492959  30.9008764  30.0609119
  28.7892959  33.0548764  30.1289119  28.8715592  33.9494224  30.5905605
  27.8552959  32.9348764  29.0149119  27.2084872  32.0697018  29.1605507
  26.9762959  34.1878764  28.8799119  27.5001171  34.9262146  28.2728138
  25.6562959  33.8378764  28.2219119  25.1316541  33.0998792  28.8287157
  25.0446014  34.7356880  28.1332376  25.8421250  33.4260310  27.2299686
  26.7332959  34.7528764  30.1709119  26.1839376  35.5348544  30.0797187
  28.6092959  32.7218764  27.7089119  28.1092959  32.0698764  26.7969119
  29.8082959  33.2868764  27.6209119  30.1043486  33.9519259  28.3210271
  30.6922959  33.0368764  26.4859119  30.2774634  32.2396544  25.8691054
  30.8462959  34.2908764  25.6249119  31.5698032  34.0868279  24.8356081
  29.8808240  34.5300981  25.1791126  31.2912959  35.3858764  26.3999119
  31.3803074  36.1597887  25.8388981  32.0572959  32.5268764  26.9419119
  32.3372959  32.4618764  28.1399119  32.9072959  32.1648764  25.9899119
  32.6548155  32.2405748  25.0149131  34.1942959  31.5638764  26.3269119
  34.0724775  30.8602257  27.1504016  34.8142959  30.8398764  25.1229119
  34.9226800  31.5499213  24.3030403  36.1792959  30.2658764  25.4809119
  36.0716489  29.5553471  26.3004612  36.5993160  29.7576606  24.6129254
  36.8449520  31.0733465  25.7858595  33.8762959  29.7278764  24.6559119
  33.6525761  29.1041007  25.5213333  32.9597712  30.2003409  24.3025578
  34.4542959  28.8768764  23.5619119  35.3706620  28.4036820  23.9147011
  33.7345018  28.1084561  23.2799084  34.6778592  29.4999233  22.6959259
  35.1652959  32.6018764  26.8839119  35.3362959  33.6758764  26.3169119
  35.7842959  32.2658764  28.0109119  35.6340023  31.3469968  28.4022833
  36.6682959  33.1798764  28.7169119  36.2247278  34.1742519  28.7675460
  36.8892959  32.6688764  30.1449119  35.9658343  32.2283067  30.5206995
  37.6767020  31.9151586  30.1438649  37.3502959  33.9418764  31.3429119
  38.0042959  33.2768764  27.9929119  38.2652959  32.5318764  27.0469119
  38.8542959  34.1908764  28.4439119  38.5811799  34.8394564  29.1683778
  40.2022959  34.2888764  27.9019119  40.5486943  33.3020666  27.5948065
  40.2262959  35.2108764  26.6919119  41.1775202  35.0911906  26.1733111
  39.4109331  34.9383662  26.0218211  40.0752959  36.5578764  27.0939119
  40.0924244  37.1264387  26.3205793  41.1222959  34.8358764  28.9699119
  40.6802959  35.5478764  29.8759119  42.4102959  34.5278764  28.8589119
  42.7425523  33.9141167  28.1288406  43.3782959  35.0428764  29.8249119
  43.1113079  34.7081549  30.8272982  44.7852959  34.5388764  29.4999119
  44.7148116  33.4552667  29.5943646  45.0123347  34.7989440  28.4660269
  45.8962959  35.0578764  30.4109119  45.9336783  36.1439737  30.3266751
  45.6522959  34.6698764  31.8629119  45.6152470  33.5838367  31.9480240
  46.4614899  35.0550358  32.4833617  44.7052288  35.0926038  32.1982712
  47.2342959  34.5258764  29.9429119  47.4211578  34.8585527  28.9218789
  48.0229452  34.8991743  30.5961976  47.2234237  33.4363534  29.9732512
  43.3442959  36.5638764  29.8129119  43.4272959  37.2138764  30.8579119
  43.2062959  37.1308764  28.6189119  43.1467596  36.5672692  27.7829084
  43.1972959  38.5768764  28.4769119  44.1493697  38.9879930  28.8125274
  42.9852959  38.9668764  27.0119119  43.7216470  38.4142426  26.4284035
  41.9825550  38.6562433  26.7184536  43.1482959  40.4438764  26.7569119
  44.3142959  40.9488764  26.1919119  45.1145701  40.2589183  25.9242956
  44.4672959  42.3078764  25.9679119  45.3826183  42.6962921  25.5213474
  43.4452959  43.1728764  26.3129119  43.5772959  44.5248764  26.0979119
  44.4197175  44.7613992  25.7029659  42.2842959  42.6918764  26.8789119
  41.4808168  43.3755144  27.1530666  42.1422959  41.3378764  27.0979119
  41.2271938  40.9513826  27.5465887  42.1182959  39.1958764  29.3579119
  42.3652959  40.1498764  30.0989119  40.9192959  38.6398764  29.2819119
  40.7485229  37.8657920  28.6560290  39.7942959  39.1848764  30.0289119
  39.7713175  40.2699592  29.9280838  38.4812959  38.6168764  29.4929119
  38.5198741  37.5337270  29.6086638  37.6744985  39.0187507  30.1058353
  38.2292959  38.9608764  28.0369119  38.7229301  39.9037109  27.8013506
  38.6466662  38.1678766  27.4163836  36.7592959  39.0948764  27.7239119
  36.0762959  39.9698764  28.2639119  36.2592959  38.2328764  26.8409119
  35.2808383  38.2775559  26.5944855  36.8607592  37.5382602  26.4215652
  39.9192959  38.9378764  31.5289119  39.6352959  39.8198764  32.3339119
  40.3572959  37.7428764  31.9049119  40.5515822  37.0153847  31.2317790
  40.5202959  37.4358764  33.3209119  39.5582066  37.5161160  33.8269208
  41.0532959  36.0188764  33.5089119  41.8796454  35.9416665  32.8023113
  41.4350762  35.9239530  34.5254420  40.0472959  34.9048764  33.2379119
  39.5583750  35.0914258  32.2817443  40.7492959  33.5598764  33.1929119
  41.2380978  33.3724040  34.1489588  40.0188246  32.7745071  32.9987273
  41.4958061  33.5654684  32.3986881  38.9702959  34.9318764  34.3149119
  38.4623382  35.8961236  34.2974239  38.2477598  34.1377070  34.1269279
  39.4290682  34.7811459  35.2921055  41.4552959  38.4378764  33.9779119
  41.1912959  38.9238764  35.0789119  42.5572959  38.7588764  33.3009119
  42.7840607  38.3082575  32.4259150  43.5372959  39.6638764  33.8859119
  43.7465132  39.3566368  34.9105734  44.8462959  39.6538764  33.0959119
  44.6015804  39.7168987  32.0356093  45.4238255  40.5310312  33.3877319
  45.6662959  38.3988764  33.3529119  45.5581489  38.1222416  34.4016627
  45.2696965  37.6013829  32.7245710  47.1332959  38.5698764  33.0109119
  47.4552959  39.4028764  32.1409119  47.9642959  37.8608764  33.6109119
  48.8685667  38.0232528  33.3332301  42.9932959  41.0818764  34.0709119
  43.4972959  41.8378764  34.8999119  47.5604414  37.2685240  34.2492685
  48.4025382  39.4347726  31.9857103  46.7031083  39.8744925  31.7766192
  41.9572959  41.4298764  33.3189119  41.6352672  40.8259301  32.5761833
  41.2762959  42.7128764  33.5159119  41.9899010  43.5301503  33.4113640
  40.1692959  42.8948764  32.4769119  39.6820405  41.9326831  32.3192236
  39.4420269  43.6116901  32.8581703  40.6952959  43.3998764  31.1379119
  41.7492959  44.0298764  31.0709119  39.9542959  43.1258764  30.0709119
  40.2547724  43.4362809  29.1579702  39.0935187  42.6082877  30.1770508
  40.6762959  42.8218764  34.9169119  40.2872959  43.9048764  35.3609119
  40.5932959  41.6958764  35.6129119  40.8848381  40.8179077  35.2076053
  39.9532959  41.6738764  36.9239119  39.5465065  42.6594605  37.1502866
  38.8112959  40.6548764  36.9529119  39.2344429  39.6955853  36.6549076
  38.4256203  40.5811287  37.9697284  37.6882959  41.0218764  36.0149119
  37.6412959  40.5088764  34.7299119  38.4240472  39.8221620  34.4076957
  36.6302959  40.8518764  33.8659119  36.6069486  40.4380276  32.8578018
  35.6522959  41.7278764  34.2719119  34.6422959  42.0648764  33.3979119
  34.7243283  41.6319748  32.5449954  35.6742959  42.2558764  35.5429119
  34.8969934  42.9471676  35.8685157  36.6902959  41.9038764  36.4069119
  36.7177163  42.3196254  37.4141363  40.9342959  41.4498764  38.0709119
  40.5332959  41.3928764  39.2329119  42.2222959  41.3368764  37.7519119
  42.5166749  41.2706750  36.7880355  43.2462959  41.3068764  38.7919119
  42.9417368  40.6213499  39.5827320  44.5872959  40.8388764  38.2299119
  44.9290215  41.5423029  37.4706268  45.3211914  40.7883465  39.0342403
  44.5472959  39.2428764  37.4219119  43.4222959  42.7008764  39.3689119
  43.2302959  43.6948764  38.6659119  43.8012959  42.7718764  40.6419119
  43.8438768  41.9340792  41.2043905  44.1262959  44.0488764  41.2749119
  43.3808658  44.7936565  40.9961007  44.1412959  43.9188764  42.8009119
  44.8272853  43.1168939  43.0735689  44.4910877  44.8573930  43.2309494
  42.7782959  43.6038764  43.3729119  42.6492959  42.7818764  44.2799119
  41.7482959  44.2538764  42.8429119  40.8147661  44.0814655  43.1877255
  41.9033655  44.9175499  42.0975318  45.4772959  44.5668764  40.8029119
  46.2412959  43.8458764  40.1599119  45.8342959  45.7148764  41.0619119
  43.5822959  26.3158764  30.9999119  43.5607310  27.2282335  30.5671990
  43.5162178  25.6125888  30.2780251  44.3437070  26.2889946  31.6629579
  42.3692959  26.1638764  31.7989119  41.7962278  25.3107674  31.4357352
  42.7142959  25.9298764  33.2779119  41.7998326  25.8547823  33.8663140
  43.2924567  25.0123393  33.3872549  43.5342959  27.0318764  33.8949119
  42.9402959  28.0058764  34.6799119  41.8646932  27.9689530  34.8525832
  43.6972959  29.0188764  35.2429119  43.2178353  29.7815762  35.8565138
  45.0602959  29.0628764  35.0269119  45.6595437  29.8585363  35.4695487
  45.6632959  28.0968764  34.2489119  46.7394621  28.1262499  34.0783142
  44.9022959  27.0918764  33.6859119  45.3769070  26.3306827  33.0666959
  41.4462959  27.3718764  31.6609119  40.3052959  27.3408764  32.1179119
  41.9372959  28.4328764  31.0229119  42.8583838  28.4095665  30.6092056
  41.1882959  29.6888764  30.9779119  40.4370456  29.7246986  31.7668599
  42.1232959  30.8928764  31.1369119  41.5628372  31.8105461  30.9583971
  42.7002959  30.9168764  32.5459119  43.2613216  29.9996670  32.7250156
  43.3640179  31.7748769  32.6527232  41.8891551  30.9932876  33.2700070
  43.2372959  30.8288764  30.1099119  42.8091621  30.8394885  29.1075692
  43.8951364  31.6892817  30.2325825  43.8094183  29.9117899  30.2503725
  40.3542959  29.8588764  29.7099119  39.5072959  30.7498764  29.6229119
  40.5982959  29.0108764  28.7229119  41.3256721  28.3145851  28.8016627
  39.9122959  29.1518764  27.4449119  39.4894597  30.1522615  27.3525089
  40.9022959  28.9338764  26.3049119  41.3001633  27.9248899  26.4132956
  40.4120010  29.0284088  25.3360081  42.0532959  29.9168764  26.3629119
  43.1952959  29.5488764  26.6509119  41.7472959  31.1848764  26.1379119
  42.4718114  31.8881228  26.1628417  40.7907044  31.4433024  25.9423369
  38.6842959  28.2558764  27.3229119  38.6412959  27.3358764  26.5079119
  37.6832959  28.5418764  28.1519119  37.7834041  29.3009661  28.8105927
  36.4432959  27.7688764  28.1689119  36.0918602  27.6078530  27.1497634
  36.6772959  26.4078764  28.8259119  35.7351022  25.8612190  28.7867187
  37.4257721  25.8838819  28.2315104  37.1482959  26.4998764  30.2639119
  38.0709662  27.0794337  30.2938056  36.3841800  27.0034659  30.8560492
  37.4122959  25.1378764  30.8719119  36.5462959  24.2618764  30.8609119
  38.6122959  24.9508764  31.4109119  38.8410711  24.0609555  31.8302021
  39.2901613  25.6995113  31.3988526  35.3592959  28.5348764  28.9229119
  35.6022959  29.6238764  29.4389119  34.1572959  27.9758764  28.9699119
  33.9587304  27.1191620  28.4732112  33.0902959  28.5848764  29.7479119
  33.0357916  29.6500631  29.5231774  31.7432959  27.9468764  29.4169119
  31.8066074  26.8663109  29.5452440  30.9623935  28.3441173  30.0653648
  31.2942959  28.1848764  28.0119119  30.5212959  29.2688764  27.6529119
  30.1977646  29.9803663  28.2926066  30.2782959  29.2228764  26.3549119
  29.6756666  29.9939549  25.8749382  30.8712959  28.1508764  25.8579119
  30.8591851  27.8592618  24.8910023  31.5152959  27.4858764  26.8739119
  32.0685376  26.5709990  26.6617228  33.3982959  28.3708764  31.2159119
  33.5632959  27.2338764  31.6559119  33.4892959  29.4638764  31.9639119
  33.3707811  30.3739999  31.5423331  33.7822959  29.3958764  33.3889119
  33.7996105  28.3556184  33.7139700  35.1442959  30.0218764  33.6829119
  35.0353834  31.0577020  33.3615049  35.3071828  29.9914996  34.7602443
  36.3382959  29.3908764  32.9699119  36.1137713  29.2914852  31.9079275
  37.5662959  30.2698764  33.1479119  37.7917318  30.3693612  34.2096935
  38.4157747  29.8158968  32.6376287  37.3728744  31.2553438  32.7241875
  36.6012959  27.9918764  33.4879119  35.7230130  27.3694327  33.3167907
  37.4563897  27.5646876  32.9640554  36.8139965  28.0334192  34.5561495
  32.7042959  30.1238764  34.1719119  32.5592959  31.3408764  34.0569119
  31.9562959  29.3768764  34.9779119  32.1369254  28.3875424  35.0711358
  30.8572959  29.9518764  35.7379119  30.8478955  31.0350194  35.6162072
  29.5202959  29.3918764  35.2419119  29.4803553  28.3200165  35.4358719
  28.7020546  29.8860990  35.7656727  29.2022959  29.5968764  33.4629119
  31.0022959  29.6348764  37.2169119  31.5252959  28.5848764  37.5859119
  30.5272959  30.5418764  38.0599119  30.1573383  31.4160505  37.7148754
  30.5232959  30.3108764  39.4919119  30.1366861  31.2051682  39.9806596
  29.8624964  29.4693350  39.6998819  31.8972959  30.0048764  40.0419119
  32.8452959  30.7398764  39.7859119  32.0152959  28.9198764  40.8039119
  31.2267481  28.3087499  40.9614433  33.2722959  28.6118764  41.4729119
  33.5865149  29.4620696  42.0783350  33.1082959  27.3928764  42.3879119
  34.0275307  27.2411118  42.9536629  32.2827084  27.5688175  43.0775133
  32.8372959  26.2428764  41.6129119  32.7357765  25.4836561  42.1915986
  34.3962959  28.3538764  40.4709119  35.5732959  28.5468764  40.7779119
  34.0262959  27.9048764  39.2789119  33.0519859  27.7089340  39.0988398
  34.9922959  27.6528764  38.2119119  35.7710515  26.9754449  38.5622340
  34.2852959  27.0088764  37.0149119  33.4726677  27.6538428  36.6806173
  34.9859249  26.8532687  36.1945430  33.6752959  25.6718764  37.3179119
  33.2952959  24.7868764  36.3319119  33.3833576  24.9611531  35.3409667
  32.8052959  23.6918764  36.8879119  32.4504547  22.8664361  36.2707935
  32.8502959  23.8358764  38.2009119  32.5414024  23.1597398  38.8846692
  33.3902959  25.0658764  38.4959119  33.5113090  25.3729960  39.5347259
  35.6632959  28.9588764  37.7809119  36.8652959  29.0008764  37.5259119
  34.8702959  30.0188764  37.7009119  33.8851766  29.9096168  37.8950814
  35.3582959  31.3428764  37.3129119  35.9601477  31.2729552  36.4068299
  34.1682959  32.2678764  37.0399119  33.5689256  31.7325061  36.3035470
  33.6100386  32.3486946  37.9726055  34.4882959  33.6658764  36.5159119
  34.8578366  34.2852982  37.3331372  35.5452959  33.5698764  35.4389119
  35.1762787  32.9509438  34.6210808  35.7745075  34.5674172  35.0641119
  36.4481348  33.1219658  35.8540725  33.2272959  34.3018764  35.9739119
  32.4850361  34.3731449  36.7689406  33.4550610  35.2999544  35.5996600
  32.8318880  33.6914492  35.1620436  36.2332959  31.9358764  38.4039119
  37.3102959  32.4708764  38.1459119  35.7662959  31.8378764  39.6409119
  34.8516422  31.4475144  39.8173361  36.5142959  32.3658764  40.7609119
  36.7875670  33.4077895  40.5940615  35.6602959  32.2798764  42.0389119
  35.1704964  31.3068588  42.0767602  36.5042959  32.4468764  43.2219119
  36.9941040  33.4199265  43.1850013  35.8891372  32.3841574  44.1195458
  37.2594581  31.6611631  43.2439653  34.5872959  33.3618764  42.0099119
  33.9493929  33.2184246  41.1377861  33.9834532  33.2998414  42.9152435
  35.0605682  34.3422846  41.9559331  37.8542959  31.6338764  40.9189119
  38.8772959  32.2308764  41.2629119  37.8442959  30.3348764  40.6619119
  36.9790902  29.8651558  40.4363435  39.0612959  29.5408764  40.7359119
  39.5348738  29.6584549  41.7105906  38.7102959  28.0698764  40.5389119
  38.2669117  27.7262897  41.4735016  37.9628466  28.0301210  39.7465489
  39.8722959  27.1808764  40.1779119  40.3035629  27.4896121  39.2256558
  40.6207415  27.2795535  40.9641633  39.4602959  25.7198764  40.1119119
  39.0302959  25.1828764  41.1589119  39.5522959  25.1238764  39.0149119
  39.2798934  24.2047357  39.0613501  40.0742959  29.9998764  39.6769119
  41.2752959  30.1198764  39.9469119  39.8827003  25.6851479  38.3097268
  38.7999125  24.2583968  41.0379409  38.9991273  25.7863747  41.9043886
  39.5902959  30.2448764  38.4689119  38.6249535  30.0441884  38.2499649
  40.4582959  30.7478764  37.3949119  41.2860916  30.0489499  37.2750986
  39.6912959  30.8158764  36.0939119  38.8644228  31.5187957  36.1953289
  40.3556547  31.1497727  35.2968920  39.3000166  29.8281591  35.8501613
  41.0552959  32.1148764  37.7279119  42.2492959  32.3518764  37.5199119
  40.2202959  33.0198764  38.2299119  39.2308251  32.8245583  38.2837428
  40.6902959  34.3318764  38.6589119  41.1359602  34.8588449  37.8152374
  39.5282959  35.1658764  39.1969119  38.9502416  34.4583782  39.7913856
  39.9308047  35.9424619  39.8472976  38.6242959  35.8028764  38.1429119
  38.4072073  35.0667041  37.3689457  37.3222959  36.2728764  38.7749119
  37.5385585  37.0094628  39.5487141  36.6892253  36.7243268  38.0110305
  36.8051405  35.4219839  39.2183448  39.3362959  36.9638764  37.4449119
  40.2390640  36.5964758  36.9569303  38.6731073  37.4016504  36.6988314
  39.6045534  37.7215900  38.1811231  41.7792959  34.2098764  39.7109119
  42.7992959  34.8968764  39.6569119  41.5602959  33.3228764  40.6709119
  40.6847725  32.8204524  40.7045040  42.5422959  33.0738764  41.7229119
  42.7521224  33.9931705  42.2696937  41.9902959  32.0408764  42.6999119
  41.1857721  32.5127126  43.2640141  41.5810785  31.2378186  42.0869361
  43.0082959  31.4738764  43.6559119  43.5432959  32.2448764  44.6819119
  43.2285052  33.2833929  44.7843307  44.4662959  31.7088764  45.5689119
  44.8869422  32.3172069  46.3695944  44.8572959  30.3908764  45.4239119
  45.7652959  29.8308764  46.2879119  46.0693632  30.4436038  46.9614903
  44.3372959  29.6108764  44.4139119  44.6517617  28.5731024  44.3032916
  43.4182959  30.1468764  43.5439119  42.9968600  29.5315162  42.7490385
  43.8722959  32.5888764  41.1579119  44.9332959  33.0778764  41.5429119
  43.8152959  31.6188764  40.2489119  42.9265343  31.2313298  39.9660517
  45.0312959  31.0578764  39.6679119  45.7168178  30.7567660  40.4600555
  44.6962959  29.8348764  38.8229119  43.8754984  30.1689456  38.1882557
  45.5602358  29.5957246  38.2028198  44.2652959  28.5878764  39.5999119
  43.4073995  28.8422499  40.2223335  43.8892959  27.4658764  38.6579119
  44.7468888  27.2106164  38.0354365  43.5870419  26.5920614  39.2351386
  43.0626008  27.7852141  38.0233261  45.3732959  28.1578764  40.5339119
  45.5899412  28.9627361  41.2363114  45.0612985  27.2702376  41.0842358
  46.2687551  27.9301451  39.9556471  45.7732959  32.0768764  38.8119119
  47.0052959  32.1668764  38.8439119  45.0182959  32.8298764  38.0269119
  44.0162006  32.7044436  38.0138307  45.6062959  33.7858764  37.0999119
  46.4758512  33.3792798  36.5835285  44.5682959  34.2318764  36.0439119
  43.6292907  34.4545160  36.5506664  45.0422959  35.4618764  35.2959119
  45.9810865  35.2398566  34.7884867  44.2920641  35.7519997  34.5603297
  45.1951162  36.2796264  36.0002076  44.2882959  33.0828764  35.0859119
  43.8953066  32.2323132  35.6428714  43.5565830  33.3990900  34.3424707
  45.2121842  32.7931595  34.5853168  46.1992959  34.9928764  37.8199119
  47.3022959  35.4278764  37.5039119  45.4882959  35.5078764  38.8179119
  44.6124524  35.0876408  39.0943170  45.8822959  36.7648764  39.4479119
  46.3936763  37.3973874  38.7222956  44.6542959  37.5108764  39.9659119
  44.1758155  36.9238489  40.7498472  44.9587428  38.4762692  40.3701752
  43.5252959  37.9878764  38.6579119  46.9372959  36.6438764  40.5489119
  47.5892959  37.6318764  40.8959119  47.1032959  35.4478764  41.1009119
  46.5108777  34.6685406  40.8523645  48.1502959  35.2308764  42.0839119
  48.0436261  34.2198641  42.4770722  49.1131903  35.3252146  41.5818820
  48.0952959  36.2178764  43.2369119  47.0192959  36.5198764  43.7499119
  49.2492959  36.7338764  43.6519119  50.1271629  36.4646887  43.2312138
  49.2822959  37.5898764  44.8419119  48.5778130  37.2073373  45.5804692
  50.6812959  37.6248764  45.4709119  50.5752169  38.1202777  46.4360150
  50.9776539  36.5874991  45.6262194  51.7412959  38.3358764  44.6519119
  51.7601392  37.9158289  43.6462748  51.4766610  39.3919434  44.5990924
  53.1252959  38.2348764  45.2849119  54.0492959  38.9318764  44.8139119
  53.2862959  37.4568764  46.2529119  54.1868675  37.4494255  46.5847165
  48.7422959  38.9998764  44.6019119  48.6332959  39.7928764  45.5339119
  52.4820513  36.9950375  46.5006505  54.8860916  38.7990962  45.2661456
  53.7662602  39.4854889  44.0829392  48.4002959  39.3068764  43.3539119
  48.6073368  38.6695091  42.5982689  47.7162959  40.5538764  43.0379119
  48.2640716  41.3917492  43.4692007  47.6262959  40.7558764  41.5249119
  47.3690129  39.7842974  41.1030837  46.8043977  41.4524270  41.3593803
  48.8802959  41.2838764  40.8509119  49.0934198  42.2836484  41.2292437
  49.7147161  40.6223366  41.0837424  48.6842959  41.3438764  39.3289119
  47.7076978  41.7791981  39.1171333  49.4631718  41.9734725  38.8987253
  48.7532959  40.0188764  38.7049119  49.0005394  39.2478491  39.3086395
  48.5102959  39.7668764  37.4179119  48.6052959  38.5228764  36.9629119
  48.8606022  37.7760373  37.5931104  48.4218058  38.3293269  35.9887612
  48.1682959  40.7458764  36.5869119  48.0907701  41.6922623  36.9310680
  47.9874628  40.5390571  35.6149943  46.3002959  40.5168764  43.6059119
  45.7482959  41.5358764  44.0159119  45.7082959  39.3318764  43.6239119
  46.2125119  38.4938366  43.3718109  44.3142959  39.2068764  44.0079119
  44.0791845  38.1641000  44.2210768  44.1165237  39.8116281  44.8929322
  43.4332959  39.6888764  42.8749119  43.9242959  40.0098764  41.7909119
  42.1312959  39.7558764  43.1189119  41.7597372  39.5338500  44.0314621
  41.1982959  40.1108764  42.0629119  41.6095098  40.9145521  41.4520867
  40.9452959  38.8928764  41.1649119  40.2585508  39.1590244  40.3613911
  41.8834957  38.5385838  40.7378780  40.3282959  37.7168764  41.8899119
  41.1282959  36.7468764  42.4749119  42.2118925  36.8413727  42.4042812
  40.5672959  35.6658764  43.1439119  41.2134088  34.9138350  43.5967614
  39.1942959  35.5428764  43.2359119  38.7515748  34.6974855  43.7626113
  38.3782959  36.5018764  42.6539119  37.2942882  36.4102615  42.7219871
  38.9452959  37.5828764  41.9819119  38.3047950  38.3349647  41.5212367
  39.8812959  40.6168764  42.6369119  39.6642959  40.5858764  43.8489119
  39.0142959  41.1038764  41.7639119  39.3040892  41.3517519  40.8286703
  37.6482959  41.3988764  42.1629119  37.4890216  41.0318071  43.1768109
  37.3462959  42.9038764  42.1329119  36.2749705  43.0563407  42.2637393
  37.8858624  43.4200595  42.9269667  37.7212959  43.5788764  40.8519119
  39.0272959  43.9848764  40.6259119  39.7809473  43.8011948  41.3916602
  39.3802959  44.6178764  39.4429119  40.4123729  44.9263822  39.2763532
  38.4202959  44.8578764  38.4729119  38.6916159  45.3551347  37.5416657
  37.1112959  44.4628764  38.6909119  36.3510927  44.6499828  37.9325041
  36.7672959  43.8278764  39.8769119  35.7366127  43.5185530  40.0504379
  36.6752959  40.6138764  41.3029119  36.8442959  40.5038764  40.0929119
  35.6662959  40.0468764  41.9499119  35.5820693  40.1760584  42.9480688
  34.6692959  39.2398764  41.2749119  34.9206923  39.1374844  40.2192534
  34.6202959  37.8508764  41.9009119  35.5773481  37.3718987  41.6941979
  34.5041901  37.9801331  42.9769752  33.5012959  36.9858764  41.3749119
  32.4762959  36.5618764  42.2089119  32.4872987  36.8707969  43.2541614
  31.4522959  35.7608764  41.7349119  30.6541221  35.4334575  42.4011081
  31.4432959  35.3808764  40.4089119  30.4282959  34.5868764  39.9309119
  29.7829176  34.3575922  40.6036045  32.4522959  35.7908764  39.5609119
  32.4492870  35.4895563  38.5133922  33.4712959  36.5888764  40.0479119
  34.2709099  36.9174262  39.3840050  33.3272959  39.9218764  41.4249119
  32.7902959  40.0098764  42.5249119  32.7962959  40.4208764  40.3149119
  33.2620859  40.2911119  39.4281762  31.5712959  41.2028764  40.3419119
  31.1234321  41.1161601  41.3318602  31.8672959  42.6928764  40.0629119
  30.9340430  43.2550329  40.0963680  32.8202959  43.2378764  41.0999119
  33.7540160  42.6764800  41.0667389  33.0213345  44.2889334  40.8926400
  32.3743670  43.1421404  42.0899032  32.4852959  42.8278764  38.7779119
  32.6683331  43.7545723  38.6066451  30.5872959  40.6498764  39.3149119
  30.5632959  41.0908764  38.1689119  29.7672959  39.6758764  39.7339119
  29.6282959  39.2458764  41.1329119  28.9409715  39.9117797  41.6546957
  30.6014793  39.2723652  41.6231275  29.0982959  37.8688764  41.0039119
  28.4438462  37.6671653  41.8519139  29.9354190  37.1709228  41.0175913
  28.3552959  37.7858764  39.7089119  27.2931221  37.9165565  39.9158143
  28.5106541  36.8379017  39.1938317  28.8632959  38.9428764  38.8399119
  29.4403181  38.6233376  37.9721340  27.6752959  39.7818764  38.3789119
  27.0852959  39.4728764  37.3429119  27.3202959  40.8068764  39.1459119
  27.7643714  40.9475323  40.0420772  26.2242959  41.6978764  38.7679119
  25.5360152  41.1678289  38.1095665  25.4512959  42.1778764  39.9999119
  26.0505695  41.9144496  40.8714489  25.3782643  43.2627948  39.9242923
  24.0502959  41.5818764  40.1459119  23.4752735  42.2374425  40.7998867
  23.5913737  41.5621798  39.1574259  24.0662959  40.1738764  40.7259119
  24.8114434  40.1456149  41.5209311  23.0807326  39.9710938  41.1450107
  24.4002959  39.1168764  39.6789119  25.2987006  39.4398871  39.1529522
  24.6020535  38.1815823  40.2010403  23.2982959  38.9098764  38.6979119
  23.1114773  39.7763174  38.2136822  23.5705377  38.2028382  38.0300186
  22.4658397  38.6101514  39.1850266  26.7052959  42.8898764  37.9419119
  26.0872959  43.2468764  36.9359119  27.8062959  43.5018764  38.3669119
  28.2285604  43.2301269  39.2432362  28.3902959  44.6238764  37.6349119
  27.5942152  45.3356902  37.4165637  29.4542959  45.3248764  38.4789119
  30.2626814  44.6273166  38.6980542  29.8507129  46.1784704  37.9290656
  29.0094083  45.6694989  39.4124051  28.9742959  44.1708764  36.2959119
  29.2712959  44.9838764  35.4199119  29.1622959  42.9768764  36.0539119
  69.5704640  61.9501270  61.1636010  69.4898690  61.0355880  60.8927720
  69.1569060  62.4468340  60.4575720  67.7022680  63.7280290  63.0445280
  66.9264780  63.2480730  63.3343850  68.3535610  63.0485940  62.8701440
  61.7188510  64.0400100  63.9221040  60.8873390  63.7848810  64.3217550
  62.3269490  64.1110870  64.6578960  60.1280460  59.0001990  57.7063430
  59.2397160  59.3417960  57.6043310  60.4121650  58.8002310  56.8144260
  58.0913470  61.6007640  63.5903130  58.6629580  60.8329840  63.5906770
  58.0915010  61.8996400  62.6809740  67.1431670  66.4037480  63.0515440
  67.0739950  65.4627420  62.8904570  67.9051530  66.4938890  63.6238010
  59.3338340  57.0092000  65.3772060  59.1541180  56.1117750  65.6574820
  58.9318420  57.5563870  66.0519010  68.1736840  59.2107860  63.2784370
  68.5501660  58.3379740  63.1658040  68.0756350  59.5466560  62.3874810
  62.3041850  57.5833490  58.7401810  62.4108600  58.4837220  59.0470570
  61.3934210  57.5351460  58.4496460  71.9560960  56.7058300  60.2112710
  72.7770580  56.2154870  60.2538190  71.9895040  57.2955960  60.9644550
  59.9525010  59.5052500  63.9854400  60.6335120  59.7690870  64.6041800
  59.6373060  58.6653370  64.3192410  64.1449580  60.5519860  63.0726990
  64.6527800  61.0500830  63.7132010  64.6762820  59.7755060  62.8966350
  62.4285680  55.1918420  67.3390410  62.4304120  55.7090810  66.5336310
  61.5989990  54.7148600  67.3160340  68.8156770  65.3037730  58.8380310
  68.1974040  65.7687180  58.2743030  69.3280020  65.9965210  59.2549820
  63.6788530  64.8313600  65.5163910  63.3457910  65.4582520  66.1584980
  63.8555210  65.3575480  64.7365580  72.1922440  58.6458680  62.9840250
  71.4878010  58.9343570  63.5643360  72.5534600  59.4558790  62.6239810
  62.1101010  56.9028380  65.3460860  62.4517820  57.7470430  65.0514730
  61.1716820  57.0512120  65.4626200  62.8907630  66.7994400  67.3313090
  63.5081630  67.4745480  67.0497540  62.0300750  67.2082380  67.2400590
  58.1839970  65.9894260  56.2119940  57.8067950  66.4781360  55.4804840
  58.4413040  66.6619540  56.8426470  75.2609360  58.0913470  63.3749460
  74.3134270  58.1252450  63.5064890  75.5859350  58.9052420  63.7598820
  65.7928900  54.3910650  61.6705450  66.1003880  53.8357540  60.9540950
  64.8629600  54.5255110  61.4878440  72.6389380  66.8294160  59.0503080
  72.5285710  65.8868490  59.1752500  72.6357630  67.1909800  59.9365840
  70.7429400  65.0107780  65.2895520  71.1598190  64.7967890  64.4548980
  71.4669220  65.2680570  65.8604140  68.1809660  62.4559480  58.4065570
  67.2538940  62.3896860  58.6354040  68.3334480  63.3939610  58.2920810
  68.1678740  58.7276480  55.4032730  67.2282410  58.8890440  55.4885190
  68.4862000  59.4462160  54.8568720  74.6891500  63.4095000  65.3811760
  73.8610130  63.4788090  64.9061890  75.2841980  63.9949310  64.9127590
  72.2106950  64.0179780  58.9100820  71.5919370  63.6799330  58.2627120
  72.1931400  63.3739540  59.6180010  71.6533510  60.1964320  66.3266630
  71.2404690  61.0218030  66.5806620  70.9209460  59.6109360  66.1342990
  63.7866300  62.9824220  61.1885300  63.3823300  62.2701470  60.6931200
  63.8729420  62.6377460  62.0773340  64.2548000  66.6691780  63.3524510
  63.9576290  66.0637250  62.6732290  65.2047820  66.7069090  63.2413870
  62.4994920  59.7567430  64.9684340  63.0509510  59.8662770  64.1937590
  63.0138430  60.1305030  65.6839570  70.3871650  63.2566590  55.9173570
  70.8264930  62.4189020  55.7711390  71.1000070  63.8895990  56.0037710
  73.9688790  54.5109400  54.2314610  73.6561450  54.6036230  55.1313680
  74.7301260  55.0890430  54.1812040  60.4870930  61.8769200  58.6891950
  60.3668530  62.6031290  58.0773220  60.1771820  61.1072110  58.2119860
  58.1256300  65.0484340  64.4960590  58.2036720  65.1833110  63.5516310
  58.7397980  64.3400230  64.6888710  59.3703930  66.7484530  60.9066770
  58.9632010  66.8899120  60.0520370  60.2616940  66.4644690  60.7037980
  58.1815820  66.0898510  67.0355050  58.3446860  65.6203870  66.2174420
  58.6468270  65.5822070  67.7003890  62.9534590  55.2204270  62.0715620
  62.5102740  56.0013810  61.7400140  63.5119580  55.5434160  62.7786560
  66.0693410  54.8414970  56.9521450  65.4447590  54.8374840  57.6774760
  65.9823530  53.9745930  56.5557420  64.9910490  55.7651600  63.9305220
  65.2882820  56.6714430  63.8497240  65.5396050  55.2770380  63.3164790
  62.7448810  60.3437840  59.7996870  62.5189730  60.1275010  60.7043490
  61.9641340  60.7766300  59.4542840  69.9746570  60.3501210  58.3987520
  69.3755460  61.0737010  58.2151140  70.5226180  60.2877990  57.6163970
  68.5811440  58.9864750  60.4290800  68.9741010  59.3036950  59.6159490
  68.9428290  58.1076630  60.5435320  57.6175610  55.5765550  62.6521000
  57.3288660  56.1468410  63.3645980  58.3621370  55.0970000  63.0152230
  57.8045840  59.5185670  53.8623720  57.7220510  60.4616430  54.0038710
  57.4528900  59.3760580  52.9836070  69.1666580  61.5770500  64.5241580
  68.4347700  62.0857310  64.8731680  68.7690920  60.7600480  64.2230360
  65.6043970  58.2524700  62.9294070  65.6080030  57.8114650  62.0798610
  66.4995090  58.5742030  63.0365890  61.4546350  58.1351190  61.8888280
  61.1146400  58.6126420  62.6455330  60.6923670  57.6816310  61.5289380
  65.6664120  59.2536780  55.9200830  65.7876940  59.2123260  56.8686650
  65.2812630  60.1160930  55.7647560  69.6292490  57.0304180  63.9364520
  69.6465230  57.4812830  64.7806370  69.3808070  56.1309820  64.1497960
  64.6785620  61.5637920  55.3184130  64.1102520  61.1156170  54.6920040
  65.3874620  61.9230700  54.7849280  65.9051940  62.3126480  64.6759480
  66.2722070  61.8385050  65.4220820  65.7157000  63.1868050  65.0167820
  58.7692430  57.0570170  60.8052950  58.4839350  56.6925840  61.6431570
  58.7071290  56.3250630  60.1916090  63.6951310  61.3535120  66.9943690
  63.3908380  62.2327100  67.2194050  64.6497770  61.4134910  67.0301130
  62.2233100  65.5596110  57.5910540  61.4495360  65.0193730  57.4309260
  62.9527730  65.0402720  57.2528300  72.9821080  64.5561470  63.3836930
  73.7020200  65.0516760  62.9933040  72.7802900  63.8779360  62.7390800
  68.4431020  55.9499430  57.5266320  67.6295630  55.4512600  57.4511630
  68.2492970  56.7897680  57.1102670  71.1579410  60.3219080  55.8228480
  72.0459030  60.6336310  55.6479820  71.1284500  59.4491330  55.4309060
  62.2670500  65.2276490  61.2289350  62.7849170  64.4244750  61.1746240
  61.8154520  65.1655630  62.0706180  67.1540000  66.4942770  56.5016650
  67.4955700  67.2385000  56.0059970  66.3252710  66.8073890  56.8641480
  73.4293680  61.6330920  55.2908340  73.3457400  62.0645140  54.4404780
  74.1487870  62.0929270  55.7235160  70.0367410  65.8158610  61.8662160
  70.3891230  65.2186740  61.2063530  69.1529740  65.4902840  62.0370410
  66.1230690  66.5756300  59.2732570  66.8101820  67.1225510  59.6540160
  65.3363110  67.1197030  59.3082180  58.2623090  62.1929120  54.7649650
  59.1317940  62.4753920  55.0485570  57.7713410  63.0064990  54.6498460
  65.4257900  63.5802330  58.8857930  65.8820680  64.3907580  59.1118120
  65.0746110  63.2625470  59.7176420  61.3269680  53.9239980  59.3580450
  61.1984310  53.9157880  60.3065370  60.5031700  54.2623070  59.0071460
  72.8478310  67.3789640  54.5566820  72.6215890  66.6620080  55.1491460
  72.4574510  67.1302080  53.7188570  72.4294560  65.2961580  56.2180980
  72.1416260  65.7574270  57.0058860  73.2246730  64.8359350  56.4865200
  60.2469600  64.0102590  56.8931710  59.6397550  64.7501490  56.9027010
  60.7218950  64.1001950  56.0669910  69.8202390  58.1753410  66.5688600
  70.1883210  57.3548620  66.8968170  68.9600590  58.2355300  66.9844250
  73.1864420  57.1310350  57.3776160  72.5577580  57.2356020  56.6634390
  72.6916340  57.3507130  58.1670040  65.1548450  59.4096300  58.7934040
  64.4464600  59.8782640  59.2347650  65.4392930  58.7518310  59.4279230
  66.7804380  60.8293000  66.7926570  67.2789630  61.3038820  67.4578420
  66.9227330  59.9056520  66.9996600  69.1863880  56.1346960  60.2329830
  69.0631660  56.1533090  59.2839340  70.1348440  56.1825900  60.3528230
  63.3583470  57.7181380  56.1684750  64.2074000  58.1551530  56.1024940
  62.9914740  58.0301640  56.9956810  73.9871240  57.0460960  67.6354960
  73.4844840  57.7866360  67.9748770  74.8027900  57.4344960  67.3191750
  72.2793250  62.2894140  61.0816320  71.3383390  62.3044370  61.2564010
  72.5937320  61.5030100  61.5276620  62.2574890  63.9713740  54.6420280
  63.0238160  63.8595100  55.2045710  62.3349580  63.2751710  53.9897050
  60.9521650  61.4038810  55.3253170  61.0325240  60.4566320  55.4370570
  61.8441400  61.7345690  55.4313830  65.3816070  65.9467920  54.1155630
  65.2766710  65.3320270  54.8417010  65.2140290  65.4233810  53.3318640
  68.6218800  65.0087950  54.7197620  68.0728900  65.4557250  55.3640360
  69.2438060  64.5037200  55.2435290  64.2893920  63.9678870  56.6162920
  64.7110340  63.8018740  57.4594310  64.4144760  63.1579100  56.1218060
  66.8021560  62.9916480  53.8640020  67.3227220  62.2765500  53.4981170
  67.4489960  63.6302350  54.1640530  65.7055080  55.4711030  66.5358580
  65.2572380  55.4935290  65.6904130  65.0720280  55.0730050  67.1328880
  66.1114630  64.3665360  67.1571020  66.5302740  65.2098090  66.9847260
  65.1923260  64.5037400  66.9277800  70.7866430  62.6518730  67.1171370
  70.2601650  63.1761350  66.5136510  71.1297770  63.2846120  67.7481100
  63.1852820  60.0412100  53.5621080  62.9841880  59.1779460  53.9234420
  63.0144870  59.9545460  52.6242680  70.6641130  54.8520330  56.0907960
  70.9443420  54.0088230  56.4467380  69.8906860  55.0843440  56.6046710
  61.9835620  57.1412720  53.5498960  62.2861520  57.1480150  52.6418110
  62.7230210  56.7910580  54.0466620  65.2020550  56.0847340  54.5355160
  64.8542550  55.4071330  53.9557610  65.4033320  55.6236850  55.3498550
  61.0065750  66.4455140  54.3828760  61.4440620  66.9884810  55.0386340
  61.4913480  65.6202090  54.3925100  62.8173470  67.5653180  59.4950990
  62.5169010  67.4418150  60.3954900  62.7110960  66.7061770  59.0866720
  75.0421850  64.0897060  56.7011870  75.8040760  64.6593710  56.8071560
  75.0576220  63.5224260  57.4720180  58.5426190  62.6134990  60.9319530
  57.8875030  62.3446630  60.2879230  59.3804140  62.5039470  60.4821510
  73.0315580  66.3283740  66.9584120  72.2175420  66.7580900  67.2209910
  73.4389780  66.9402150  66.3453170  75.0941020  64.3831430  53.8584390
  75.3689860  65.2910310  53.7303610  74.9051760  64.3193960  54.7946380
  71.4916630  57.4076280  55.1538020  71.9101510  57.2207260  54.3134680
  71.1852690  56.5555330  55.4640950  74.9906360  62.3200420  58.8513820
  74.6149960  61.5528350  58.4195110  74.2609480  62.7023120  59.3388750
  59.5802120  62.9987560  65.4722870  59.9475160  62.9114960  66.3518890
  59.0112940  62.2354110  65.3729730  57.7564270  59.8233920  56.8744860
  56.8528350  60.0864120  56.6996520  58.2404890  60.0945090  56.0944820
  74.2657320  60.5457910  62.1521060  74.7894800  60.0520560  61.5211230
  74.8516740  60.6808270  62.8968630  74.4447040  60.6297780  65.6740610
  73.4949750  60.5961320  65.7885600  74.6260050  61.5397890  65.4390380
  60.2991480  58.8799460  54.7839240  61.0083180  58.4582680  54.2986520
  59.5831420  58.9474690  54.1522590  59.9465640  54.9338790  53.8241890
  60.6693770  55.4747730  54.1423110  60.2190160  54.6602210  52.9483430
  73.7557290  59.8031260  58.0913470  74.2516410  59.5702130  58.8762350
  73.5573360  58.9643100  57.6751110  59.6357830  54.1844980  63.7264510
  60.2834020  53.6342360  63.2859670  60.0559670  54.4388130  64.5480320
  73.5310170  54.3786340  67.0834150  74.1682390  54.9920480  67.4493340
  73.6785060  54.4147000  66.1383380  59.3889830  54.3400650  66.4689830
  59.0404650  54.7964470  67.2348010  59.0577530  53.4457780  66.5512260
  70.2797250  53.7514730  65.9570830  69.4057090  54.0849840  65.7543760
  70.1708000  53.2787910  66.7822700  71.1869230  55.9585600  67.3412550
  70.8582590  55.1437360  66.9614280  72.1351530  55.9155410  67.2178240
  68.0272070  54.6684570  64.8963740  67.2443860  55.1430070  65.1760500
  67.7335000  53.7639400  64.7876920  72.5793140  55.3707670  62.9412830
  73.0201230  55.3152770  62.0934430  72.3100730  56.2865680  63.0123010
  74.4431710  55.0022910  60.9521650  74.3820110  54.0584130  60.8052670
  75.2223740  55.1103000  61.4975110  59.3712480  54.9732050  57.4177460
  60.1291840  55.0860930  56.8441490  58.9089650  55.8101250  57.3720890
  65.9126290  57.0871320  60.4079770  65.1000800  56.7128210  60.0675650
  66.4167930  56.3316400  60.7100960  70.4151270  53.7513770  61.6462840
  71.0180640  54.3233980  62.1211360  69.6744260  54.3153210  61.4236740
  73.5585870  54.1535330  56.9203120  73.7536500  55.0518780  57.1870550
  72.7715740  53.9222410  57.4136070  61.7437630  55.4996100  55.9579430
  62.2730390  54.7125900  55.8287380  62.3765950  56.1787290  56.1914960
  63.9375470  55.2371240  59.0124820  63.3078210  54.5358550  59.1794950
  63.3980610  55.9975370  58.7957980  69.5704640  61.9501270  42.3892520
  69.4898690  61.0355880  42.1184230  69.1569060  62.4468340  41.6832230
  67.7022680  63.7280290  44.2701790  66.9264780  63.2480730  44.5600360
  68.3535610  63.0485940  44.0957950  61.7188510  64.0400100  45.1477550
  60.8873390  63.7848810  45.5474060  62.3269490  64.1110870  45.8835470
  60.1280460  59.0001990  38.9319940  59.2397160  59.3417960  38.8299820
  60.4121650  58.8002310  38.0400770  58.0913470  61.6007640  44.8159640
  58.6629580  60.8329840  44.8163280  58.0915010  61.8996400  43.9066250
  67.1431670  66.4037480  44.2771950  67.0739950  65.4627420  44.1161080
  67.9051530  66.4938890  44.8494520  59.3338340  57.0092000  46.6028570
  59.1541180  56.1117750  46.8831330  58.9318420  57.5563870  47.2775520
  68.1736840  59.2107860  44.5040880  68.5501660  58.3379740  44.3914550
  68.0756350  59.5466560  43.6131320  62.3041850  57.5833490  39.9658320
  62.4108600  58.4837220  40.2727080  61.3934210  57.5351460  39.6752970
  71.9560960  56.7058300  41.4369220  72.7770580  56.2154870  41.4794700
  71.9895040  57.2955960  42.1901060  59.9525010  59.5052500  45.2110910
  60.6335120  59.7690870  45.8298310  59.6373060  58.6653370  45.5448920
  64.1449580  60.5519860  44.2983500  64.6527800  61.0500830  44.9388520
  64.6762820  59.7755060  44.1222860  62.4285680  55.1918420  48.5646920
  62.4304120  55.7090810  47.7592820  61.5989990  54.7148600  48.5416850
  68.8156770  65.3037730  40.0636820  68.1974040  65.7687180  39.4999540
  69.3280020  65.9965210  40.4806330  63.6788530  64.8313600  46.7420420
  63.3457910  65.4582520  47.3841490  63.8555210  65.3575480  45.9622090
  72.1922440  58.6458680  44.2096760  71.4878010  58.9343570  44.7899870
  72.5534600  59.4558790  43.8496320  62.1101010  56.9028380  46.5717370
  62.4517820  57.7470430  46.2771240  61.1716820  57.0512120  46.6882710
  62.8907630  66.7994400  48.5569600  63.5081630  67.4745480  48.2754050
  62.0300750  67.2082380  48.4657100  58.1839970  65.9894260  37.4376450
  57.8067950  66.4781360  36.7061350  58.4413040  66.6619540  38.0682980
  75.2609360  58.0913470  44.6005970  74.3134270  58.1252450  44.7321400
  75.5859350  58.9052420  44.9855330  65.7928900  54.3910650  42.8961960
  66.1003880  53.8357540  42.1797460  64.8629600  54.5255110  42.7134950
  72.6389380  66.8294160  40.2759590  72.5285710  65.8868490  40.4009010
  72.6357630  67.1909800  41.1622350  70.7429400  65.0107780  46.5152030
  71.1598190  64.7967890  45.6805490  71.4669220  65.2680570  47.0860650
  68.1809660  62.4559480  39.6322080  67.2538940  62.3896860  39.8610550
  68.3334480  63.3939610  39.5177320  68.1678740  58.7276480  36.6289240
  67.2282410  58.8890440  36.7141700  68.4862000  59.4462160  36.0825230
  74.6891500  63.4095000  46.6068270  73.8610130  63.4788090  46.1318400
  75.2841980  63.9949310  46.1384100  72.2106950  64.0179780  40.1357330
  71.5919370  63.6799330  39.4883630  72.1931400  63.3739540  40.8436520
  71.6533510  60.1964320  47.5523140  71.2404690  61.0218030  47.8063130
  70.9209460  59.6109360  47.3599500  63.7866300  62.9824220  42.4141810
  63.3823300  62.2701470  41.9187710  63.8729420  62.6377460  43.3029850
  64.2548000  66.6691780  44.5781020  63.9576290  66.0637250  43.8988800
  65.2047820  66.7069090  44.4670380  62.4994920  59.7567430  46.1940850
  63.0509510  59.8662770  45.4194100  63.0138430  60.1305030  46.9096080
  63.3466430  66.4073470  51.2288820  62.4494960  66.6313440  51.4762220
  63.3719300  66.5308410  50.2800220  70.3871650  63.2566590  37.1430080
  70.8264930  62.4189020  36.9967900  71.1000070  63.8895990  37.2294220
  62.1737650  63.2786790  49.8046190  62.0345420  64.1509590  50.1733590
  61.2919010  62.9359600  49.6594130  73.9688790  54.5109400  35.4571120
  73.6561450  54.6036230  36.3570190  74.7301260  55.0890430  35.4068550
  60.4870930  61.8769200  39.9148460  60.3668530  62.6031290  39.3029730
  60.1771820  61.1072110  39.4376370  58.1256300  65.0484340  45.7217100
  58.2036720  65.1833110  44.7772820  58.7397980  64.3400230  45.9145220
  59.3703930  66.7484530  42.1323280  58.9632010  66.8899120  41.2776880
  60.2616940  66.4644690  41.9294490  75.3266070  67.1948440  50.4695520
  75.4529130  66.9560320  49.5512700  75.3687450  66.3632980  50.9417600
  75.1790080  59.2480900  51.4345260  74.5634350  59.7560570  50.9060720
  74.8586500  58.3479230  51.3771200  58.1815820  66.0898510  48.2611560
  58.3446860  65.6203870  47.4430930  58.6468270  65.5822070  48.9260400
  62.9534590  55.2204270  43.2972130  62.5102740  56.0013810  42.9656650
  63.5119580  55.5434160  44.0043070  67.2404400  58.0872790  48.9007450
  66.7783770  58.2955810  49.7127390  66.8382510  57.2732140  48.5978120
  72.2408910  59.3081740  50.0304110  71.3902500  59.0087490  50.3513180
  72.0810700  59.5523750  49.1187930  69.3358620  60.8083490  52.1302900
  69.6612030  59.9747240  51.7905130  70.1238950  61.3312010  52.2781230
  66.0693410  54.8414970  38.1777960  65.4447590  54.8374840  38.9031270
  65.9823530  53.9745930  37.7813930  64.9910490  55.7651600  45.1561730
  65.2882820  56.6714430  45.0753750  65.5396050  55.2770380  44.5421300
  62.7448810  60.3437840  41.0253380  62.5189730  60.1275010  41.9300000
  61.9641340  60.7766300  40.6799350  69.9746570  60.3501210  39.6244030
  69.3755460  61.0737010  39.4407650  70.5226180  60.2877990  38.8420480
  65.1848020  61.2423420  51.6913650  65.0891620  60.3018150  51.5414050
  66.0280000  61.4638490  51.2961720  68.5811440  58.9864750  41.6547310
  68.9741010  59.3036950  40.8416000  68.9428290  58.1076630  41.7691830
  60.3158560  57.6537090  49.8447430  59.9221950  58.5012300  50.0520210
  59.6276960  57.0163460  50.0356070  66.8903610  57.7372060  52.9144170
  66.2001930  57.5444260  53.5490260  67.6335910  58.0206700  53.4468470
  57.6175610  55.5765550  43.8777510  57.3288660  56.1468410  44.5902490
  58.3621370  55.0970000  44.2408740  57.8045840  59.5185670  35.0880230
  57.7220510  60.4616430  35.2295220  57.4528900  59.3760580  34.2092580
  69.1666580  61.5770500  45.7498090  68.4347700  62.0857310  46.0988190
  68.7690920  60.7600480  45.4486870  65.6043970  58.2524700  44.1550580
  65.6080030  57.8114650  43.3055120  66.4995090  58.5742030  44.2622400
  61.4546350  58.1351190  43.1144790  61.1146400  58.6126420  43.8711840
  60.6923670  57.6816310  42.7545890  65.6664120  59.2536780  37.1457340
  65.7876940  59.2123260  38.0943160  65.2812630  60.1160930  36.9904070
  69.6292490  57.0304180  45.1621030  69.6465230  57.4812830  46.0062880
  69.3808070  56.1309820  45.3754470  64.6785620  61.5637920  36.5440640
  64.1102520  61.1156170  35.9176550  65.3874620  61.9230700  36.0105790
  73.0563240  54.4436360  51.0007410  73.3809010  53.7126020  51.5265390
  73.0919750  54.1250000  50.0988400  59.7554800  65.4649940  50.4207370
  59.3709590  64.8243610  51.0190330  60.0666990  66.1686060  50.9902100
  65.9051940  62.3126480  45.9015990  66.2722070  61.8385050  46.6477330
  65.7157000  63.1868050  46.2424330  58.7692430  57.0570170  42.0309460
  58.4839350  56.6925840  42.8688080  58.7071290  56.3250630  41.4172600
  63.6951310  61.3535120  48.2200200  63.3908380  62.2327100  48.4450560
  64.6497770  61.4134910  48.2557640  62.2233100  65.5596110  38.8167050
  61.4495360  65.0193730  38.6565770  62.9527730  65.0402720  38.4784810
  72.9821080  64.5561470  44.6093440  73.7020200  65.0516760  44.2189550
  72.7802900  63.8779360  43.9647310  68.4431020  55.9499430  38.7522830
  67.6295630  55.4512600  38.6768140  68.2492970  56.7897680  38.3359180
  68.3639880  64.6270530  50.4962440  68.2977190  63.7066200  50.2420030
  67.7345020  64.7245970  51.2107080  71.1579410  60.3219080  37.0484990
  72.0459030  60.6336310  36.8736330  71.1284500  59.4491330  36.6565570
  62.2670500  65.2276490  42.4545860  62.7849170  64.4244750  42.4002750
  61.8154520  65.1655630  43.2962690  67.1540000  66.4942770  37.7273160
  67.4955700  67.2385000  37.2316480  66.3252710  66.8073890  38.0897990
  59.7515040  62.1937860  49.3671560  59.3929980  62.8591710  49.9544900
  59.4569600  61.3621410  49.7384180  62.9528160  62.6522100  52.2511110
  62.6528300  62.7979280  51.3538930  63.7239400  62.0927390  52.1584500
  68.2956610  67.4491100  50.2466240  68.3101150  66.5172060  50.0285150
  67.5881710  67.5350860  50.8856010  73.4293680  61.6330920  36.5164850
  73.3457400  62.0645140  35.6661290  74.1487870  62.0929270  36.9491670
  74.5067820  64.0898440  49.5934820  73.7816010  64.6827220  49.3964210
  75.0343280  64.0821980  48.7948190  70.0367410  65.8158610  43.0918670
  70.3891230  65.2186740  42.4320040  69.1529740  65.4902840  43.2626920
  66.1230690  66.5756300  40.4989080  66.8101820  67.1225510  40.8796670
  65.3363110  67.1197030  40.5338690  58.2623090  62.1929120  35.9906160
  59.1317940  62.4753920  36.2742080  57.7713410  63.0064990  35.8754970
  65.4257900  63.5802330  40.1114440  65.8820680  64.3907580  40.3374630
  65.0746110  63.2625470  40.9432930  61.3269680  53.9239980  40.5836960
  61.1984310  53.9157880  41.5321880  60.5031700  54.2623070  40.2327970
  72.8478310  67.3789640  35.7823330  72.6215890  66.6620080  36.3747970
  72.4574510  67.1302080  34.9445080  58.3263610  55.6831100  50.0443660
  57.6122130  55.8828020  50.6496270  58.7458650  54.9070670  50.4158460
  72.4294560  65.2961580  37.4437490  72.1416260  65.7574270  38.2315370
  73.2246730  64.8359350  37.7121710  60.2469600  64.0102590  38.1188220
  59.6397550  64.7501490  38.1283520  60.7218950  64.1001950  37.2926420
  69.8202390  58.1753410  47.7945110  70.1883210  57.3548620  48.1224680
  68.9600590  58.2355300  48.2100760  73.1864420  57.1310350  38.6032670
  72.5577580  57.2356020  37.8890900  72.6916340  57.3507130  39.3926550
  65.1548450  59.4096300  40.0190550  64.4464600  59.8782640  40.4604160
  65.4392930  58.7518310  40.6535740  66.7804380  60.8293000  48.0183080
  67.2789630  61.3038820  48.6834930  66.9227330  59.9056520  48.2253110
  69.1863880  56.1346960  41.4586340  69.0631660  56.1533090  40.5095850
  70.1348440  56.1825900  41.5784740  63.3583470  57.7181380  37.3941260
  64.2074000  58.1551530  37.3281450  62.9914740  58.0301640  38.2213320
  73.9871240  57.0460960  48.8611470  73.4844840  57.7866360  49.2005280
  74.8027900  57.4344960  48.5448260  72.2793250  62.2894140  42.3072830
  71.3383390  62.3044370  42.4820520  72.5937320  61.5030100  42.7533130
  62.2574890  63.9713740  35.8676790  63.0238160  63.8595100  36.4302220
  62.3349580  63.2751710  35.2153560  60.9521650  61.4038810  36.5509680
  61.0325240  60.4566320  36.6627080  61.8441400  61.7345690  36.6570340
  69.5959270  66.8460140  52.7905210  68.9897430  66.8691740  52.0500960
  69.2913380  66.1143180  53.3272460  58.4792450  63.2253730  51.7865850
  58.9831470  62.6461010  52.3582080  57.7399870  63.5093960  52.3242220
  65.3816070  65.9467920  35.3412140  65.2766710  65.3320270  36.0673520
  65.2140290  65.4233810  34.5575150  65.5330390  64.6324720  51.3201370
  64.7676060  65.2009720  51.2356040  65.7146350  64.3400930  50.4269600
  68.6218800  65.0087950  35.9454130  68.0728900  65.4557250  36.5896870
  69.2438060  64.5037200  36.4691800  72.6753740  66.3630050  51.8776390
  73.4163210  66.7005810  51.3743850  71.9126420  66.5322110  51.3246160
  60.5115530  61.3683320  52.6815920  60.5520870  61.0697190  53.5901150
  61.3661030  61.7690930  52.5223440  64.2893920  63.9678870  37.8419430
  64.7110340  63.8018740  38.6850820  64.4144760  63.1579100  37.3474570
  62.4521340  59.9475420  50.6490410  61.9217800  59.4566370  50.0213750
  63.1209410  60.3759620  50.1148340  66.8021560  62.9916480  35.0896530
  67.3227220  62.2765500  34.7237680  67.4489960  63.6302350  35.3897040
  71.3499400  64.4144880  50.4131600  71.7640420  64.5689960  51.2622020
  70.4150400  64.5400100  50.5757380  71.8221570  61.7541040  52.4170750
  72.4042340  60.9993360  52.3291230  71.9983340  62.2848480  51.6402230
  62.9393640  56.9137790  50.7287700  62.8450510  56.2958540  50.0038570
  62.3591030  57.6404080  50.5017610  65.7055080  55.4711030  47.7615090
  65.2572380  55.4935290  46.9160640  65.0720280  55.0730050  48.3585390
  66.1114630  64.3665360  48.3827530  66.5302740  65.2098090  48.2103770
  65.1923260  64.5037400  48.1534310  68.4478530  62.0981540  49.7665370
  68.5674740  61.5022680  50.5060210  69.3072530  62.1351230  49.3466670
  70.7866430  62.6518730  48.3427880  70.2601650  63.1761350  47.7393020
  71.1297770  63.2846120  48.9737610  63.1852820  60.0412100  34.7877590
  62.9841880  59.1779460  35.1490930  63.0144870  59.9545460  33.8499190
  65.2147300  58.6402890  51.0241190  65.8046990  58.3318740  51.7119010
  64.3967540  58.1682640  51.1801090  70.0340730  58.2568700  51.2574210
  69.3456250  57.5950240  51.1924200  70.7546750  57.8106970  51.7022670
  70.6641130  54.8520330  37.3164470  70.9443420  54.0088230  37.6723890
  69.8906860  55.0843440  37.8303220  61.9835620  57.1412720  34.7755470
  62.2861520  57.1480150  33.8674620  62.7230210  56.7910580  35.2723130
  65.2020550  56.0847340  35.7611670  64.8542550  55.4071330  35.1814120
  65.4033320  55.6236850  36.5755060  61.0065750  66.4455140  35.6085270
  61.4440620  66.9884810  36.2642850  61.4913480  65.6202090  35.6181610
  62.8173470  67.5653180  40.7207500  62.5169010  67.4418150  41.6211410
  62.7110960  66.7061770  40.3123230  75.0421850  64.0897060  37.9268380
  75.8040760  64.6593710  38.0328070  75.0576220  63.5224260  38.6976690
  58.5426190  62.6134990  42.1576040  57.8875030  62.3446630  41.5135740
  59.3804140  62.5039470  41.7078020  73.0315580  66.3283740  48.1840630
  72.2175420  66.7580900  48.4466420  73.4389780  66.9402150  47.5709680
  75.0941020  64.3831430  35.0840900  75.3689860  65.2910310  34.9560120
  74.9051760  64.3193960  36.0202890  71.4916630  57.4076280  36.3794530
  71.9101510  57.2207260  35.5391190  71.1852690  56.5555330  36.6897460
  74.9906360  62.3200420  40.0770330  74.6149960  61.5528350  39.6451620
  74.2609480  62.7023120  40.5645260  59.5802120  62.9987560  46.6979380
  59.9475160  62.9114960  47.5775400  59.0112940  62.2354110  46.5986240
  74.3805980  61.4671940  49.7109850  74.1492070  61.2384690  48.8107800
  74.6410530  62.3871490  49.6654740  59.1318120  59.9096650  50.6037800
  58.2374170  59.8763410  50.9431510  59.6715670  60.1083440  51.3689050
  72.8194050  56.6928370  52.4889550  73.6964230  56.7011770  52.8723550
  72.8314890  55.9559210  51.8781900  57.7564270  59.8233920  38.1001370
  56.8528350  60.0864120  37.9253030  58.2404890  60.0945090  37.3201330
  74.2657320  60.5457910  43.3777570  74.7894800  60.0520560  42.7467740
  74.8516740  60.6808270  44.1225140  74.4447040  60.6297780  46.8997120
  73.4949750  60.5961320  47.0142110  74.6260050  61.5397890  46.6646890
  60.2991480  58.8799460  36.0095750  61.0083180  58.4582680  35.5243030
  59.5831420  58.9474690  35.3779100  59.9465640  54.9338790  35.0498400
  60.6693770  55.4747730  35.3679620  60.2190160  54.6602210  34.1739940
  73.7557290  59.8031260  39.3169980  74.2516410  59.5702130  40.1018860
  73.5573360  58.9643100  38.9007620  59.6357830  54.1844980  44.9521020
  60.2834020  53.6342360  44.5116180  60.0559670  54.4388130  45.7736830
  73.5310170  54.3786340  48.3090660  74.1682390  54.9920480  48.6749850
  73.6785060  54.4147000  47.3639890  59.3889830  54.3400650  47.6946340
  59.0404650  54.7964470  48.4604520  59.0577530  53.4457780  47.7768770
  66.9014650  55.5312530  51.2165760  66.8403540  56.1234360  51.9661170
  67.8415030  55.4238490  51.0716020  69.5389210  55.1882590  50.8558050
  70.1529620  55.5061880  50.1939130  70.0838770  54.7031180  51.4753910
  60.0610470  53.8676850  50.9697110  60.6093460  53.6864900  50.2063220
  60.1265780  53.0770960  51.5053420  70.2797250  53.7514730  47.1827340
  69.4057090  54.0849840  46.9800270  70.1708000  53.2787910  48.0079210
  71.1869230  55.9585600  48.5669060  70.8582590  55.1437360  48.1870790
  72.1351530  55.9155410  48.4434750  68.0272070  54.6684570  46.1220250
  67.2443860  55.1430070  46.4017010  67.7335000  53.7639400  46.0133430
  72.5793140  55.3707670  44.1669340  73.0201230  55.3152770  43.3190940
  72.3100730  56.2865680  44.2379520  74.4431710  55.0022910  42.1778160
  74.3820110  54.0584130  42.0309180  75.2223740  55.1103000  42.7231620
  59.3712480  54.9732050  38.6433970  60.1291840  55.0860930  38.0698000
  58.9089650  55.8101250  38.5977400  65.9126290  57.0871320  41.6336280
  65.1000800  56.7128210  41.2932160  66.4167930  56.3316400  41.9357470
  70.4151270  53.7513770  42.8719350  71.0180640  54.3233980  43.3467870
  69.6744260  54.3153210  42.6493250  73.5585870  54.1535330  38.1459630
  73.7536500  55.0518780  38.4127060  72.7715740  53.9222410  38.6392580
  61.7437630  55.4996100  37.1835940  62.2730390  54.7125900  37.0543890
  62.3765950  56.1787290  37.4171470  63.9375470  55.2371240  40.2381330
  63.3078210  54.5358550  40.4051460  63.3980610  55.9975370  40.0214490
  64.0631030  54.5155220  52.6733820  63.7815300  55.0188820  51.9094640
  64.4450730  53.7176970  52.3075950  70.6646490  53.9308800  53.2514290
  70.5511940  54.2503410  54.1465810  71.4816230  54.3321310  52.9551570
  69.5704640  61.9501270  23.6149030  69.4898690  61.0355880  23.3440740
  69.1569060  62.4468340  22.9088740  67.7022680  63.7280290  25.4958300
  66.9264780  63.2480730  25.7856870  68.3535610  63.0485940  25.3214460
  61.7188510  64.0400100  26.3734060  60.8873390  63.7848810  26.7730570
  62.3269490  64.1110870  27.1091980  60.1280460  59.0001990  20.1576450
  59.2397160  59.3417960  20.0556330  60.4121650  58.8002310  19.2657280
  58.0913470  61.6007640  26.0416150  58.6629580  60.8329840  26.0419790
  58.0915010  61.8996400  25.1322760  67.1431670  66.4037480  25.5028460
  67.0739950  65.4627420  25.3417590  67.9051530  66.4938890  26.0751030
  59.3338340  57.0092000  27.8285080  59.1541180  56.1117750  28.1087840
  58.9318420  57.5563870  28.5032030  68.1736840  59.2107860  25.7297390
  68.5501660  58.3379740  25.6171060  68.0756350  59.5466560  24.8387830
  62.3041850  57.5833490  21.1914830  62.4108600  58.4837220  21.4983590
  61.3934210  57.5351460  20.9009480  71.9560960  56.7058300  22.6625730
  72.7770580  56.2154870  22.7051210  71.9895040  57.2955960  23.4157570
  59.9525010  59.5052500  26.4367420  60.6335120  59.7690870  27.0554820
  59.6373060  58.6653370  26.7705430  64.1449580  60.5519860  25.5240010
  64.6527800  61.0500830  26.1645030  64.6762820  59.7755060  25.3479370
  62.4285680  55.1918420  29.7903430  62.4304120  55.7090810  28.9849330
  61.5989990  54.7148600  29.7673360  68.8156770  65.3037730  21.2893330
  68.1974040  65.7687180  20.7256050  69.3280020  65.9965210  21.7062840
  63.6788530  64.8313600  27.9676930  63.3457910  65.4582520  28.6098000
  63.8555210  65.3575480  27.1878600  72.1922440  58.6458680  25.4353270
  71.4878010  58.9343570  26.0156380  72.5534600  59.4558790  25.0752830
  62.1101010  56.9028380  27.7973880  62.4517820  57.7470430  27.5027750
  61.1716820  57.0512120  27.9139220  62.8907630  66.7994400  29.7826110
  63.5081630  67.4745480  29.5010560  62.0300750  67.2082380  29.6913610
  58.1839970  65.9894260  18.6632960  57.8067950  66.4781360  17.9317860
  58.4413040  66.6619540  19.2939490  75.2609360  58.0913470  25.8262480
  74.3134270  58.1252450  25.9577910  75.5859350  58.9052420  26.2111840
  65.7928900  54.3910650  24.1218470  66.1003880  53.8357540  23.4053970
  64.8629600  54.5255110  23.9391460  72.6389380  66.8294160  21.5016100
  72.5285710  65.8868490  21.6265520  72.6357630  67.1909800  22.3878860
  70.7429400  65.0107780  27.7408540  71.1598190  64.7967890  26.9062000
  71.4669220  65.2680570  28.3117160  68.1809660  62.4559480  20.8578590
  67.2538940  62.3896860  21.0867060  68.3334480  63.3939610  20.7433830
  68.1678740  58.7276480  17.8545750  67.2282410  58.8890440  17.9398210
  68.4862000  59.4462160  17.3081740  74.6891500  63.4095000  27.8324780
  73.8610130  63.4788090  27.3574910  75.2841980  63.9949310  27.3640610
  72.2106950  64.0179780  21.3613840  71.5919370  63.6799330  20.7140140
  72.1931400  63.3739540  22.0693030  71.6533510  60.1964320  28.7779650
  71.2404690  61.0218030  29.0319640  70.9209460  59.6109360  28.5856010
  63.7866300  62.9824220  23.6398320  63.3823300  62.2701470  23.1444220
  63.8729420  62.6377460  24.5286360  64.2548000  66.6691780  25.8037530
  63.9576290  66.0637250  25.1245310  65.2047820  66.7069090  25.6926890
  62.4994920  59.7567430  27.4197360  63.0509510  59.8662770  26.6450610
  63.0138430  60.1305030  28.1352590  63.3466430  66.4073470  32.4545330
  62.4494960  66.6313440  32.7018730  63.3719300  66.5308410  31.5056730
  70.3871650  63.2566590  18.3686590  70.8264930  62.4189020  18.2224410
  71.1000070  63.8895990  18.4550730  62.1737650  63.2786790  31.0302700
  62.0345420  64.1509590  31.3990100  61.2919010  62.9359600  30.8850640
  73.9688790  54.5109400  16.6827630  73.6561450  54.6036230  17.5826700
  74.7301260  55.0890430  16.6325060  60.4870930  61.8769200  21.1404970
  60.3668530  62.6031290  20.5286240  60.1771820  61.1072110  20.6632880
  58.1256300  65.0484340  26.9473610  58.2036720  65.1833110  26.0029330
  58.7397980  64.3400230  27.1401730  59.3703930  66.7484530  23.3579790
  58.9632010  66.8899120  22.5033390  60.2616940  66.4644690  23.1551000
  75.3266070  67.1948440  31.6952030  75.4529130  66.9560320  30.7769210
  75.3687450  66.3632980  32.1674110  75.1790080  59.2480900  32.6601770
  74.5634350  59.7560570  32.1317230  74.8586500  58.3479230  32.6027710
  58.1815820  66.0898510  29.4868070  58.3446860  65.6203870  28.6687440
  58.6468270  65.5822070  30.1516910  62.9534590  55.2204270  24.5228640
  62.5102740  56.0013810  24.1913160  63.5119580  55.5434160  25.2299580
  67.2404400  58.0872790  30.1263960  66.7783770  58.2955810  30.9383900
  66.8382510  57.2732140  29.8234630  72.2408910  59.3081740  31.2560620
  71.3902500  59.0087490  31.5769690  72.0810700  59.5523750  30.3444440
  69.3358620  60.8083490  33.3559410  69.6612030  59.9747240  33.0161640
  70.1238950  61.3312010  33.5037740  66.0693410  54.8414970  19.4034470
  65.4447590  54.8374840  20.1287780  65.9823530  53.9745930  19.0070440
  64.9910490  55.7651600  26.3818240  65.2882820  56.6714430  26.3010260
  65.5396050  55.2770380  25.7677810  62.7448810  60.3437840  22.2509890
  62.5189730  60.1275010  23.1556510  61.9641340  60.7766300  21.9055860
  69.9746570  60.3501210  20.8500540  69.3755460  61.0737010  20.6664160
  70.5226180  60.2877990  20.0676990  65.1848020  61.2423420  32.9170160
  65.0891620  60.3018150  32.7670560  66.0280000  61.4638490  32.5218230
  68.5811440  58.9864750  22.8803820  68.9741010  59.3036950  22.0672510
  68.9428290  58.1076630  22.9948340  60.3158560  57.6537090  31.0703940
  59.9221950  58.5012300  31.2776720  59.6276960  57.0163460  31.2612580
  66.8903610  57.7372060  34.1400680  66.2001930  57.5444260  34.7746770
  67.6335910  58.0206700  34.6724980  57.6175610  55.5765550  25.1034020
  57.3288660  56.1468410  25.8159000  58.3621370  55.0970000  25.4665250
  57.8045840  59.5185670  16.3136740  57.7220510  60.4616430  16.4551730
  57.4528900  59.3760580  15.4349090  69.1666580  61.5770500  26.9754600
  68.4347700  62.0857310  27.3244700  68.7690920  60.7600480  26.6743380
  65.6043970  58.2524700  25.3807090  65.6080030  57.8114650  24.5311630
  66.4995090  58.5742030  25.4878910  61.4546350  58.1351190  24.3401300
  61.1146400  58.6126420  25.0968350  60.6923670  57.6816310  23.9802400
  65.6664120  59.2536780  18.3713850  65.7876940  59.2123260  19.3199670
  65.2812630  60.1160930  18.2160580  69.6292490  57.0304180  26.3877540
  69.6465230  57.4812830  27.2319390  69.3808070  56.1309820  26.6010980
  64.6785620  61.5637920  17.7697150  64.1102520  61.1156170  17.1433060
  65.3874620  61.9230700  17.2362300  73.0563240  54.4436360  32.2263920
  73.3809010  53.7126020  32.7521900  73.0919750  54.1250000  31.3244910
  59.7554800  65.4649940  31.6463880  59.3709590  64.8243610  32.2446840
  60.0666990  66.1686060  32.2158610  65.9051940  62.3126480  27.1272500
  66.2722070  61.8385050  27.8733840  65.7157000  63.1868050  27.4680840
  58.7692430  57.0570170  23.2565970  58.4839350  56.6925840  24.0944590
  58.7071290  56.3250630  22.6429110  63.6951310  61.3535120  29.4456710
  63.3908380  62.2327100  29.6707070  64.6497770  61.4134910  29.4814150
  62.2233100  65.5596110  20.0423560  61.4495360  65.0193730  19.8822280
  62.9527730  65.0402720  19.7041320  72.9821080  64.5561470  25.8349950
  73.7020200  65.0516760  25.4446060  72.7802900  63.8779360  25.1903820
  68.4431020  55.9499430  19.9779340  67.6295630  55.4512600  19.9024650
  68.2492970  56.7897680  19.5615690  68.3639880  64.6270530  31.7218950
  68.2977190  63.7066200  31.4676540  67.7345020  64.7245970  32.4363590
  71.1579410  60.3219080  18.2741500  72.0459030  60.6336310  18.0992840
  71.1284500  59.4491330  17.8822080  62.2670500  65.2276490  23.6802370
  62.7849170  64.4244750  23.6259260  61.8154520  65.1655630  24.5219200
  67.1540000  66.4942770  18.9529670  67.4955700  67.2385000  18.4572990
  66.3252710  66.8073890  19.3154500  59.7515040  62.1937860  30.5928070
  59.3929980  62.8591710  31.1801410  59.4569600  61.3621410  30.9640690
  62.9528160  62.6522100  33.4767620  62.6528300  62.7979280  32.5795440
  63.7239400  62.0927390  33.3841010  68.2956610  67.4491100  31.4722750
  68.3101150  66.5172060  31.2541660  67.5881710  67.5350860  32.1112520
  73.4293680  61.6330920  17.7421360  73.3457400  62.0645140  16.8917800
  74.1487870  62.0929270  18.1748180  74.5067820  64.0898440  30.8191330
  73.7816010  64.6827220  30.6220720  75.0343280  64.0821980  30.0204700
  70.0367410  65.8158610  24.3175180  70.3891230  65.2186740  23.6576550
  69.1529740  65.4902840  24.4883430  66.1230690  66.5756300  21.7245590
  66.8101820  67.1225510  22.1053180  65.3363110  67.1197030  21.7595200
  58.2623090  62.1929120  17.2162670  59.1317940  62.4753920  17.4998590
  57.7713410  63.0064990  17.1011480  65.4257900  63.5802330  21.3370950
  65.8820680  64.3907580  21.5631140  65.0746110  63.2625470  22.1689440
  61.3269680  53.9239980  21.8093470  61.1984310  53.9157880  22.7578390
  60.5031700  54.2623070  21.4584480  72.8478310  67.3789640  17.0079840
  72.6215890  66.6620080  17.6004480  72.4574510  67.1302080  16.1701590
  58.3263610  55.6831100  31.2700170  57.6122130  55.8828020  31.8752780
  58.7458650  54.9070670  31.6414970  72.4294560  65.2961580  18.6694000
  72.1416260  65.7574270  19.4571880  73.2246730  64.8359350  18.9378220
  60.2469600  64.0102590  19.3444730  59.6397550  64.7501490  19.3540030
  60.7218950  64.1001950  18.5182930  69.8202390  58.1753410  29.0201620
  70.1883210  57.3548620  29.3481190  68.9600590  58.2355300  29.4357270
  73.1864420  57.1310350  19.8289180  72.5577580  57.2356020  19.1147410
  72.6916340  57.3507130  20.6183060  65.1548450  59.4096300  21.2447060
  64.4464600  59.8782640  21.6860670  65.4392930  58.7518310  21.8792250
  66.7804380  60.8293000  29.2439590  67.2789630  61.3038820  29.9091440
  66.9227330  59.9056520  29.4509620  69.1863880  56.1346960  22.6842850
  69.0631660  56.1533090  21.7352360  70.1348440  56.1825900  22.8041250
  63.3583470  57.7181380  18.6197770  64.2074000  58.1551530  18.5537960
  62.9914740  58.0301640  19.4469830  73.9871240  57.0460960  30.0867980
  73.4844840  57.7866360  30.4261790  74.8027900  57.4344960  29.7704770
  72.2793250  62.2894140  23.5329340  71.3383390  62.3044370  23.7077030
  72.5937320  61.5030100  23.9789640  62.2574890  63.9713740  17.0933300
  63.0238160  63.8595100  17.6558730  62.3349580  63.2751710  16.4410070
  60.9521650  61.4038810  17.7766190  61.0325240  60.4566320  17.8883590
  61.8441400  61.7345690  17.8826850  69.5959270  66.8460140  34.0161720
  68.9897430  66.8691740  33.2757470  69.2913380  66.1143180  34.5528970
  58.4792450  63.2253730  33.0122360  58.9831470  62.6461010  33.5838590
  57.7399870  63.5093960  33.5498730  65.3816070  65.9467920  16.5668650
  65.2766710  65.3320270  17.2930030  65.2140290  65.4233810  15.7831660
  65.5330390  64.6324720  32.5457880  64.7676060  65.2009720  32.4612550
  65.7146350  64.3400930  31.6526110  68.6218800  65.0087950  17.1710640
  68.0728900  65.4557250  17.8153380  69.2438060  64.5037200  17.6948310
  72.6753740  66.3630050  33.1032900  73.4163210  66.7005810  32.6000360
  71.9126420  66.5322110  32.5502670  60.5115530  61.3683320  33.9072430
  60.5520870  61.0697190  34.8157660  61.3661030  61.7690930  33.7479950
  64.2893920  63.9678870  19.0675940  64.7110340  63.8018740  19.9107330
  64.4144760  63.1579100  18.5731080  62.4521340  59.9475420  31.8746920
  61.9217800  59.4566370  31.2470260  63.1209410  60.3759620  31.3404850
  66.8021560  62.9916480  16.3153040  67.3227220  62.2765500  15.9494190
  67.4489960  63.6302350  16.6153550  71.3499400  64.4144880  31.6388110
  71.7640420  64.5689960  32.4878530  70.4150400  64.5400100  31.8013890
  71.8221570  61.7541040  33.6427260  72.4042340  60.9993360  33.5547740
  71.9983340  62.2848480  32.8658740  62.9393640  56.9137790  31.9544210
  62.8450510  56.2958540  31.2295080  62.3591030  57.6404080  31.7274120
  65.7055080  55.4711030  28.9871600  65.2572380  55.4935290  28.1417150
  65.0720280  55.0730050  29.5841900  66.1114630  64.3665360  29.6084040
  66.5302740  65.2098090  29.4360280  65.1923260  64.5037400  29.3790820
  68.4478530  62.0981540  30.9921880  68.5674740  61.5022680  31.7316720
  69.3072530  62.1351230  30.5723180  70.7866430  62.6518730  29.5684390
  70.2601650  63.1761350  28.9649530  71.1297770  63.2846120  30.1994120
  63.1852820  60.0412100  16.0134100  62.9841880  59.1779460  16.3747440
  63.0144870  59.9545460  15.0755700  65.2147300  58.6402890  32.2497700
  65.8046990  58.3318740  32.9375520  64.3967540  58.1682640  32.4057600
  70.0340730  58.2568700  32.4830720  69.3456250  57.5950240  32.4180710
  70.7546750  57.8106970  32.9279180  70.6641130  54.8520330  18.5420980
  70.9443420  54.0088230  18.8980400  69.8906860  55.0843440  19.0559730
  61.9835620  57.1412720  16.0011980  62.2861520  57.1480150  15.0931130
  62.7230210  56.7910580  16.4979640  65.2020550  56.0847340  16.9868180
  64.8542550  55.4071330  16.4070630  65.4033320  55.6236850  17.8011570
  61.0065750  66.4455140  16.8341780  61.4440620  66.9884810  17.4899360
  61.4913480  65.6202090  16.8438120  62.8173470  67.5653180  21.9464010
  62.5169010  67.4418150  22.8467920  62.7110960  66.7061770  21.5379740
  75.0421850  64.0897060  19.1524890  75.8040760  64.6593710  19.2584580
  75.0576220  63.5224260  19.9233200  58.5426190  62.6134990  23.3832550
  57.8875030  62.3446630  22.7392250  59.3804140  62.5039470  22.9334530
  73.0315580  66.3283740  29.4097140  72.2175420  66.7580900  29.6722930
  73.4389780  66.9402150  28.7966190  75.0941020  64.3831430  16.3097410
  75.3689860  65.2910310  16.1816630  74.9051760  64.3193960  17.2459400
  71.4916630  57.4076280  17.6051040  71.9101510  57.2207260  16.7647700
  71.1852690  56.5555330  17.9153970  74.9906360  62.3200420  21.3026840
  74.6149960  61.5528350  20.8708130  74.2609480  62.7023120  21.7901770
  59.5802120  62.9987560  27.9235890  59.9475160  62.9114960  28.8031910
  59.0112940  62.2354110  27.8242750  74.3805980  61.4671940  30.9366360
  74.1492070  61.2384690  30.0364310  74.6410530  62.3871490  30.8911250
  59.1318120  59.9096650  31.8294310  58.2374170  59.8763410  32.1688020
  59.6715670  60.1083440  32.5945560  72.8194050  56.6928370  33.7146060
  73.6964230  56.7011770  34.0980060  72.8314890  55.9559210  33.1038410
  57.7564270  59.8233920  19.3257880  56.8528350  60.0864120  19.1509540
  58.2404890  60.0945090  18.5457840  74.2657320  60.5457910  24.6034080
  74.7894800  60.0520560  23.9724250  74.8516740  60.6808270  25.3481650
  74.4447040  60.6297780  28.1253630  73.4949750  60.5961320  28.2398620
  74.6260050  61.5397890  27.8903400  60.2991480  58.8799460  17.2352260
  61.0083180  58.4582680  16.7499540  59.5831420  58.9474690  16.6035610
  59.9465640  54.9338790  16.2754910  60.6693770  55.4747730  16.5936130
  60.2190160  54.6602210  15.3996450  73.7557290  59.8031260  20.5426490
  74.2516410  59.5702130  21.3275370  73.5573360  58.9643100  20.1264130
  59.6357830  54.1844980  26.1777530  60.2834020  53.6342360  25.7372690
  60.0559670  54.4388130  26.9993340  73.5310170  54.3786340  29.5347170
  74.1682390  54.9920480  29.9006360  73.6785060  54.4147000  28.5896400
  59.3889830  54.3400650  28.9202850  59.0404650  54.7964470  29.6861030
  59.0577530  53.4457780  29.0025280  66.9014650  55.5312530  32.4422270
  66.8403540  56.1234360  33.1917680  67.8415030  55.4238490  32.2972530
  69.5389210  55.1882590  32.0814560  70.1529620  55.5061880  31.4195640
  70.0838770  54.7031180  32.7010420  60.0610470  53.8676850  32.1953620
  60.6093460  53.6864900  31.4319730  60.1265780  53.0770960  32.7309930
  70.2797250  53.7514730  28.4083850  69.4057090  54.0849840  28.2056780
  70.1708000  53.2787910  29.2335720  71.1869230  55.9585600  29.7925570
  70.8582590  55.1437360  29.4127300  72.1351530  55.9155410  29.6691260
  68.0272070  54.6684570  27.3476760  67.2443860  55.1430070  27.6273520
  67.7335000  53.7639400  27.2389940  72.5793140  55.3707670  25.3925850
  73.0201230  55.3152770  24.5447450  72.3100730  56.2865680  25.4636030
  74.4431710  55.0022910  23.4034670  74.3820110  54.0584130  23.2565690
  75.2223740  55.1103000  23.9488130  59.3712480  54.9732050  19.8690480
  60.1291840  55.0860930  19.2954510  58.9089650  55.8101250  19.8233910
  65.9126290  57.0871320  22.8592790  65.1000800  56.7128210  22.5188670
  66.4167930  56.3316400  23.1613980  70.4151270  53.7513770  24.0975860
  71.0180640  54.3233980  24.5724380  69.6744260  54.3153210  23.8749760
  73.5585870  54.1535330  19.3716140  73.7536500  55.0518780  19.6383570
  72.7715740  53.9222410  19.8649090  61.7437630  55.4996100  18.4092450
  62.2730390  54.7125900  18.2800400  62.3765950  56.1787290  18.6427980
  63.9375470  55.2371240  21.4637840  63.3078210  54.5358550  21.6307970
  63.3980610  55.9975370  21.2471000  64.0631030  54.5155220  33.8990330
  63.7815300  55.0188820  33.1351150  64.4450730  53.7176970  33.5332460
  70.6646490  53.9308800  34.4770800  70.5511940  54.2503410  35.3722320
  71.4816230  54.3321310  34.1808080  69.5704640  61.9501270   4.8405540
  69.4898690  61.0355880   4.5697250  69.1569060  62.4468340   4.1345250
  67.7022680  63.7280290   6.7214810  66.9264780  63.2480730   7.0113380
  68.3535610  63.0485940   6.5470970  61.7188510  64.0400100   7.5990570
  60.8873390  63.7848810   7.9987080  62.3269490  64.1110870   8.3348490
  58.0913470  61.6007640   7.2672660  58.6629580  60.8329840   7.2676300
  58.0915010  61.8996400   6.3579270  67.1431670  66.4037480   6.7284970
  67.0739950  65.4627420   6.5674100  67.9051530  66.4938890   7.3007540
  59.3338340  57.0092000   9.0541590  59.1541180  56.1117750   9.3344350
  58.9318420  57.5563870   9.7288540  68.1736840  59.2107860   6.9553900
  68.5501660  58.3379740   6.8427570  68.0756350  59.5466560   6.0644340
  62.3041850  57.5833490   2.4171340  62.4108600  58.4837220   2.7240100
  61.3934210  57.5351460   2.1265990  71.9560960  56.7058300   3.8882240
  72.7770580  56.2154870   3.9307720  71.9895040  57.2955960   4.6414080
  59.9525010  59.5052500   7.6623930  60.6335120  59.7690870   8.2811330
  59.6373060  58.6653370   7.9961940  64.1449580  60.5519860   6.7496520
  64.6527800  61.0500830   7.3901540  64.6762820  59.7755060   6.5735880
  62.4285680  55.1918420  11.0159940  62.4304120  55.7090810  10.2105840
  61.5989990  54.7148600  10.9929870  68.8156770  65.3037730   2.5149840
  68.1974040  65.7687180   1.9512560  69.3280020  65.9965210   2.9319350
  63.6788530  64.8313600   9.1933440  63.3457910  65.4582520   9.8354510
  63.8555210  65.3575480   8.4135110  72.1922440  58.6458680   6.6609780
  71.4878010  58.9343570   7.2412890  72.5534600  59.4558790   6.3009340
  62.1101010  56.9028380   9.0230390  62.4517820  57.7470430   8.7284260
  61.1716820  57.0512120   9.1395730  62.8907630  66.7994400  11.0082620
  63.5081630  67.4745480  10.7267070  62.0300750  67.2082380  10.9170120
  75.2609360  58.0913470   7.0518990  74.3134270  58.1252450   7.1834420
  75.5859350  58.9052420   7.4368350  65.7928900  54.3910650   5.3474980
  66.1003880  53.8357540   4.6310480  64.8629600  54.5255110   5.1647970
  72.6389380  66.8294160   2.7272610  72.5285710  65.8868490   2.8522030
  72.6357630  67.1909800   3.6135370  70.7429400  65.0107780   8.9665050
  71.1598190  64.7967890   8.1318510  71.4669220  65.2680570   9.5373670
  68.1809660  62.4559480   2.0835100  67.2538940  62.3896860   2.3123570
  68.3334480  63.3939610   1.9690340  74.6891500  63.4095000   9.0581290
  73.8610130  63.4788090   8.5831420  75.2841980  63.9949310   8.5897120
  72.2106950  64.0179780   2.5870350  71.5919370  63.6799330   1.9396650
  72.1931400  63.3739540   3.2949540  71.6533510  60.1964320  10.0036160
  71.2404690  61.0218030  10.2576150  70.9209460  59.6109360   9.8112520
  63.7866300  62.9824220   4.8654830  63.3823300  62.2701470   4.3700730
  63.8729420  62.6377460   5.7542870  64.2548000  66.6691780   7.0294040
  63.9576290  66.0637250   6.3501820  65.2047820  66.7069090   6.9183400
  62.4994920  59.7567430   8.6453870  63.0509510  59.8662770   7.8707120
  63.0138430  60.1305030   9.3609100  63.3466430  66.4073470  13.6801840
  62.4494960  66.6313440  13.9275240  63.3719300  66.5308410  12.7313240
  62.1737650  63.2786790  12.2559210  62.0345420  64.1509590  12.6246610
  61.2919010  62.9359600  12.1107150  60.4870930  61.8769200   2.3661480
  60.3668530  62.6031290   1.7542750  60.1771820  61.1072110   1.8889390
  58.1256300  65.0484340   8.1730120  58.2036720  65.1833110   7.2285840
  58.7397980  64.3400230   8.3658240  59.3703930  66.7484530   4.5836300
  58.9632010  66.8899120   3.7289900  60.2616940  66.4644690   4.3807510
  75.3266070  67.1948440  12.9208540  75.4529130  66.9560320  12.0025720
  75.3687450  66.3632980  13.3930620  75.1790080  59.2480900  13.8858280
  74.5634350  59.7560570  13.3573740  74.8586500  58.3479230  13.8284220
  58.1815820  66.0898510  10.7124580  58.3446860  65.6203870   9.8943950
  58.6468270  65.5822070  11.3773420  62.9534590  55.2204270   5.7485150
  62.5102740  56.0013810   5.4169670  63.5119580  55.5434160   6.4556090
  67.2404400  58.0872790  11.3520470  66.7783770  58.2955810  12.1640410
  66.8382510  57.2732140  11.0491140  72.2408910  59.3081740  12.4817130
  71.3902500  59.0087490  12.8026200  72.0810700  59.5523750  11.5700950
  69.3358620  60.8083490  14.5815920  69.6612030  59.9747240  14.2418150
  70.1238950  61.3312010  14.7294250  64.9910490  55.7651600   7.6074750
  65.2882820  56.6714430   7.5266770  65.5396050  55.2770380   6.9934320
  62.7448810  60.3437840   3.4766400  62.5189730  60.1275010   4.3813020
  61.9641340  60.7766300   3.1312370  69.9746570  60.3501210   2.0757050
  69.3755460  61.0737010   1.8920670  70.5226180  60.2877990   1.2933500
  65.1848020  61.2423420  14.1426670  65.0891620  60.3018150  13.9927070
  66.0280000  61.4638490  13.7474740  68.5811440  58.9864750   4.1060330
  68.9741010  59.3036950   3.2929020  68.9428290  58.1076630   4.2204850
  60.3158560  57.6537090  12.2960450  59.9221950  58.5012300  12.5033230
  59.6276960  57.0163460  12.4869090  66.8903610  57.7372060  15.3657190
  66.2001930  57.5444260  16.0003280  67.6335910  58.0206700  15.8981490
  57.6175610  55.5765550   6.3290530  57.3288660  56.1468410   7.0415510
  58.3621370  55.0970000   6.6921760  69.1666580  61.5770500   8.2011110
  68.4347700  62.0857310   8.5501210  68.7690920  60.7600480   7.8999890
  65.6043970  58.2524700   6.6063600  65.6080030  57.8114650   5.7568140
  66.4995090  58.5742030   6.7135420  61.4546350  58.1351190   5.5657810
  61.1146400  58.6126420   6.3224860  60.6923670  57.6816310   5.2058910
  69.6292490  57.0304180   7.6134050  69.6465230  57.4812830   8.4575900
  69.3808070  56.1309820   7.8267490  73.0563240  54.4436360  13.4520430
  73.3809010  53.7126020  13.9778410  73.0919750  54.1250000  12.5501420
  59.7554800  65.4649940  12.8720390  59.3709590  64.8243610  13.4703350
  60.0666990  66.1686060  13.4415120  65.9051940  62.3126480   8.3529010
  66.2722070  61.8385050   9.0990350  65.7157000  63.1868050   8.6937350
  58.7692430  57.0570170   4.4822480  58.4839350  56.6925840   5.3201100
  58.7071290  56.3250630   3.8685620  63.6951310  61.3535120  10.6713220
  63.3908380  62.2327100  10.8963580  64.6497770  61.4134910  10.7070660
  72.9821080  64.5561470   7.0606460  73.7020200  65.0516760   6.6702570
  72.7802900  63.8779360   6.4160330  68.3639880  64.6270530  12.9475460
  68.2977190  63.7066200  12.6933050  67.7345020  64.7245970  13.6620100
  62.2670500  65.2276490   4.9058880  62.7849170  64.4244750   4.8515770
  61.8154520  65.1655630   5.7475710  59.7515040  62.1937860  11.8184580
  59.3929980  62.8591710  12.4057920  59.4569600  61.3621410  12.1897200
  62.9528160  62.6522100  14.7024130  62.6528300  62.7979280  13.8051950
  63.7239400  62.0927390  14.6097520  68.2956610  67.4491100  12.6979260
  68.3101150  66.5172060  12.4798170  67.5881710  67.5350860  13.3369030
  74.5067820  64.0898440  12.0447840  73.7816010  64.6827220  11.8477230
  75.0343280  64.0821980  11.2461210  70.0367410  65.8158610   5.5431690
  70.3891230  65.2186740   4.8833060  69.1529740  65.4902840   5.7139940
  66.1230690  66.5756300   2.9502100  66.8101820  67.1225510   3.3309690
  65.3363110  67.1197030   2.9851710  65.4257900  63.5802330   2.5627460
  65.8820680  64.3907580   2.7887650  65.0746110  63.2625470   3.3945950
  61.3269680  53.9239980   3.0349980  61.1984310  53.9157880   3.9834900
  60.5031700  54.2623070   2.6840990  58.3263610  55.6831100  12.4956680
  57.6122130  55.8828020  13.1009290  58.7458650  54.9070670  12.8671480
  69.8202390  58.1753410  10.2458130  70.1883210  57.3548620  10.5737700
  68.9600590  58.2355300  10.6613780  65.1548450  59.4096300   2.4703570
  64.4464600  59.8782640   2.9117180  65.4392930  58.7518310   3.1048760
  66.7804380  60.8293000  10.4696100  67.2789630  61.3038820  11.1347950
  66.9227330  59.9056520  10.6766130  69.1863880  56.1346960   3.9099360
  69.0631660  56.1533090   2.9608870  70.1348440  56.1825900   4.0297760
  73.9871240  57.0460960  11.3124490  73.4844840  57.7866360  11.6518300
  74.8027900  57.4344960  10.9961280  72.2793250  62.2894140   4.7585850
  71.3383390  62.3044370   4.9333540  72.5937320  61.5030100   5.2046150
  69.5959270  66.8460140  15.2418230  68.9897430  66.8691740  14.5013980
  69.2913380  66.1143180  15.7785480  58.4792450  63.2253730  14.2378870
  58.9831470  62.6461010  14.8095100  57.7399870  63.5093960  14.7755240
  65.5330390  64.6324720  13.7714390  64.7676060  65.2009720  13.6869060
  65.7146350  64.3400930  12.8782620  72.6753740  66.3630050  14.3289410
  73.4163210  66.7005810  13.8256870  71.9126420  66.5322110  13.7759180
  60.5115530  61.3683320  15.1328940  60.5520870  61.0697190  16.0414170
  61.3661030  61.7690930  14.9736460  62.4521340  59.9475420  13.1003430
  61.9217800  59.4566370  12.4726770  63.1209410  60.3759620  12.5661360
  71.3499400  64.4144880  12.8644620  71.7640420  64.5689960  13.7135040
  70.4150400  64.5400100  13.0270400  71.8221570  61.7541040  14.8683770
  72.4042340  60.9993360  14.7804250  71.9983340  62.2848480  14.0915250
  62.9393640  56.9137790  13.1800720  62.8450510  56.2958540  12.4551590
  62.3591030  57.6404080  12.9530630  65.7055080  55.4711030  10.2128110
  65.2572380  55.4935290   9.3673660  65.0720280  55.0730050  10.8098410
  66.1114630  64.3665360  10.8340550  66.5302740  65.2098090  10.6616790
  65.1923260  64.5037400  10.6047330  68.4478530  62.0981540  12.2178390
  68.5674740  61.5022680  12.9573230  69.3072530  62.1351230  11.7979690
  70.7866430  62.6518730  10.7940900  70.2601650  63.1761350  10.1906040
  71.1297770  63.2846120  11.4250630  65.2147300  58.6402890  13.4754210
  65.8046990  58.3318740  14.1632030  64.3967540  58.1682640  13.6314110
  70.0340730  58.2568700  13.7087230  69.3456250  57.5950240  13.6437220
  70.7546750  57.8106970  14.1535690  62.8173470  67.5653180   3.1720520
  62.5169010  67.4418150   4.0724430  62.7110960  66.7061770   2.7636250
  58.5426190  62.6134990   4.6089060  57.8875030  62.3446630   3.9648760
  59.3804140  62.5039470   4.1591040  73.0315580  66.3283740  10.6353650
  72.2175420  66.7580900  10.8979440  73.4389780  66.9402150  10.0222700
  74.9906360  62.3200420   2.5283350  74.6149960  61.5528350   2.0964640
  74.2609480  62.7023120   3.0158280  59.5802120  62.9987560   9.1492400
  59.9475160  62.9114960  10.0288420  59.0112940  62.2354110   9.0499260
  74.3805980  61.4671940  12.1622870  74.1492070  61.2384690  11.2620820
  74.6410530  62.3871490  12.1167760  59.1318120  59.9096650  13.0550820
  58.2374170  59.8763410  13.3944530  59.6715670  60.1083440  13.8202070
  72.8194050  56.6928370  14.9402570  73.6964230  56.7011770  15.3236570
  72.8314890  55.9559210  14.3294920  74.2657320  60.5457910   5.8290590
  74.7894800  60.0520560   5.1980760  74.8516740  60.6808270   6.5738160
  74.4447040  60.6297780   9.3510140  73.4949750  60.5961320   9.4655130
  74.6260050  61.5397890   9.1159910  73.7557290  59.8031260   1.7683000
  74.2516410  59.5702130   2.5531880  73.5573360  58.9643100   1.3520640
  59.6357830  54.1844980   7.4034040  60.2834020  53.6342360   6.9629200
  60.0559670  54.4388130   8.2249850  73.5310170  54.3786340  10.7603680
  74.1682390  54.9920480  11.1262870  73.6785060  54.4147000   9.8152910
  59.3889830  54.3400650  10.1459360  59.0404650  54.7964470  10.9117540
  59.0577530  53.4457780  10.2281790  66.9014650  55.5312530  13.6678780
  66.8403540  56.1234360  14.4174190  67.8415030  55.4238490  13.5229040
  69.5389210  55.1882590  13.3071070  70.1529620  55.5061880  12.6452150
  70.0838770  54.7031180  13.9266930  60.0610470  53.8676850  13.4210130
  60.6093460  53.6864900  12.6576240  60.1265780  53.0770960  13.9566440
  70.2797250  53.7514730   9.6340360  69.4057090  54.0849840   9.4313290
  70.1708000  53.2787910  10.4592230  71.1869230  55.9585600  11.0182080
  70.8582590  55.1437360  10.6383810  72.1351530  55.9155410  10.8947770
  68.0272070  54.6684570   8.5733270  67.2443860  55.1430070   8.8530030
  67.7335000  53.7639400   8.4646450  72.5793140  55.3707670   6.6182360
  73.0201230  55.3152770   5.7703960  72.3100730  56.2865680   6.6892540
  74.4431710  55.0022910   4.6291180  74.3820110  54.0584130   4.4822200
  75.2223740  55.1103000   5.1744640  65.9126290  57.0871320   4.0849300
  65.1000800  56.7128210   3.7445180  66.4167930  56.3316400   4.3870490
  70.4151270  53.7513770   5.3232370  71.0180640  54.3233980   5.7980890
  69.6744260  54.3153210   5.1006270  63.9375470  55.2371240   2.6894350
  63.3078210  54.5358550   2.8564480  63.3980610  55.9975370   2.4727510
  64.0631030  54.5155220  15.1246840  63.7815300  55.0188820  14.3607660
  64.4450730  53.7176970  14.7588970  70.6646490  53.9308800  15.7027310
  70.5511940  54.2503410  16.5978830  71.4816230  54.3321310  15.4064590
  69.5704640  43.1757780  61.1636010  69.4898690  42.2612390  60.8927720
  69.1569060  43.6724850  60.4575720  67.7022680  44.9536800  63.0445280
  66.9264780  44.4737240  63.3343850  68.3535610  44.2742450  62.8701440
  61.7188510  45.2656610  63.9221040  60.8873390  45.0105320  64.3217550
  62.3269490  45.3367380  64.6578960  71.7230110  49.3596990  61.8244410
  71.2611640  48.5884230  62.1531580  72.5355660  49.3863060  62.3296860
  61.6989770  49.2996700  64.1179060  62.0017810  48.4094440  63.9389280
  62.4433360  49.8566920  63.8901310  60.1280460  40.2258500  57.7063430
  59.2397160  40.5674470  57.6043310  60.4121650  40.0258820  56.8144260
  58.0913470  42.8264150  63.5903130  58.6629580  42.0586350  63.5906770
  58.0915010  43.1252910  62.6809740  67.9493420  51.6455000  61.4448400
  67.3304860  52.1012500  60.8742840  68.8045200  51.8006460  61.0438100
  67.1431670  47.6293990  63.0515440  67.0739950  46.6883930  62.8904570
  67.9051530  47.7195400  63.6238010  59.3338340  38.2348510  65.3772060
  59.1541180  37.3374260  65.6574820  58.9318420  38.7820380  66.0519010
  68.1736840  40.4364370  63.2784370  68.5501660  39.5636250  63.1658040
  68.0756350  40.7723070  62.3874810  62.3041850  38.8090000  58.7401810
  62.4108600  39.7093730  59.0470570  61.3934210  38.7607970  58.4496460
  71.9560960  37.9314810  60.2112710  72.7770580  37.4411380  60.2538190
  71.9895040  38.5212470  60.9644550  59.9525010  40.7309010  63.9854400
  60.6335120  40.9947380  64.6041800  59.6373060  39.8909880  64.3192410
  64.1449580  41.7776370  63.0726990  64.6527800  42.2757340  63.7132010
  64.6762820  41.0011570  62.8966350  62.4285680  36.4174930  67.3390410
  62.4304120  36.9347320  66.5336310  61.5989990  35.9405110  67.3160340
  68.8156770  46.5294240  58.8380310  68.1974040  46.9943690  58.2743030
  69.3280020  47.2221720  59.2549820  63.6788530  46.0570110  65.5163910
  63.3457910  46.6839030  66.1584980  63.8555210  46.5831990  64.7365580
  72.1922440  39.8715190  62.9840250  71.4878010  40.1600080  63.5643360
  72.5534600  40.6815300  62.6239810  62.1101010  38.1284890  65.3460860
  62.4517820  38.9726940  65.0514730  61.1716820  38.2768630  65.4626200
  62.8907630  48.0250910  67.3313090  63.5081630  48.7001990  67.0497540
  62.0300750  48.4338890  67.2400590  58.1839970  47.2150770  56.2119940
  57.8067950  47.7037870  55.4804840  58.4413040  47.8876050  56.8426470
  73.8085220  49.4890320  65.2467730  73.1248740  50.1589430  65.2384400
  74.3479510  49.6870970  64.4812590  75.2609360  39.3169980  63.3749460
  74.3134270  39.3508960  63.5064890  75.5859350  40.1308930  63.7598820
  65.7928900  35.6167160  61.6705450  66.1003880  35.0614050  60.9540950
  64.8629600  35.7511620  61.4878440  71.3443960  51.3334450  63.9612910
  71.3571120  50.9296740  63.0935170  70.7919180  52.1081740  63.8574340
  72.6389380  48.0550670  59.0503080  72.5285710  47.1125000  59.1752500
  72.6357630  48.4166310  59.9365840  70.7429400  46.2364290  65.2895520
  71.1598190  46.0224400  64.4548980  71.4669220  46.4937080  65.8604140
  68.1809660  43.6815990  58.4065570  67.2538940  43.6153370  58.6354040
  68.3334480  44.6196120  58.2920810  68.1678740  39.9532990  55.4032730
  67.2282410  40.1146950  55.4885190  68.4862000  40.6718670  54.8568720
  74.6891500  44.6351510  65.3811760  73.8610130  44.7044600  64.9061890
  75.2841980  45.2205820  64.9127590  72.2106950  45.2436290  58.9100820
  71.5919370  44.9055840  58.2627120  72.1931400  44.5996050  59.6180010
  71.6533510  41.4220830  66.3266630  71.2404690  42.2474540  66.5806620
  70.9209460  40.8365870  66.1342990  63.7866300  44.2080730  61.1885300
  63.3823300  43.4957980  60.6931200  63.8729420  43.8633970  62.0773340
  64.2548000  47.8948290  63.3524510  63.9576290  47.2893760  62.6732290
  65.2047820  47.9325600  63.2413870  62.4994920  40.9823940  64.9684340
  63.0509510  41.0919280  64.1937590  63.0138430  41.3561540  65.6839570
  72.3433610  51.4680160  67.0147610  71.8664170  52.2752350  66.8220220
  71.6595400  50.8158490  67.1673820  70.3871650  44.4823100  55.9173570
  70.8264930  43.6445530  55.7711390  71.1000070  45.1152500  56.0037710
  68.4967030  49.4219170  59.8854810  68.9362940  50.1643500  59.4710200
  68.4353920  49.6645740  60.8093770  73.9688790  35.7365910  54.2314610
  73.6561450  35.8292740  55.1313680  74.7301260  36.3146940  54.1812040
  60.4870930  43.1025710  58.6891950  60.3668530  43.8287800  58.0773220
  60.1771820  42.3328620  58.2119860  58.1256300  46.2740850  64.4960590
  58.2036720  46.4089620  63.5516310  58.7397980  45.5656740  64.6888710
  59.3703930  47.9741040  60.9066770  58.9632010  48.1155630  60.0520370
  60.2616940  47.6901200  60.7037980  71.1637210  52.4088290  57.2417820
  71.0038350  52.1191230  58.1399650  70.9983920  51.6328420  56.7063050
  63.6425590  52.1886820  59.0189440  63.4668070  51.2722360  58.8057240
  62.7881330  52.5474110  59.2587240  70.8663340  49.9175850  55.8015820
  70.1728500  49.9153140  55.1418100  71.6086200  49.4935170  55.3709990
  70.4313270  51.5438560  59.8764310  70.8870220  50.7627940  60.1902930
  70.7705790  52.2545380  60.4205490  58.1815820  47.3155020  67.0355050
  58.3446860  46.8460380  66.2174420  58.6468270  46.8078580  67.7003890
  62.9534590  36.4460780  62.0715620  62.5102740  37.2270320  61.7400140
  63.5119580  36.7690670  62.7786560  66.0693410  36.0671480  56.9521450
  65.4447590  36.0631350  57.6774760  65.9823530  35.2002440  56.5557420
  64.9910490  36.9908110  63.9305220  65.2882820  37.8970940  63.8497240
  65.5396050  36.5026890  63.3164790  62.7448810  41.5694350  59.7996870
  62.5189730  41.3531520  60.7043490  61.9641340  42.0022810  59.4542840
  69.9746570  41.5757720  58.3987520  69.3755460  42.2993520  58.2151140
  70.5226180  41.5134500  57.6163970  68.5811440  40.2121260  60.4290800
  68.9741010  40.5293460  59.6159490  68.9428290  39.3333140  60.5435320
  57.6175610  36.8022060  62.6521000  57.3288660  37.3724920  63.3645980
  58.3621370  36.3226510  63.0152230  57.8045840  40.7442180  53.8623720
  57.7220510  41.6872940  54.0038710  57.4528900  40.6017090  52.9836070
  69.1666580  42.8027010  64.5241580  68.4347700  43.3113820  64.8731680
  68.7690920  41.9856990  64.2230360  65.6043970  39.4781210  62.9294070
  65.6080030  39.0371160  62.0798610  66.4995090  39.7998540  63.0365890
  61.4546350  39.3607700  61.8888280  61.1146400  39.8382930  62.6455330
  60.6923670  38.9072820  61.5289380  65.6664120  40.4793290  55.9200830
  65.7876940  40.4379770  56.8686650  65.2812630  41.3417440  55.7647560
  69.6292490  38.2560690  63.9364520  69.6465230  38.7069340  64.7806370
  69.3808070  37.3566330  64.1497960  64.6785620  42.7894430  55.3184130
  64.1102520  42.3412680  54.6920040  65.3874620  43.1487210  54.7849280
  65.9051940  43.5382990  64.6759480  66.2722070  43.0641560  65.4220820
  65.7157000  44.4124560  65.0167820  58.7692430  38.2826680  60.8052950
  58.4839350  37.9182350  61.6431570  58.7071290  37.5507140  60.1916090
  63.6951310  42.5791630  66.9943690  63.3908380  43.4583610  67.2194050
  64.6497770  42.6391420  67.0301130  62.2233100  46.7852620  57.5910540
  61.4495360  46.2450240  57.4309260  62.9527730  46.2659230  57.2528300
  72.9821080  45.7817980  63.3836930  73.7020200  46.2773270  62.9933040
  72.7802900  45.1035870  62.7390800  68.4431020  37.1755940  57.5266320
  67.6295630  36.6769110  57.4511630  68.2492970  38.0154190  57.1102670
  71.1579410  41.5475590  55.8228480  72.0459030  41.8592820  55.6479820
  71.1284500  40.6747840  55.4309060  62.2670500  46.4533000  61.2289350
  62.7849170  45.6501260  61.1746240  61.8154520  46.3912140  62.0706180
  67.1540000  47.7199280  56.5016650  67.4955700  48.4641510  56.0059970
  66.3252710  48.0330400  56.8641480  73.4293680  42.8587430  55.2908340
  73.3457400  43.2901650  54.4404780  74.1487870  43.3185780  55.7235160
  74.4580930  49.7129690  58.0190470  73.8157090  49.0585310  58.2934190
  74.0711590  50.1184780  57.2431140  70.0367410  47.0415120  61.8662160
  70.3891230  46.4443250  61.2063530  69.1529740  46.7159350  62.0370410
  66.1230690  47.8012810  59.2732570  66.8101820  48.3482020  59.6540160
  65.3363110  48.3453540  59.3082180  58.2623090  43.4185630  54.7649650
  59.1317940  43.7010430  55.0485570  57.7713410  44.2321500  54.6498460
  65.4257900  44.8058840  58.8857930  65.8820680  45.6164090  59.1118120
  65.0746110  44.4881980  59.7176420  67.7290510  50.3165180  66.1150230
  68.3732730  50.5224560  66.7923650  68.0919950  49.5553580  65.6621080
  61.3269680  35.1496490  59.3580450  61.1984310  35.1414390  60.3065370
  60.5031700  35.4879580  59.0071460  69.0022590  48.3197530  64.8327680
  69.6444820  47.6190690  64.9459850  69.5271940  49.0995970  64.6524570
  72.8478310  48.6046150  54.5566820  72.6215890  47.8876590  55.1491460
  72.4574510  48.3558590  53.7188570  58.6294340  52.6313010  55.3311280
  58.9891980  53.2302350  54.6768550  58.4886680  53.1772900  56.1046310
  72.4294560  46.5218090  56.2180980  72.1416260  46.9830780  57.0058860
  73.2246730  46.0615860  56.4865200  64.6462960  50.0144210  56.1484950
  64.6373060  50.7473900  55.5329460  63.7261320  49.7675790  56.2411910
  60.2469600  45.2359100  56.8931710  59.6397550  45.9758000  56.9027010
  60.7218950  45.3258460  56.0669910  69.8202390  39.4009920  66.5688600
  70.1883210  38.5805130  66.8968170  68.9600590  39.4611810  66.9844250
  73.1864420  38.3566860  57.3776160  72.5577580  38.4612530  56.6634390
  72.6916340  38.5763640  58.1670040  67.6322560  50.0772450  54.8110140
  67.7334540  49.8736440  53.8812120  66.7324300  49.8230730  55.0157920
  65.1548450  40.6352810  58.7934040  64.4464600  41.1039150  59.2347650
  65.4392930  39.9774820  59.4279230  66.7804380  42.0549510  66.7926570
  67.2789630  42.5295330  67.4578420  66.9227330  41.1313030  66.9996600
  69.1863880  37.3603470  60.2329830  69.0631660  37.3789600  59.2839340
  70.1348440  37.4082410  60.3528230  66.2740670  52.5958770  59.5057810
  66.5282170  52.5580160  58.5837180  65.3253150  52.4692100  59.4986060
  63.3583470  38.9437890  56.1684750  64.2074000  39.3808040  56.1024940
  62.9914740  39.2558150  56.9956810  73.9871240  38.2717470  67.6354960
  73.4844840  39.0122870  67.9748770  74.8027900  38.6601470  67.3191750
  72.2793250  43.5150650  61.0816320  71.3383390  43.5300880  61.2564010
  72.5937320  42.7286610  61.5276620  62.2574890  45.1970250  54.6420280
  63.0238160  45.0851610  55.2045710  62.3349580  44.5008220  53.9897050
  60.9521650  42.6295320  55.3253170  61.0325240  41.6822830  55.4370570
  61.8441400  42.9602200  55.4313830  74.2818830  50.6859500  62.7570580
  74.4066250  51.5090670  63.2294390  75.1484390  50.4750230  62.4094730
  61.7536360  52.7790710  62.4287710  62.4898840  52.2306170  62.6996280
  62.1377280  53.6446720  62.2893700  58.6381840  48.8464280  58.3029220
  57.7121620  49.0885420  58.2934630  59.1038270  49.6738540  58.1813970
  64.8638670  51.9521020  54.2513280  65.6567280  52.2409850  53.7995070
  64.3443020  51.5213190  53.5725760  73.9168840  51.1791150  55.6750020
  73.6310350  50.7656290  54.8604200  73.7188390  52.1078860  55.5550540
  65.3816070  47.1724430  54.1155630  65.2766710  46.5576780  54.8417010
  65.2140290  46.6490320  53.3318640  68.6218800  46.2344460  54.7197620
  68.0728900  46.6813760  55.3640360  69.2438060  45.7293710  55.2435290
  64.2893920  45.1935380  56.6162920  64.7110340  45.0275250  57.4594310
  64.4144760  44.3835610  56.1218060  66.8021560  44.2172990  53.8640020
  67.3227220  43.5022010  53.4981170  67.4489960  44.8558860  54.1640530
  65.7055080  36.6967540  66.5358580  65.2572380  36.7191800  65.6904130
  65.0720280  36.2986560  67.1328880  66.1114630  45.5921870  67.1571020
  66.5302740  46.4354600  66.9847260  65.1923260  45.7293910  66.9277800
  70.7866430  43.8775240  67.1171370  70.2601650  44.4017860  66.5136510
  71.1297770  44.5102630  67.7481100  63.1852820  41.2668610  53.5621080
  62.9841880  40.4035970  53.9234420  63.0144870  41.1801970  52.6242680
  70.6641130  36.0776840  56.0907960  70.9443420  35.2344740  56.4467380
  69.8906860  36.3099950  56.6046710  61.9835620  38.3669230  53.5498960
  62.2861520  38.3736660  52.6418110  62.7230210  38.0167090  54.0466620
  65.2020550  37.3103850  54.5355160  64.8542550  36.6327840  53.9557610
  65.4033320  36.8493360  55.3498550  67.3669590  52.2984600  56.1541760
  68.2620380  52.6369570  56.1760520  67.3987220  51.5764010  55.5266040
  61.0065750  47.6711650  54.3828760  61.4440620  48.2141320  55.0386340
  61.4913480  46.8458600  54.3925100  58.2211550  50.4600680  61.8349020
  58.5514560  49.5921740  61.6027660  58.6502550  50.6659200  62.6653980
  62.8173470  48.7909690  59.4950990  62.5169010  48.6674660  60.3954900
  62.7110960  47.9318280  59.0866720  58.7101760  51.3271270  64.5730650
  58.2732750  51.5072070  65.4054800  59.2779440  52.0845890  64.4312370
  75.5865390  48.5706090  54.1977670  74.7558350  48.6382740  54.6684900
  75.7637220  49.4610210  53.8944530  75.0421850  45.3153570  56.7011870
  75.8040760  45.8850220  56.8071560  75.0576220  44.7480770  57.4720180
  58.5426190  43.8391500  60.9319530  57.8875030  43.5703140  60.2879230
  59.3804140  43.7295980  60.4821510  73.0315580  47.5540250  66.9584120
  72.2175420  47.9837410  67.2209910  73.4389780  48.1658660  66.3453170
  75.0941020  45.6087940  53.8584390  75.3689860  46.5166820  53.7303610
  74.9051760  45.5450470  54.7946380  71.4916630  38.6332790  55.1538020
  71.9101510  38.4463770  54.3134680  71.1852690  37.7811840  55.4640950
  74.9906360  43.5456930  58.8513820  74.6149960  42.7784860  58.4195110
  74.2609480  43.9279630  59.3388750  59.5802120  44.2244070  65.4722870
  59.9475160  44.1371470  66.3518890  59.0112940  43.4610620  65.3729730
  57.7564270  41.0490430  56.8744860  56.8528350  41.3120630  56.6996520
  58.2404890  41.3201600  56.0944820  74.2657320  41.7714420  62.1521060
  74.7894800  41.2777070  61.5211230  74.8516740  41.9064780  62.8968630
  74.4447040  41.8554290  65.6740610  73.4949750  41.8217830  65.7885600
  74.6260050  42.7654400  65.4390380  60.2991480  40.1055970  54.7839240
  61.0083180  39.6839190  54.2986520  59.5831420  40.1731200  54.1522590
  59.9465640  36.1595300  53.8241890  60.6693770  36.7004240  54.1423110
  60.2190160  35.8858720  52.9483430  73.7557290  41.0287770  58.0913470
  74.2516410  40.7958640  58.8762350  73.5573360  40.1899610  57.6751110
  59.6357830  35.4101490  63.7264510  60.2834020  34.8598870  63.2859670
  60.0559670  35.6644640  64.5480320  73.5310170  35.6042850  67.0834150
  74.1682390  36.2176990  67.4493340  73.6785060  35.6403510  66.1383380
  73.0891630  52.3058850  60.4852390  73.6850700  51.9843420  59.8086810
  73.3469780  51.8330670  61.2765660  59.3889830  35.5657160  66.4689830
  59.0404650  36.0220980  67.2348010  59.0577530  34.6714290  66.5512260
  64.6960230  50.2936350  66.2352740  64.4551590  50.5610910  65.3483260
  65.6362870  50.4642080  66.2903600  70.2797250  34.9771240  65.9570830
  69.4057090  35.3106350  65.7543760  70.1708000  34.5044420  66.7822700
  71.1869230  37.1842110  67.3412550  70.8582590  36.3693870  66.9614280
  72.1351530  37.1411920  67.2178240  73.6403840  52.9554150  64.3150120
  73.1806810  53.7069960  63.9408140  73.0116300  52.2360620  64.2564920
  60.4654460  49.0497390  66.7048840  59.7388520  48.4302680  66.6374790
  60.5263610  49.4438000  65.8346920  64.0699560  51.2642390  63.4898250
  64.5864580  50.6529750  62.9646510  64.7196940  51.7671170  63.9809260
  66.8095060  52.1550880  64.3167230  67.0972870  51.9005180  63.4400240
  67.3218280  51.6028240  64.9072800  68.0272070  35.8941080  64.8963740
  67.2443860  36.3686580  65.1760500  67.7335000  34.9895910  64.7876920
  72.5793140  36.5964180  62.9412830  73.0201230  36.5409280  62.0934430
  72.3100730  37.5122190  63.0123010  74.4431710  36.2279420  60.9521650
  74.3820110  35.2840640  60.8052670  75.2223740  36.3359510  61.4975110
  58.7484460  52.3671780  59.9145600  58.5806500  51.7342460  60.6127490
  57.8818970  52.5731180  59.5639790  59.3712480  36.1988560  57.4177460
  60.1291840  36.3117440  56.8441490  58.9089650  37.0357760  57.3720890
  65.9126290  38.3127830  60.4079770  65.1000800  37.9384720  60.0675650
  66.4167930  37.5572910  60.7100960  70.4151270  34.9770280  61.6462840
  71.0180640  35.5490490  62.1211360  69.6744260  35.5409720  61.4236740
  73.5585870  35.3791840  56.9203120  73.7536500  36.2775290  57.1870550
  72.7715740  35.1478920  57.4136070  60.3547160  51.0605010  57.3595740
  59.8294780  51.4413040  56.6557700  60.2791740  51.6855780  58.0805450
  61.7437630  36.7252610  55.9579430  62.2730390  35.9382410  55.8287380
  62.3765950  37.4043800  56.1914960  63.9375470  36.4627750  59.0124820
  63.3078210  35.7615060  59.1794950  63.3980610  37.2231880  58.7957980
  75.1112480  52.6192550  58.6809680  75.2864670  51.9330290  58.0370600
  74.4134050  53.1439600  58.2886350  62.9540130  53.0087390  56.2344990
  63.6858950  52.7246670  55.6868880  63.2133800  52.7700670  57.1244370
  62.1154920  49.1252120  56.2391320  61.4863800  49.5937220  56.7877150
  62.2302750  48.2801340  56.6737510  69.5704640  43.1757780  42.3892520
  69.4898690  42.2612390  42.1184230  69.1569060  43.6724850  41.6832230
  67.7022680  44.9536800  44.2701790  66.9264780  44.4737240  44.5600360
  68.3535610  44.2742450  44.0957950  61.7188510  45.2656610  45.1477550
  60.8873390  45.0105320  45.5474060  62.3269490  45.3367380  45.8835470
  71.7230110  49.3596990  43.0500920  71.2611640  48.5884230  43.3788090
  72.5355660  49.3863060  43.5553370  61.6989770  49.2996700  45.3435570
  62.0017810  48.4094440  45.1645790  62.4433360  49.8566920  45.1157820
  60.1280460  40.2258500  38.9319940  59.2397160  40.5674470  38.8299820
  60.4121650  40.0258820  38.0400770  58.0913470  42.8264150  44.8159640
  58.6629580  42.0586350  44.8163280  58.0915010  43.1252910  43.9066250
  67.9493420  51.6455000  42.6704910  67.3304860  52.1012500  42.0999350
  68.8045200  51.8006460  42.2694610  67.1431670  47.6293990  44.2771950
  67.0739950  46.6883930  44.1161080  67.9051530  47.7195400  44.8494520
  59.3338340  38.2348510  46.6028570  59.1541180  37.3374260  46.8831330
  58.9318420  38.7820380  47.2775520  68.1736840  40.4364370  44.5040880
  68.5501660  39.5636250  44.3914550  68.0756350  40.7723070  43.6131320
  62.3041850  38.8090000  39.9658320  62.4108600  39.7093730  40.2727080
  61.3934210  38.7607970  39.6752970  71.9560960  37.9314810  41.4369220
  72.7770580  37.4411380  41.4794700  71.9895040  38.5212470  42.1901060
  59.9525010  40.7309010  45.2110910  60.6335120  40.9947380  45.8298310
  59.6373060  39.8909880  45.5448920  64.1449580  41.7776370  44.2983500
  64.6527800  42.2757340  44.9388520  64.6762820  41.0011570  44.1222860
  62.4285680  36.4174930  48.5646920  62.4304120  36.9347320  47.7592820
  61.5989990  35.9405110  48.5416850  68.8156770  46.5294240  40.0636820
  68.1974040  46.9943690  39.4999540  69.3280020  47.2221720  40.4806330
  63.6788530  46.0570110  46.7420420  63.3457910  46.6839030  47.3841490
  63.8555210  46.5831990  45.9622090  72.1922440  39.8715190  44.2096760
  71.4878010  40.1600080  44.7899870  72.5534600  40.6815300  43.8496320
  62.1101010  38.1284890  46.5717370  62.4517820  38.9726940  46.2771240
  61.1716820  38.2768630  46.6882710  62.8907630  48.0250910  48.5569600
  63.5081630  48.7001990  48.2754050  62.0300750  48.4338890  48.4657100
  58.1839970  47.2150770  37.4376450  57.8067950  47.7037870  36.7061350
  58.4413040  47.8876050  38.0682980  73.8085220  49.4890320  46.4724240
  73.1248740  50.1589430  46.4640910  74.3479510  49.6870970  45.7069100
  75.2609360  39.3169980  44.6005970  74.3134270  39.3508960  44.7321400
  75.5859350  40.1308930  44.9855330  65.7928900  35.6167160  42.8961960
  66.1003880  35.0614050  42.1797460  64.8629600  35.7511620  42.7134950
  71.3443960  51.3334450  45.1869420  71.3571120  50.9296740  44.3191680
  70.7919180  52.1081740  45.0830850  72.6389380  48.0550670  40.2759590
  72.5285710  47.1125000  40.4009010  72.6357630  48.4166310  41.1622350
  70.7429400  46.2364290  46.5152030  71.1598190  46.0224400  45.6805490
  71.4669220  46.4937080  47.0860650  68.1809660  43.6815990  39.6322080
  67.2538940  43.6153370  39.8610550  68.3334480  44.6196120  39.5177320
  68.1678740  39.9532990  36.6289240  67.2282410  40.1146950  36.7141700
  68.4862000  40.6718670  36.0825230  74.6891500  44.6351510  46.6068270
  73.8610130  44.7044600  46.1318400  75.2841980  45.2205820  46.1384100
  72.2106950  45.2436290  40.1357330  71.5919370  44.9055840  39.4883630
  72.1931400  44.5996050  40.8436520  71.6533510  41.4220830  47.5523140
  71.2404690  42.2474540  47.8063130  70.9209460  40.8365870  47.3599500
  63.7866300  44.2080730  42.4141810  63.3823300  43.4957980  41.9187710
  63.8729420  43.8633970  43.3029850  64.2548000  47.8948290  44.5781020
  63.9576290  47.2893760  43.8988800  65.2047820  47.9325600  44.4670380
  62.4994920  40.9823940  46.1940850  63.0509510  41.0919280  45.4194100
  63.0138430  41.3561540  46.9096080  72.3433610  51.4680160  48.2404120
  71.8664170  52.2752350  48.0476730  71.6595400  50.8158490  48.3930330
  63.3466430  47.6329980  51.2288820  62.4494960  47.8569950  51.4762220
  63.3719300  47.7564920  50.2800220  70.3871650  44.4823100  37.1430080
  70.8264930  43.6445530  36.9967900  71.1000070  45.1152500  37.2294220
  62.1737650  44.5043300  49.8046190  62.0345420  45.3766100  50.1733590
  61.2919010  44.1616110  49.6594130  68.4967030  49.4219170  41.1111320
  68.9362940  50.1643500  40.6966710  68.4353920  49.6645740  42.0350280
  63.9718000  50.4465000  52.0131340  63.9433430  50.8507950  51.1459770
  63.8082970  49.5175360  51.8502940  73.9688790  35.7365910  35.4571120
  73.6561450  35.8292740  36.3570190  74.7301260  36.3146940  35.4068550
  60.4870930  43.1025710  39.9148460  60.3668530  43.8287800  39.3029730
  60.1771820  42.3328620  39.4376370  58.1256300  46.2740850  45.7217100
  58.2036720  46.4089620  44.7772820  58.7397980  45.5656740  45.9145220
  59.3703930  47.9741040  42.1323280  58.9632010  48.1155630  41.2776880
  60.2616940  47.6901200  41.9294490  75.3266070  48.4204950  50.4695520
  75.4529130  48.1816830  49.5512700  75.3687450  47.5889490  50.9417600
  69.1882810  52.1232950  49.0390330  69.7027480  52.0340960  49.8412760
  68.3451890  52.4692650  49.3318240  71.1637210  52.4088290  38.4674330
  71.0038350  52.1191230  39.3656160  70.9983920  51.6328420  37.9319560
  63.6425590  52.1886820  40.2445950  63.4668070  51.2722360  40.0313750
  62.7881330  52.5474110  40.4843750  70.8663340  49.9175850  37.0272330
  70.1728500  49.9153140  36.3674610  71.6086200  49.4935170  36.5966500
  70.4313270  51.5438560  41.1020820  70.8870220  50.7627940  41.4159440
  70.7705790  52.2545380  41.6462000  75.1790080  40.4737410  51.4345260
  74.5634350  40.9817080  50.9060720  74.8586500  39.5735740  51.3771200
  58.1815820  47.3155020  48.2611560  58.3446860  46.8460380  47.4430930
  58.6468270  46.8078580  48.9260400  62.9534590  36.4460780  43.2972130
  62.5102740  37.2270320  42.9656650  63.5119580  36.7690670  44.0043070
  67.2404400  39.3129300  48.9007450  66.7783770  39.5212320  49.7127390
  66.8382510  38.4988650  48.5978120  72.2408910  40.5338250  50.0304110
  71.3902500  40.2344000  50.3513180  72.0810700  40.7780260  49.1187930
  69.3358620  42.0340000  52.1302900  69.6612030  41.2003750  51.7905130
  70.1238950  42.5568520  52.2781230  66.0693410  36.0671480  38.1777960
  65.4447590  36.0631350  38.9031270  65.9823530  35.2002440  37.7813930
  64.9910490  36.9908110  45.1561730  65.2882820  37.8970940  45.0753750
  65.5396050  36.5026890  44.5421300  62.7448810  41.5694350  41.0253380
  62.5189730  41.3531520  41.9300000  61.9641340  42.0022810  40.6799350
  69.9746570  41.5757720  39.6244030  69.3755460  42.2993520  39.4407650
  70.5226180  41.5134500  38.8420480  65.1848020  42.4679930  51.6913650
  65.0891620  41.5274660  51.5414050  66.0280000  42.6895000  51.2961720
  68.5811440  40.2121260  41.6547310  68.9741010  40.5293460  40.8416000
  68.9428290  39.3333140  41.7691830  60.3158560  38.8793600  49.8447430
  59.9221950  39.7268810  50.0520210  59.6276960  38.2419970  50.0356070
  66.8903610  38.9628570  52.9144170  66.2001930  38.7700770  53.5490260
  67.6335910  39.2463210  53.4468470  57.6175610  36.8022060  43.8777510
  57.3288660  37.3724920  44.5902490  58.3621370  36.3226510  44.2408740
  57.8045840  40.7442180  35.0880230  57.7220510  41.6872940  35.2295220
  57.4528900  40.6017090  34.2092580  69.1666580  42.8027010  45.7498090
  68.4347700  43.3113820  46.0988190  68.7690920  41.9856990  45.4486870
  65.6043970  39.4781210  44.1550580  65.6080030  39.0371160  43.3055120
  66.4995090  39.7998540  44.2622400  61.4546350  39.3607700  43.1144790
  61.1146400  39.8382930  43.8711840  60.6923670  38.9072820  42.7545890
  65.6664120  40.4793290  37.1457340  65.7876940  40.4379770  38.0943160
  65.2812630  41.3417440  36.9904070  69.6292490  38.2560690  45.1621030
  69.6465230  38.7069340  46.0062880  69.3808070  37.3566330  45.3754470
  64.6785620  42.7894430  36.5440640  64.1102520  42.3412680  35.9176550
  65.3874620  43.1487210  36.0105790  73.0563240  35.6692870  51.0007410
  73.3809010  34.9382530  51.5265390  73.0919750  35.3506510  50.0988400
  59.7554800  46.6906450  50.4207370  59.3709590  46.0500120  51.0190330
  60.0666990  47.3942570  50.9902100  65.9051940  43.5382990  45.9015990
  66.2722070  43.0641560  46.6477330  65.7157000  44.4124560  46.2424330
  58.7692430  38.2826680  42.0309460  58.4839350  37.9182350  42.8688080
  58.7071290  37.5507140  41.4172600  63.6951310  42.5791630  48.2200200
  63.3908380  43.4583610  48.4450560  64.6497770  42.6391420  48.2557640
  62.2233100  46.7852620  38.8167050  61.4495360  46.2450240  38.6565770
  62.9527730  46.2659230  38.4784810  72.9821080  45.7817980  44.6093440
  73.7020200  46.2773270  44.2189550  72.7802900  45.1035870  43.9647310
  68.4431020  37.1755940  38.7522830  67.6295630  36.6769110  38.6768140
  68.2492970  38.0154190  38.3359180  68.3639880  45.8527040  50.4962440
  68.2977190  44.9322710  50.2420030  67.7345020  45.9502480  51.2107080
  71.1579410  41.5475590  37.0484990  72.0459030  41.8592820  36.8736330
  71.1284500  40.6747840  36.6565570  62.2670500  46.4533000  42.4545860
  62.7849170  45.6501260  42.4002750  61.8154520  46.3912140  43.2962690
  67.1540000  47.7199280  37.7273160  67.4955700  48.4641510  37.2316480
  66.3252710  48.0330400  38.0897990  59.7515040  43.4194370  49.3671560
  59.3929980  44.0848220  49.9544900  59.4569600  42.5877920  49.7384180
  62.9528160  43.8778610  52.2511110  62.6528300  44.0235790  51.3538930
  63.7239400  43.3183900  52.1584500  68.2956610  48.6747610  50.2466240
  68.3101150  47.7428570  50.0285150  67.5881710  48.7607370  50.8856010
  73.4293680  42.8587430  36.5164850  73.3457400  43.2901650  35.6661290
  74.1487870  43.3185780  36.9491670  74.5067820  45.3154950  49.5934820
  73.7816010  45.9083730  49.3964210  75.0343280  45.3078490  48.7948190
  74.4580930  49.7129690  39.2446980  73.8157090  49.0585310  39.5190700
  74.0711590  50.1184780  38.4687650  70.0367410  47.0415120  43.0918670
  70.3891230  46.4443250  42.4320040  69.1529740  46.7159350  43.2626920
  66.1230690  47.8012810  40.4989080  66.8101820  48.3482020  40.8796670
  65.3363110  48.3453540  40.5338690  58.2623090  43.4185630  35.9906160
  59.1317940  43.7010430  36.2742080  57.7713410  44.2321500  35.8754970
  65.4257900  44.8058840  40.1114440  65.8820680  45.6164090  40.3374630
  65.0746110  44.4881980  40.9432930  67.7290510  50.3165180  47.3406740
  68.3732730  50.5224560  48.0180160  68.0919950  49.5553580  46.8877590
  61.3269680  35.1496490  40.5836960  61.1984310  35.1414390  41.5321880
  60.5031700  35.4879580  40.2327970  69.0022590  48.3197530  46.0584190
  69.6444820  47.6190690  46.1716360  69.5271940  49.0995970  45.8781080
  72.8478310  48.6046150  35.7823330  72.6215890  47.8876590  36.3747970
  72.4574510  48.3558590  34.9445080  70.7760210  49.1192430  49.2620250
  71.1116450  49.7059120  49.9398170  69.8560550  48.9885140  49.4918040
  58.6294340  52.6313010  36.5567790  58.9891980  53.2302350  35.9025060
  58.4886680  53.1772900  37.3302820  58.3263610  36.9087610  50.0443660
  57.6122130  37.1084530  50.6496270  58.7458650  36.1327180  50.4158460
  72.4294560  46.5218090  37.4437490  72.1416260  46.9830780  38.2315370
  73.2246730  46.0615860  37.7121710  58.6136200  50.8967870  51.0310190
  58.7227320  49.9562610  50.8905580  57.9616760  51.1622620  50.3823920
  66.6048790  49.1683760  52.4308310  66.2845660  48.4493000  52.9754000
  65.9307150  49.8438830  52.5044370  64.6462960  50.0144210  37.3741460
  64.6373060  50.7473900  36.7585970  63.7261320  49.7675790  37.4668420
  60.2469600  45.2359100  38.1188220  59.6397550  45.9758000  38.1283520
  60.7218950  45.3258460  37.2926420  69.8202390  39.4009920  47.7945110
  70.1883210  38.5805130  48.1224680  68.9600590  39.4611810  48.2100760
  73.1864420  38.3566860  38.6032670  72.5577580  38.4612530  37.8890900
  72.6916340  38.5763640  39.3926550  67.6322560  50.0772450  36.0366650
  67.7334540  49.8736440  35.1068630  66.7324300  49.8230730  36.2414430
  65.1548450  40.6352810  40.0190550  64.4464600  41.1039150  40.4604160
  65.4392930  39.9774820  40.6535740  66.7804380  42.0549510  48.0183080
  67.2789630  42.5295330  48.6834930  66.9227330  41.1313030  48.2253110
  69.1863880  37.3603470  41.4586340  69.0631660  37.3789600  40.5095850
  70.1348440  37.4082410  41.5784740  66.2740670  52.5958770  40.7314320
  66.5282170  52.5580160  39.8093690  65.3253150  52.4692100  40.7242570
  63.3583470  38.9437890  37.3941260  64.2074000  39.3808040  37.3281450
  62.9914740  39.2558150  38.2213320  73.9871240  38.2717470  48.8611470
  73.4844840  39.0122870  49.2005280  74.8027900  38.6601470  48.5448260
  72.2793250  43.5150650  42.3072830  71.3383390  43.5300880  42.4820520
  72.5937320  42.7286610  42.7533130  62.2574890  45.1970250  35.8676790
  63.0238160  45.0851610  36.4302220  62.3349580  44.5008220  35.2153560
  60.9521650  42.6295320  36.5509680  61.0325240  41.6822830  36.6627080
  61.8441400  42.9602200  36.6570340  74.2818830  50.6859500  43.9827090
  74.4066250  51.5090670  44.4550900  75.1484390  50.4750230  43.6351240
  61.7536360  52.7790710  43.6544220  62.4898840  52.2306170  43.9252790
  62.1377280  53.6446720  43.5150210  58.6381840  48.8464280  39.5285730
  57.7121620  49.0885420  39.5191140  59.1038270  49.6738540  39.4070480
  60.7594640  51.9636780  52.8429800  61.5607370  52.2848830  53.2565200
  60.2446460  51.6032360  53.5649710  64.8638670  51.9521020  35.4769790
  65.6567280  52.2409850  35.0251580  64.3443020  51.5213190  34.7982270
  69.5959270  48.0716650  52.7905210  68.9897430  48.0948250  52.0500960
  69.2913380  47.3399690  53.3272460  71.0259640  51.7996940  51.4014620
  71.9781390  51.7154960  51.3514860  70.8787860  52.4638650  52.0748410
  73.9168840  51.1791150  36.9006530  73.6310350  50.7656290  36.0860710
  73.7188390  52.1078860  36.7807050  58.4792450  44.4510240  51.7865850
  58.9831470  43.8717520  52.3582080  57.7399870  44.7350470  52.3242220
  65.3816070  47.1724430  35.3412140  65.2766710  46.5576780  36.0673520
  65.2140290  46.6490320  34.5575150  65.5330390  45.8581230  51.3201370
  64.7676060  46.4266230  51.2356040  65.7146350  45.5657440  50.4269600
  68.6218800  46.2344460  35.9454130  68.0728900  46.6813760  36.5896870
  69.2438060  45.7293710  36.4691800  72.6753740  47.5886560  51.8776390
  73.4163210  47.9262320  51.3743850  71.9126420  47.7578620  51.3246160
  60.5115530  42.5939830  52.6815920  60.5520870  42.2953700  53.5901150
  61.3661030  42.9947440  52.5223440  64.2893920  45.1935380  37.8419430
  64.7110340  45.0275250  38.6850820  64.4144760  44.3835610  37.3474570
  62.4521340  41.1731930  50.6490410  61.9217800  40.6822880  50.0213750
  63.1209410  41.6016130  50.1148340  66.8021560  44.2172990  35.0896530
  67.3227220  43.5022010  34.7237680  67.4489960  44.8558860  35.3897040
  71.3499400  45.6401390  50.4131600  71.7640420  45.7946470  51.2622020
  70.4150400  45.7656610  50.5757380  71.8221570  42.9797550  52.4170750
  72.4042340  42.2249870  52.3291230  71.9983340  43.5104990  51.6402230
  62.9393640  38.1394300  50.7287700  62.8450510  37.5215050  50.0038570
  62.3591030  38.8660590  50.5017610  65.7055080  36.6967540  47.7615090
  65.2572380  36.7191800  46.9160640  65.0720280  36.2986560  48.3585390
  66.1114630  45.5921870  48.3827530  66.5302740  46.4354600  48.2103770
  65.1923260  45.7293910  48.1534310  68.4478530  43.3238050  49.7665370
  68.5674740  42.7279190  50.5060210  69.3072530  43.3607740  49.3466670
  70.7866430  43.8775240  48.3427880  70.2601650  44.4017860  47.7393020
  71.1297770  44.5102630  48.9737610  63.1852820  41.2668610  34.7877590
  62.9841880  40.4035970  35.1490930  63.0144870  41.1801970  33.8499190
  63.9622050  51.8974880  49.4985260  63.4243140  52.6220940  49.1793960
  64.2156010  51.4205220  48.7082600  65.2147300  39.8659400  51.0241190
  65.8046990  39.5575250  51.7119010  64.3967540  39.3939150  51.1801090
  70.0340730  39.4825210  51.2574210  69.3456250  38.8206750  51.1924200
  70.7546750  39.0363480  51.7022670  70.6641130  36.0776840  37.3164470
  70.9443420  35.2344740  37.6723890  69.8906860  36.3099950  37.8303220
  61.9835620  38.3669230  34.7755470  62.2861520  38.3736660  33.8674620
  62.7230210  38.0167090  35.2723130  66.8184260  53.1326090  49.7571910
  66.7442960  54.0361230  50.0644280  65.9163100  52.8137990  49.7293980
  65.2020550  37.3103850  35.7611670  64.8542550  36.6327840  35.1814120
  65.4033320  36.8493360  36.5755060  67.3669590  52.2984600  37.3798270
  68.2620380  52.6369570  37.4017030  67.3987220  51.5764010  36.7522550
  61.0065750  47.6711650  35.6085270  61.4440620  48.2141320  36.2642850
  61.4913480  46.8458600  35.6181610  58.2211550  50.4600680  43.0605530
  58.5514560  49.5921740  42.8284170  58.6502550  50.6659200  43.8910490
  62.8173470  48.7909690  40.7207500  62.5169010  48.6674660  41.6211410
  62.7110960  47.9318280  40.3123230  58.7101760  51.3271270  45.7987160
  58.2732750  51.5072070  46.6311310  59.2779440  52.0845890  45.6568880
  74.3463940  50.8288270  50.0864470  73.7465930  50.8880830  49.3428390
  74.4757840  49.8893250  50.2161320  75.5865390  48.5706090  35.4234180
  74.7558350  48.6382740  35.8941410  75.7637220  49.4610210  35.1201040
  75.0421850  45.3153570  37.9268380  75.8040760  45.8850220  38.0328070
  75.0576220  44.7480770  38.6976690  58.5426190  43.8391500  42.1576040
  57.8875030  43.5703140  41.5135740  59.3804140  43.7295980  41.7078020
  73.0315580  47.5540250  48.1840630  72.2175420  47.9837410  48.4466420
  73.4389780  48.1658660  47.5709680  75.0941020  45.6087940  35.0840900
  75.3689860  46.5166820  34.9560120  74.9051760  45.5450470  36.0202890
  71.4916630  38.6332790  36.3794530  71.9101510  38.4463770  35.5391190
  71.1852690  37.7811840  36.6897460  74.9906360  43.5456930  40.0770330
  74.6149960  42.7784860  39.6451620  74.2609480  43.9279630  40.5645260
  59.5802120  44.2244070  46.6979380  59.9475160  44.1371470  47.5775400
  59.0112940  43.4610620  46.5986240  74.3805980  42.6928450  49.7109850
  74.1492070  42.4641200  48.8107800  74.6410530  43.6128000  49.6654740
  59.1318120  41.1353160  50.6037800  58.2374170  41.1019920  50.9431510
  59.6715670  41.3339950  51.3689050  72.8194050  37.9184880  52.4889550
  73.6964230  37.9268280  52.8723550  72.8314890  37.1815720  51.8781900
  57.7564270  41.0490430  38.1001370  56.8528350  41.3120630  37.9253030
  58.2404890  41.3201600  37.3201330  74.2657320  41.7714420  43.3777570
  74.7894800  41.2777070  42.7467740  74.8516740  41.9064780  44.1225140
  74.4447040  41.8554290  46.8997120  73.4949750  41.8217830  47.0142110
  74.6260050  42.7654400  46.6646890  60.2991480  40.1055970  36.0095750
  61.0083180  39.6839190  35.5243030  59.5831420  40.1731200  35.3779100
  59.9465640  36.1595300  35.0498400  60.6693770  36.7004240  35.3679620
  60.2190160  35.8858720  34.1739940  73.7557290  41.0287770  39.3169980
  74.2516410  40.7958640  40.1018860  73.5573360  40.1899610  38.9007620
  59.6357830  35.4101490  44.9521020  60.2834020  34.8598870  44.5116180
  60.0559670  35.6644640  45.7736830  73.5310170  35.6042850  48.3090660
  74.1682390  36.2176990  48.6749850  73.6785060  35.6403510  47.3639890
  73.0891630  52.3058850  41.7108900  73.6850700  51.9843420  41.0343320
  73.3469780  51.8330670  42.5022170  59.3889830  35.5657160  47.6946340
  59.0404650  36.0220980  48.4604520  59.0577530  34.6714290  47.7768770
  60.9954200  48.7376760  51.8599530  60.9523830  48.3669670  52.7413990
  61.1265210  49.6754330  52.0001350  64.6960230  50.2936350  47.4609250
  64.4551590  50.5610910  46.5739770  65.6362870  50.4642080  47.5160110
  66.9014650  36.7569040  51.2165760  66.8403540  37.3490870  51.9661170
  67.8415030  36.6495000  51.0716020  69.5389210  36.4139100  50.8558050
  70.1529620  36.7318390  50.1939130  70.0838770  35.9287690  51.4753910
  60.0610470  35.0933360  50.9697110  60.6093460  34.9121410  50.2063220
  60.1265780  34.3027470  51.5053420  60.8342230  51.6839010  48.9797310
  60.2402550  51.5523710  49.7187350  60.8266070  50.8477150  48.5139410
  70.2797250  34.9771240  47.1827340  69.4057090  35.3106350  46.9800270
  70.1708000  34.5044420  48.0079210  71.1869230  37.1842110  48.5669060
  70.8582590  36.3693870  48.1870790  72.1351530  37.1411920  48.4434750
  73.6403840  52.9554150  45.5406630  73.1806810  53.7069960  45.1664650
  73.0116300  52.2360620  45.4821430  60.4654460  49.0497390  47.9305350
  59.7388520  48.4302680  47.8631300  60.5263610  49.4438000  47.0603430
  64.0699560  51.2642390  44.7154760  64.5864580  50.6529750  44.1903020
  64.7196940  51.7671170  45.2065770  66.8095060  52.1550880  45.5423740
  67.0972870  51.9005180  44.6656750  67.3218280  51.6028240  46.1329310
  68.0272070  35.8941080  46.1220250  67.2443860  36.3686580  46.4017010
  67.7335000  34.9895910  46.0133430  72.5793140  36.5964180  44.1669340
  73.0201230  36.5409280  43.3190940  72.3100730  37.5122190  44.2379520
  74.4431710  36.2279420  42.1778160  74.3820110  35.2840640  42.0309180
  75.2223740  36.3359510  42.7231620  58.7484460  52.3671780  41.1402110
  58.5806500  51.7342460  41.8384000  57.8818970  52.5731180  40.7896300
  59.3712480  36.1988560  38.6433970  60.1291840  36.3117440  38.0698000
  58.9089650  37.0357760  38.5977400  65.9126290  38.3127830  41.6336280
  65.1000800  37.9384720  41.2932160  66.4167930  37.5572910  41.9357470
  70.4151270  34.9770280  42.8719350  71.0180640  35.5490490  43.3467870
  69.6744260  35.5409720  42.6493250  73.5585870  35.3791840  38.1459630
  73.7536500  36.2775290  38.4127060  72.7715740  35.1478920  38.6392580
  60.3547160  51.0605010  38.5852250  59.8294780  51.4413040  37.8814210
  60.2791740  51.6855780  39.3061960  61.7437630  36.7252610  37.1835940
  62.2730390  35.9382410  37.0543890  62.3765950  37.4043800  37.4171470
  63.9375470  36.4627750  40.2381330  63.3078210  35.7615060  40.4051460
  63.3980610  37.2231880  40.0214490  66.8767420  53.0766980  52.9091940
  67.8034730  52.8411250  52.9527900  66.8617850  53.9038980  52.4277970
  75.1112480  52.6192550  39.9066190  75.2864670  51.9330290  39.2627110
  74.4134050  53.1439600  39.5142860  64.0631030  35.7411730  52.6733820
  63.7815300  36.2445330  51.9094640  64.4450730  34.9433480  52.3075950
  62.9540130  53.0087390  37.4601500  63.6858950  52.7246670  36.9125390
  63.2133800  52.7700670  38.3500880  62.1154920  49.1252120  37.4647830
  61.4863800  49.5937220  38.0133660  62.2302750  48.2801340  37.8994020
  70.6646490  35.1565310  53.2514290  70.5511940  35.4759920  54.1465810
  71.4816230  35.5577820  52.9551570  73.4444980  52.3036840  52.7332980
  74.2370300  51.8086070  52.5258940  73.7378130  52.9826980  53.3408590
  69.5704640  43.1757780  23.6149030  69.4898690  42.2612390  23.3440740
  69.1569060  43.6724850  22.9088740  67.7022680  44.9536800  25.4958300
  66.9264780  44.4737240  25.7856870  68.3535610  44.2742450  25.3214460
  61.7188510  45.2656610  26.3734060  60.8873390  45.0105320  26.7730570
  62.3269490  45.3367380  27.1091980  71.7230110  49.3596990  24.2757430
  71.2611640  48.5884230  24.6044600  72.5355660  49.3863060  24.7809880
  61.6989770  49.2996700  26.5692080  62.0017810  48.4094440  26.3902300
  62.4433360  49.8566920  26.3414330  60.1280460  40.2258500  20.1576450
  59.2397160  40.5674470  20.0556330  60.4121650  40.0258820  19.2657280
  58.0913470  42.8264150  26.0416150  58.6629580  42.0586350  26.0419790
  58.0915010  43.1252910  25.1322760  67.9493420  51.6455000  23.8961420
  67.3304860  52.1012500  23.3255860  68.8045200  51.8006460  23.4951120
  67.1431670  47.6293990  25.5028460  67.0739950  46.6883930  25.3417590
  67.9051530  47.7195400  26.0751030  59.3338340  38.2348510  27.8285080
  59.1541180  37.3374260  28.1087840  58.9318420  38.7820380  28.5032030
  68.1736840  40.4364370  25.7297390  68.5501660  39.5636250  25.6171060
  68.0756350  40.7723070  24.8387830  62.3041850  38.8090000  21.1914830
  62.4108600  39.7093730  21.4983590  61.3934210  38.7607970  20.9009480
  71.9560960  37.9314810  22.6625730  72.7770580  37.4411380  22.7051210
  71.9895040  38.5212470  23.4157570  59.9525010  40.7309010  26.4367420
  60.6335120  40.9947380  27.0554820  59.6373060  39.8909880  26.7705430
  64.1449580  41.7776370  25.5240010  64.6527800  42.2757340  26.1645030
  64.6762820  41.0011570  25.3479370  62.4285680  36.4174930  29.7903430
  62.4304120  36.9347320  28.9849330  61.5989990  35.9405110  29.7673360
  68.8156770  46.5294240  21.2893330  68.1974040  46.9943690  20.7256050
  69.3280020  47.2221720  21.7062840  63.6788530  46.0570110  27.9676930
  63.3457910  46.6839030  28.6098000  63.8555210  46.5831990  27.1878600
  72.1922440  39.8715190  25.4353270  71.4878010  40.1600080  26.0156380
  72.5534600  40.6815300  25.0752830  62.1101010  38.1284890  27.7973880
  62.4517820  38.9726940  27.5027750  61.1716820  38.2768630  27.9139220
  62.8907630  48.0250910  29.7826110  63.5081630  48.7001990  29.5010560
  62.0300750  48.4338890  29.6913610  58.1839970  47.2150770  18.6632960
  57.8067950  47.7037870  17.9317860  58.4413040  47.8876050  19.2939490
  73.8085220  49.4890320  27.6980750  73.1248740  50.1589430  27.6897420
  74.3479510  49.6870970  26.9325610  75.2609360  39.3169980  25.8262480
  74.3134270  39.3508960  25.9577910  75.5859350  40.1308930  26.2111840
  65.7928900  35.6167160  24.1218470  66.1003880  35.0614050  23.4053970
  64.8629600  35.7511620  23.9391460  71.3443960  51.3334450  26.4125930
  71.3571120  50.9296740  25.5448190  70.7919180  52.1081740  26.3087360
  72.6389380  48.0550670  21.5016100  72.5285710  47.1125000  21.6265520
  72.6357630  48.4166310  22.3878860  70.7429400  46.2364290  27.7408540
  71.1598190  46.0224400  26.9062000  71.4669220  46.4937080  28.3117160
  68.1809660  43.6815990  20.8578590  67.2538940  43.6153370  21.0867060
  68.3334480  44.6196120  20.7433830  68.1678740  39.9532990  17.8545750
  67.2282410  40.1146950  17.9398210  68.4862000  40.6718670  17.3081740
  74.6891500  44.6351510  27.8324780  73.8610130  44.7044600  27.3574910
  75.2841980  45.2205820  27.3640610  72.2106950  45.2436290  21.3613840
  71.5919370  44.9055840  20.7140140  72.1931400  44.5996050  22.0693030
  71.6533510  41.4220830  28.7779650  71.2404690  42.2474540  29.0319640
  70.9209460  40.8365870  28.5856010  63.7866300  44.2080730  23.6398320
  63.3823300  43.4957980  23.1444220  63.8729420  43.8633970  24.5286360
  64.2548000  47.8948290  25.8037530  63.9576290  47.2893760  25.1245310
  65.2047820  47.9325600  25.6926890  62.4994920  40.9823940  27.4197360
  63.0509510  41.0919280  26.6450610  63.0138430  41.3561540  28.1352590
  72.3433610  51.4680160  29.4660630  71.8664170  52.2752350  29.2733240
  71.6595400  50.8158490  29.6186840  63.3466430  47.6329980  32.4545330
  62.4494960  47.8569950  32.7018730  63.3719300  47.7564920  31.5056730
  70.3871650  44.4823100  18.3686590  70.8264930  43.6445530  18.2224410
  71.1000070  45.1152500  18.4550730  62.1737650  44.5043300  31.0302700
  62.0345420  45.3766100  31.3990100  61.2919010  44.1616110  30.8850640
  68.4967030  49.4219170  22.3367830  68.9362940  50.1643500  21.9223220
  68.4353920  49.6645740  23.2606790  63.9718000  50.4465000  33.2387850
  63.9433430  50.8507950  32.3716280  63.8082970  49.5175360  33.0759450
  73.9688790  35.7365910  16.6827630  73.6561450  35.8292740  17.5826700
  74.7301260  36.3146940  16.6325060  60.4870930  43.1025710  21.1404970
  60.3668530  43.8287800  20.5286240  60.1771820  42.3328620  20.6632880
  58.1256300  46.2740850  26.9473610  58.2036720  46.4089620  26.0029330
  58.7397980  45.5656740  27.1401730  59.3703930  47.9741040  23.3579790
  58.9632010  48.1155630  22.5033390  60.2616940  47.6901200  23.1551000
  75.3266070  48.4204950  31.6952030  75.4529130  48.1816830  30.7769210
  75.3687450  47.5889490  32.1674110  69.1882810  52.1232950  30.2646840
  69.7027480  52.0340960  31.0669270  68.3451890  52.4692650  30.5574750
  71.1637210  52.4088290  19.6930840  71.0038350  52.1191230  20.5912670
  70.9983920  51.6328420  19.1576070  63.6425590  52.1886820  21.4702460
  63.4668070  51.2722360  21.2570260  62.7881330  52.5474110  21.7100260
  70.8663340  49.9175850  18.2528840  70.1728500  49.9153140  17.5931120
  71.6086200  49.4935170  17.8223010  70.4313270  51.5438560  22.3277330
  70.8870220  50.7627940  22.6415950  70.7705790  52.2545380  22.8718510
  75.1790080  40.4737410  32.6601770  74.5634350  40.9817080  32.1317230
  74.8586500  39.5735740  32.6027710  58.1815820  47.3155020  29.4868070
  58.3446860  46.8460380  28.6687440  58.6468270  46.8078580  30.1516910
  62.9534590  36.4460780  24.5228640  62.5102740  37.2270320  24.1913160
  63.5119580  36.7690670  25.2299580  67.2404400  39.3129300  30.1263960
  66.7783770  39.5212320  30.9383900  66.8382510  38.4988650  29.8234630
  72.2408910  40.5338250  31.2560620  71.3902500  40.2344000  31.5769690
  72.0810700  40.7780260  30.3444440  69.3358620  42.0340000  33.3559410
  69.6612030  41.2003750  33.0161640  70.1238950  42.5568520  33.5037740
  66.0693410  36.0671480  19.4034470  65.4447590  36.0631350  20.1287780
  65.9823530  35.2002440  19.0070440  64.9910490  36.9908110  26.3818240
  65.2882820  37.8970940  26.3010260  65.5396050  36.5026890  25.7677810
  62.7448810  41.5694350  22.2509890  62.5189730  41.3531520  23.1556510
  61.9641340  42.0022810  21.9055860  69.9746570  41.5757720  20.8500540
  69.3755460  42.2993520  20.6664160  70.5226180  41.5134500  20.0676990
  65.1848020  42.4679930  32.9170160  65.0891620  41.5274660  32.7670560
  66.0280000  42.6895000  32.5218230  68.5811440  40.2121260  22.8803820
  68.9741010  40.5293460  22.0672510  68.9428290  39.3333140  22.9948340
  60.3158560  38.8793600  31.0703940  59.9221950  39.7268810  31.2776720
  59.6276960  38.2419970  31.2612580  66.8903610  38.9628570  34.1400680
  66.2001930  38.7700770  34.7746770  67.6335910  39.2463210  34.6724980
  57.6175610  36.8022060  25.1034020  57.3288660  37.3724920  25.8159000
  58.3621370  36.3226510  25.4665250  57.8045840  40.7442180  16.3136740
  57.7220510  41.6872940  16.4551730  57.4528900  40.6017090  15.4349090
  69.1666580  42.8027010  26.9754600  68.4347700  43.3113820  27.3244700
  68.7690920  41.9856990  26.6743380  65.6043970  39.4781210  25.3807090
  65.6080030  39.0371160  24.5311630  66.4995090  39.7998540  25.4878910
  61.4546350  39.3607700  24.3401300  61.1146400  39.8382930  25.0968350
  60.6923670  38.9072820  23.9802400  65.6664120  40.4793290  18.3713850
  65.7876940  40.4379770  19.3199670  65.2812630  41.3417440  18.2160580
  69.6292490  38.2560690  26.3877540  69.6465230  38.7069340  27.2319390
  69.3808070  37.3566330  26.6010980  64.6785620  42.7894430  17.7697150
  64.1102520  42.3412680  17.1433060  65.3874620  43.1487210  17.2362300
  73.0563240  35.6692870  32.2263920  73.3809010  34.9382530  32.7521900
  73.0919750  35.3506510  31.3244910  59.7554800  46.6906450  31.6463880
  59.3709590  46.0500120  32.2446840  60.0666990  47.3942570  32.2158610
  65.9051940  43.5382990  27.1272500  66.2722070  43.0641560  27.8733840
  65.7157000  44.4124560  27.4680840  58.7692430  38.2826680  23.2565970
  58.4839350  37.9182350  24.0944590  58.7071290  37.5507140  22.6429110
  63.6951310  42.5791630  29.4456710  63.3908380  43.4583610  29.6707070
  64.6497770  42.6391420  29.4814150  62.2233100  46.7852620  20.0423560
  61.4495360  46.2450240  19.8822280  62.9527730  46.2659230  19.7041320
  72.9821080  45.7817980  25.8349950  73.7020200  46.2773270  25.4446060
  72.7802900  45.1035870  25.1903820  68.4431020  37.1755940  19.9779340
  67.6295630  36.6769110  19.9024650  68.2492970  38.0154190  19.5615690
  68.3639880  45.8527040  31.7218950  68.2977190  44.9322710  31.4676540
  67.7345020  45.9502480  32.4363590  71.1579410  41.5475590  18.2741500
  72.0459030  41.8592820  18.0992840  71.1284500  40.6747840  17.8822080
  62.2670500  46.4533000  23.6802370  62.7849170  45.6501260  23.6259260
  61.8154520  46.3912140  24.5219200  67.1540000  47.7199280  18.9529670
  67.4955700  48.4641510  18.4572990  66.3252710  48.0330400  19.3154500
  59.7515040  43.4194370  30.5928070  59.3929980  44.0848220  31.1801410
  59.4569600  42.5877920  30.9640690  62.9528160  43.8778610  33.4767620
  62.6528300  44.0235790  32.5795440  63.7239400  43.3183900  33.3841010
  68.2956610  48.6747610  31.4722750  68.3101150  47.7428570  31.2541660
  67.5881710  48.7607370  32.1112520  73.4293680  42.8587430  17.7421360
  73.3457400  43.2901650  16.8917800  74.1487870  43.3185780  18.1748180
  74.5067820  45.3154950  30.8191330  73.7816010  45.9083730  30.6220720
  75.0343280  45.3078490  30.0204700  74.4580930  49.7129690  20.4703490
  73.8157090  49.0585310  20.7447210  74.0711590  50.1184780  19.6944160
  70.0367410  47.0415120  24.3175180  70.3891230  46.4443250  23.6576550
  69.1529740  46.7159350  24.4883430  66.1230690  47.8012810  21.7245590
  66.8101820  48.3482020  22.1053180  65.3363110  48.3453540  21.7595200
  58.2623090  43.4185630  17.2162670  59.1317940  43.7010430  17.4998590
  57.7713410  44.2321500  17.1011480  65.4257900  44.8058840  21.3370950
  65.8820680  45.6164090  21.5631140  65.0746110  44.4881980  22.1689440
  67.7290510  50.3165180  28.5663250  68.3732730  50.5224560  29.2436670
  68.0919950  49.5553580  28.1134100  61.3269680  35.1496490  21.8093470
  61.1984310  35.1414390  22.7578390  60.5031700  35.4879580  21.4584480
  69.0022590  48.3197530  27.2840700  69.6444820  47.6190690  27.3972870
  69.5271940  49.0995970  27.1037590  72.8478310  48.6046150  17.0079840
  72.6215890  47.8876590  17.6004480  72.4574510  48.3558590  16.1701590
  70.7760210  49.1192430  30.4876760  71.1116450  49.7059120  31.1654680
  69.8560550  48.9885140  30.7174550  58.6294340  52.6313010  17.7824300
  58.9891980  53.2302350  17.1281570  58.4886680  53.1772900  18.5559330
  58.3263610  36.9087610  31.2700170  57.6122130  37.1084530  31.8752780
  58.7458650  36.1327180  31.6414970  72.4294560  46.5218090  18.6694000
  72.1416260  46.9830780  19.4571880  73.2246730  46.0615860  18.9378220
  58.6136200  50.8967870  32.2566700  58.7227320  49.9562610  32.1162090
  57.9616760  51.1622620  31.6080430  66.6048790  49.1683760  33.6564820
  66.2845660  48.4493000  34.2010510  65.9307150  49.8438830  33.7300880
  64.6462960  50.0144210  18.5997970  64.6373060  50.7473900  17.9842480
  63.7261320  49.7675790  18.6924930  60.2469600  45.2359100  19.3444730
  59.6397550  45.9758000  19.3540030  60.7218950  45.3258460  18.5182930
  69.8202390  39.4009920  29.0201620  70.1883210  38.5805130  29.3481190
  68.9600590  39.4611810  29.4357270  73.1864420  38.3566860  19.8289180
  72.5577580  38.4612530  19.1147410  72.6916340  38.5763640  20.6183060
  67.6322560  50.0772450  17.2623160  67.7334540  49.8736440  16.3325140
  66.7324300  49.8230730  17.4670940  65.1548450  40.6352810  21.2447060
  64.4464600  41.1039150  21.6860670  65.4392930  39.9774820  21.8792250
  66.7804380  42.0549510  29.2439590  67.2789630  42.5295330  29.9091440
  66.9227330  41.1313030  29.4509620  69.1863880  37.3603470  22.6842850
  69.0631660  37.3789600  21.7352360  70.1348440  37.4082410  22.8041250
  66.2740670  52.5958770  21.9570830  66.5282170  52.5580160  21.0350200
  65.3253150  52.4692100  21.9499080  63.3583470  38.9437890  18.6197770
  64.2074000  39.3808040  18.5537960  62.9914740  39.2558150  19.4469830
  73.9871240  38.2717470  30.0867980  73.4844840  39.0122870  30.4261790
  74.8027900  38.6601470  29.7704770  72.2793250  43.5150650  23.5329340
  71.3383390  43.5300880  23.7077030  72.5937320  42.7286610  23.9789640
  62.2574890  45.1970250  17.0933300  63.0238160  45.0851610  17.6558730
  62.3349580  44.5008220  16.4410070  60.9521650  42.6295320  17.7766190
  61.0325240  41.6822830  17.8883590  61.8441400  42.9602200  17.8826850
  74.2818830  50.6859500  25.2083600  74.4066250  51.5090670  25.6807410
  75.1484390  50.4750230  24.8607750  61.7536360  52.7790710  24.8800730
  62.4898840  52.2306170  25.1509300  62.1377280  53.6446720  24.7406720
  58.6381840  48.8464280  20.7542240  57.7121620  49.0885420  20.7447650
  59.1038270  49.6738540  20.6326990  60.7594640  51.9636780  34.0686310
  61.5607370  52.2848830  34.4821710  60.2446460  51.6032360  34.7906220
  64.8638670  51.9521020  16.7026300  65.6567280  52.2409850  16.2508090
  64.3443020  51.5213190  16.0238780  69.5959270  48.0716650  34.0161720
  68.9897430  48.0948250  33.2757470  69.2913380  47.3399690  34.5528970
  71.0259640  51.7996940  32.6271130  71.9781390  51.7154960  32.5771370
  70.8787860  52.4638650  33.3004920  73.9168840  51.1791150  18.1263040
  73.6310350  50.7656290  17.3117220  73.7188390  52.1078860  18.0063560
  58.4792450  44.4510240  33.0122360  58.9831470  43.8717520  33.5838590
  57.7399870  44.7350470  33.5498730  65.3816070  47.1724430  16.5668650
  65.2766710  46.5576780  17.2930030  65.2140290  46.6490320  15.7831660
  65.5330390  45.8581230  32.5457880  64.7676060  46.4266230  32.4612550
  65.7146350  45.5657440  31.6526110  68.6218800  46.2344460  17.1710640
  68.0728900  46.6813760  17.8153380  69.2438060  45.7293710  17.6948310
  72.6753740  47.5886560  33.1032900  73.4163210  47.9262320  32.6000360
  71.9126420  47.7578620  32.5502670  60.5115530  42.5939830  33.9072430
  60.5520870  42.2953700  34.8157660  61.3661030  42.9947440  33.7479950
  64.2893920  45.1935380  19.0675940  64.7110340  45.0275250  19.9107330
  64.4144760  44.3835610  18.5731080  62.4521340  41.1731930  31.8746920
  61.9217800  40.6822880  31.2470260  63.1209410  41.6016130  31.3404850
  66.8021560  44.2172990  16.3153040  67.3227220  43.5022010  15.9494190
  67.4489960  44.8558860  16.6153550  71.3499400  45.6401390  31.6388110
  71.7640420  45.7946470  32.4878530  70.4150400  45.7656610  31.8013890
  71.8221570  42.9797550  33.6427260  72.4042340  42.2249870  33.5547740
  71.9983340  43.5104990  32.8658740  62.9393640  38.1394300  31.9544210
  62.8450510  37.5215050  31.2295080  62.3591030  38.8660590  31.7274120
  65.7055080  36.6967540  28.9871600  65.2572380  36.7191800  28.1417150
  65.0720280  36.2986560  29.5841900  66.1114630  45.5921870  29.6084040
  66.5302740  46.4354600  29.4360280  65.1923260  45.7293910  29.3790820
  68.4478530  43.3238050  30.9921880  68.5674740  42.7279190  31.7316720
  69.3072530  43.3607740  30.5723180  70.7866430  43.8775240  29.5684390
  70.2601650  44.4017860  28.9649530  71.1297770  44.5102630  30.1994120
  63.1852820  41.2668610  16.0134100  62.9841880  40.4035970  16.3747440
  63.0144870  41.1801970  15.0755700  63.9622050  51.8974880  30.7241770
  63.4243140  52.6220940  30.4050470  64.2156010  51.4205220  29.9339110
  65.2147300  39.8659400  32.2497700  65.8046990  39.5575250  32.9375520
  64.3967540  39.3939150  32.4057600  70.0340730  39.4825210  32.4830720
  69.3456250  38.8206750  32.4180710  70.7546750  39.0363480  32.9279180
  70.6641130  36.0776840  18.5420980  70.9443420  35.2344740  18.8980400
  69.8906860  36.3099950  19.0559730  61.9835620  38.3669230  16.0011980
  62.2861520  38.3736660  15.0931130  62.7230210  38.0167090  16.4979640
  66.8184260  53.1326090  30.9828420  66.7442960  54.0361230  31.2900790
  65.9163100  52.8137990  30.9550490  65.2020550  37.3103850  16.9868180
  64.8542550  36.6327840  16.4070630  65.4033320  36.8493360  17.8011570
  67.3669590  52.2984600  18.6054780  68.2620380  52.6369570  18.6273540
  67.3987220  51.5764010  17.9779060  61.0065750  47.6711650  16.8341780
  61.4440620  48.2141320  17.4899360  61.4913480  46.8458600  16.8438120
  58.2211550  50.4600680  24.2862040  58.5514560  49.5921740  24.0540680
  58.6502550  50.6659200  25.1167000  62.8173470  48.7909690  21.9464010
  62.5169010  48.6674660  22.8467920  62.7110960  47.9318280  21.5379740
  58.7101760  51.3271270  27.0243670  58.2732750  51.5072070  27.8567820
  59.2779440  52.0845890  26.8825390  74.3463940  50.8288270  31.3120980
  73.7465930  50.8880830  30.5684900  74.4757840  49.8893250  31.4417830
  75.5865390  48.5706090  16.6490690  74.7558350  48.6382740  17.1197920
  75.7637220  49.4610210  16.3457550  75.0421850  45.3153570  19.1524890
  75.8040760  45.8850220  19.2584580  75.0576220  44.7480770  19.9233200
  58.5426190  43.8391500  23.3832550  57.8875030  43.5703140  22.7392250
  59.3804140  43.7295980  22.9334530  73.0315580  47.5540250  29.4097140
  72.2175420  47.9837410  29.6722930  73.4389780  48.1658660  28.7966190
  75.0941020  45.6087940  16.3097410  75.3689860  46.5166820  16.1816630
  74.9051760  45.5450470  17.2459400  71.4916630  38.6332790  17.6051040
  71.9101510  38.4463770  16.7647700  71.1852690  37.7811840  17.9153970
  74.9906360  43.5456930  21.3026840  74.6149960  42.7784860  20.8708130
  74.2609480  43.9279630  21.7901770  59.5802120  44.2244070  27.9235890
  59.9475160  44.1371470  28.8031910  59.0112940  43.4610620  27.8242750
  74.3805980  42.6928450  30.9366360  74.1492070  42.4641200  30.0364310
  74.6410530  43.6128000  30.8911250  59.1318120  41.1353160  31.8294310
  58.2374170  41.1019920  32.1688020  59.6715670  41.3339950  32.5945560
  72.8194050  37.9184880  33.7146060  73.6964230  37.9268280  34.0980060
  72.8314890  37.1815720  33.1038410  57.7564270  41.0490430  19.3257880
  56.8528350  41.3120630  19.1509540  58.2404890  41.3201600  18.5457840
  74.2657320  41.7714420  24.6034080  74.7894800  41.2777070  23.9724250
  74.8516740  41.9064780  25.3481650  74.4447040  41.8554290  28.1253630
  73.4949750  41.8217830  28.2398620  74.6260050  42.7654400  27.8903400
  60.2991480  40.1055970  17.2352260  61.0083180  39.6839190  16.7499540
  59.5831420  40.1731200  16.6035610  59.9465640  36.1595300  16.2754910
  60.6693770  36.7004240  16.5936130  60.2190160  35.8858720  15.3996450
  73.7557290  41.0287770  20.5426490  74.2516410  40.7958640  21.3275370
  73.5573360  40.1899610  20.1264130  59.6357830  35.4101490  26.1777530
  60.2834020  34.8598870  25.7372690  60.0559670  35.6644640  26.9993340
  73.5310170  35.6042850  29.5347170  74.1682390  36.2176990  29.9006360
  73.6785060  35.6403510  28.5896400  73.0891630  52.3058850  22.9365410
  73.6850700  51.9843420  22.2599830  73.3469780  51.8330670  23.7278680
  59.3889830  35.5657160  28.9202850  59.0404650  36.0220980  29.6861030
  59.0577530  34.6714290  29.0025280  60.9954200  48.7376760  33.0856040
  60.9523830  48.3669670  33.9670500  61.1265210  49.6754330  33.2257860
  64.6960230  50.2936350  28.6865760  64.4551590  50.5610910  27.7996280
  65.6362870  50.4642080  28.7416620  66.9014650  36.7569040  32.4422270
  66.8403540  37.3490870  33.1917680  67.8415030  36.6495000  32.2972530
  69.5389210  36.4139100  32.0814560  70.1529620  36.7318390  31.4195640
  70.0838770  35.9287690  32.7010420  60.0610470  35.0933360  32.1953620
  60.6093460  34.9121410  31.4319730  60.1265780  34.3027470  32.7309930
  60.8342230  51.6839010  30.2053820  60.2402550  51.5523710  30.9443860
  60.8266070  50.8477150  29.7395920  70.2797250  34.9771240  28.4083850
  69.4057090  35.3106350  28.2056780  70.1708000  34.5044420  29.2335720
  71.1869230  37.1842110  29.7925570  70.8582590  36.3693870  29.4127300
  72.1351530  37.1411920  29.6691260  73.6403840  52.9554150  26.7663140
  73.1806810  53.7069960  26.3921160  73.0116300  52.2360620  26.7077940
  60.4654460  49.0497390  29.1561860  59.7388520  48.4302680  29.0887810
  60.5263610  49.4438000  28.2859940  64.0699560  51.2642390  25.9411270
  64.5864580  50.6529750  25.4159530  64.7196940  51.7671170  26.4322280
  66.8095060  52.1550880  26.7680250  67.0972870  51.9005180  25.8913260
  67.3218280  51.6028240  27.3585820  68.0272070  35.8941080  27.3476760
  67.2443860  36.3686580  27.6273520  67.7335000  34.9895910  27.2389940
  72.5793140  36.5964180  25.3925850  73.0201230  36.5409280  24.5447450
  72.3100730  37.5122190  25.4636030  74.4431710  36.2279420  23.4034670
  74.3820110  35.2840640  23.2565690  75.2223740  36.3359510  23.9488130
  58.7484460  52.3671780  22.3658620  58.5806500  51.7342460  23.0640510
  57.8818970  52.5731180  22.0152810  59.3712480  36.1988560  19.8690480
  60.1291840  36.3117440  19.2954510  58.9089650  37.0357760  19.8233910
  65.9126290  38.3127830  22.8592790  65.1000800  37.9384720  22.5188670
  66.4167930  37.5572910  23.1613980  70.4151270  34.9770280  24.0975860
  71.0180640  35.5490490  24.5724380  69.6744260  35.5409720  23.8749760
  73.5585870  35.3791840  19.3716140  73.7536500  36.2775290  19.6383570
  72.7715740  35.1478920  19.8649090  60.3547160  51.0605010  19.8108760
  59.8294780  51.4413040  19.1070720  60.2791740  51.6855780  20.5318470
  61.7437630  36.7252610  18.4092450  62.2730390  35.9382410  18.2800400
  62.3765950  37.4043800  18.6427980  63.9375470  36.4627750  21.4637840
  63.3078210  35.7615060  21.6307970  63.3980610  37.2231880  21.2471000
  66.8767420  53.0766980  34.1348450  67.8034730  52.8411250  34.1784410
  66.8617850  53.9038980  33.6534480  75.1112480  52.6192550  21.1322700
  75.2864670  51.9330290  20.4883620  74.4134050  53.1439600  20.7399370
  64.0631030  35.7411730  33.8990330  63.7815300  36.2445330  33.1351150
  64.4450730  34.9433480  33.5332460  62.9540130  53.0087390  18.6858010
  63.6858950  52.7246670  18.1381900  63.2133800  52.7700670  19.5757390
  62.1154920  49.1252120  18.6904340  61.4863800  49.5937220  19.2390170
  62.2302750  48.2801340  19.1250530  70.6646490  35.1565310  34.4770800
  70.5511940  35.4759920  35.3722320  71.4816230  35.5577820  34.1808080
  73.4444980  52.3036840  33.9589490  74.2370300  51.8086070  33.7515450
  73.7378130  52.9826980  34.5665100  69.5704640  43.1757780   4.8405540
  69.4898690  42.2612390   4.5697250  69.1569060  43.6724850   4.1345250
  67.7022680  44.9536800   6.7214810  66.9264780  44.4737240   7.0113380
  68.3535610  44.2742450   6.5470970  61.7188510  45.2656610   7.5990570
  60.8873390  45.0105320   7.9987080  62.3269490  45.3367380   8.3348490
  71.7230110  49.3596990   5.5013940  71.2611640  48.5884230   5.8301110
  72.5355660  49.3863060   6.0066390  61.6989770  49.2996700   7.7948590
  62.0017810  48.4094440   7.6158810  62.4433360  49.8566920   7.5670840
  58.0913470  42.8264150   7.2672660  58.6629580  42.0586350   7.2676300
  58.0915010  43.1252910   6.3579270  67.9493420  51.6455000   5.1217930
  67.3304860  52.1012500   4.5512370  68.8045200  51.8006460   4.7207630
  67.1431670  47.6293990   6.7284970  67.0739950  46.6883930   6.5674100
  67.9051530  47.7195400   7.3007540  59.3338340  38.2348510   9.0541590
  59.1541180  37.3374260   9.3344350  58.9318420  38.7820380   9.7288540
  68.1736840  40.4364370   6.9553900  68.5501660  39.5636250   6.8427570
  68.0756350  40.7723070   6.0644340  62.3041850  38.8090000   2.4171340
  62.4108600  39.7093730   2.7240100  61.3934210  38.7607970   2.1265990
  71.9560960  37.9314810   3.8882240  72.7770580  37.4411380   3.9307720
  71.9895040  38.5212470   4.6414080  59.9525010  40.7309010   7.6623930
  60.6335120  40.9947380   8.2811330  59.6373060  39.8909880   7.9961940
  64.1449580  41.7776370   6.7496520  64.6527800  42.2757340   7.3901540
  64.6762820  41.0011570   6.5735880  62.4285680  36.4174930  11.0159940
  62.4304120  36.9347320  10.2105840  61.5989990  35.9405110  10.9929870
  68.8156770  46.5294240   2.5149840  68.1974040  46.9943690   1.9512560
  69.3280020  47.2221720   2.9319350  63.6788530  46.0570110   9.1933440
  63.3457910  46.6839030   9.8354510  63.8555210  46.5831990   8.4135110
  72.1922440  39.8715190   6.6609780  71.4878010  40.1600080   7.2412890
  72.5534600  40.6815300   6.3009340  62.1101010  38.1284890   9.0230390
  62.4517820  38.9726940   8.7284260  61.1716820  38.2768630   9.1395730
  62.8907630  48.0250910  11.0082620  63.5081630  48.7001990  10.7267070
  62.0300750  48.4338890  10.9170120  73.8085220  49.4890320   8.9237260
  73.1248740  50.1589430   8.9153930  74.3479510  49.6870970   8.1582120
  75.2609360  39.3169980   7.0518990  74.3134270  39.3508960   7.1834420
  75.5859350  40.1308930   7.4368350  65.7928900  35.6167160   5.3474980
  66.1003880  35.0614050   4.6310480  64.8629600  35.7511620   5.1647970
  71.3443960  51.3334450   7.6382440  71.3571120  50.9296740   6.7704700
  70.7919180  52.1081740   7.5343870  72.6389380  48.0550670   2.7272610
  72.5285710  47.1125000   2.8522030  72.6357630  48.4166310   3.6135370
  70.7429400  46.2364290   8.9665050  71.1598190  46.0224400   8.1318510
  71.4669220  46.4937080   9.5373670  68.1809660  43.6815990   2.0835100
  67.2538940  43.6153370   2.3123570  68.3334480  44.6196120   1.9690340
  74.6891500  44.6351510   9.0581290  73.8610130  44.7044600   8.5831420
  75.2841980  45.2205820   8.5897120  72.2106950  45.2436290   2.5870350
  71.5919370  44.9055840   1.9396650  72.1931400  44.5996050   3.2949540
  71.6533510  41.4220830  10.0036160  71.2404690  42.2474540  10.2576150
  70.9209460  40.8365870   9.8112520  63.7866300  44.2080730   4.8654830
  63.3823300  43.4957980   4.3700730  63.8729420  43.8633970   5.7542870
  64.2548000  47.8948290   7.0294040  63.9576290  47.2893760   6.3501820
  65.2047820  47.9325600   6.9183400  62.4994920  40.9823940   8.6453870
  63.0509510  41.0919280   7.8707120  63.0138430  41.3561540   9.3609100
  72.3433610  51.4680160  10.6917140  71.8664170  52.2752350  10.4989750
  71.6595400  50.8158490  10.8443350  63.3466430  47.6329980  13.6801840
  62.4494960  47.8569950  13.9275240  63.3719300  47.7564920  12.7313240
  62.1737650  44.5043300  12.2559210  62.0345420  45.3766100  12.6246610
  61.2919010  44.1616110  12.1107150  68.4967030  49.4219170   3.5624340
  68.9362940  50.1643500   3.1479730  68.4353920  49.6645740   4.4863300
  63.9718000  50.4465000  14.4644360  63.9433430  50.8507950  13.5972790
  63.8082970  49.5175360  14.3015960  60.4870930  43.1025710   2.3661480
  60.3668530  43.8287800   1.7542750  60.1771820  42.3328620   1.8889390
  58.1256300  46.2740850   8.1730120  58.2036720  46.4089620   7.2285840
  58.7397980  45.5656740   8.3658240  59.3703930  47.9741040   4.5836300
  58.9632010  48.1155630   3.7289900  60.2616940  47.6901200   4.3807510
  75.3266070  48.4204950  12.9208540  75.4529130  48.1816830  12.0025720
  75.3687450  47.5889490  13.3930620  69.1882810  52.1232950  11.4903350
  69.7027480  52.0340960  12.2925780  68.3451890  52.4692650  11.7831260
  63.6425590  52.1886820   2.6958970  63.4668070  51.2722360   2.4826770
  62.7881330  52.5474110   2.9356770  70.4313270  51.5438560   3.5533840
  70.8870220  50.7627940   3.8672460  70.7705790  52.2545380   4.0975020
  75.1790080  40.4737410  13.8858280  74.5634350  40.9817080  13.3573740
  74.8586500  39.5735740  13.8284220  58.1815820  47.3155020  10.7124580
  58.3446860  46.8460380   9.8943950  58.6468270  46.8078580  11.3773420
  62.9534590  36.4460780   5.7485150  62.5102740  37.2270320   5.4169670
  63.5119580  36.7690670   6.4556090  67.2404400  39.3129300  11.3520470
  66.7783770  39.5212320  12.1640410  66.8382510  38.4988650  11.0491140
  72.2408910  40.5338250  12.4817130  71.3902500  40.2344000  12.8026200
  72.0810700  40.7780260  11.5700950  69.3358620  42.0340000  14.5815920
  69.6612030  41.2003750  14.2418150  70.1238950  42.5568520  14.7294250
  64.9910490  36.9908110   7.6074750  65.2882820  37.8970940   7.5266770
  65.5396050  36.5026890   6.9934320  62.7448810  41.5694350   3.4766400
  62.5189730  41.3531520   4.3813020  61.9641340  42.0022810   3.1312370
  69.9746570  41.5757720   2.0757050  69.3755460  42.2993520   1.8920670
  70.5226180  41.5134500   1.2933500  65.1848020  42.4679930  14.1426670
  65.0891620  41.5274660  13.9927070  66.0280000  42.6895000  13.7474740
  68.5811440  40.2121260   4.1060330  68.9741010  40.5293460   3.2929020
  68.9428290  39.3333140   4.2204850  60.3158560  38.8793600  12.2960450
  59.9221950  39.7268810  12.5033230  59.6276960  38.2419970  12.4869090
  66.8903610  38.9628570  15.3657190  66.2001930  38.7700770  16.0003280
  67.6335910  39.2463210  15.8981490  57.6175610  36.8022060   6.3290530
  57.3288660  37.3724920   7.0415510  58.3621370  36.3226510   6.6921760
  69.1666580  42.8027010   8.2011110  68.4347700  43.3113820   8.5501210
  68.7690920  41.9856990   7.8999890  65.6043970  39.4781210   6.6063600
  65.6080030  39.0371160   5.7568140  66.4995090  39.7998540   6.7135420
  61.4546350  39.3607700   5.5657810  61.1146400  39.8382930   6.3224860
  60.6923670  38.9072820   5.2058910  69.6292490  38.2560690   7.6134050
  69.6465230  38.7069340   8.4575900  69.3808070  37.3566330   7.8267490
  73.0563240  35.6692870  13.4520430  73.3809010  34.9382530  13.9778410
  73.0919750  35.3506510  12.5501420  59.7554800  46.6906450  12.8720390
  59.3709590  46.0500120  13.4703350  60.0666990  47.3942570  13.4415120
  65.9051940  43.5382990   8.3529010  66.2722070  43.0641560   9.0990350
  65.7157000  44.4124560   8.6937350  58.7692430  38.2826680   4.4822480
  58.4839350  37.9182350   5.3201100  58.7071290  37.5507140   3.8685620
  63.6951310  42.5791630  10.6713220  63.3908380  43.4583610  10.8963580
  64.6497770  42.6391420  10.7070660  72.9821080  45.7817980   7.0606460
  73.7020200  46.2773270   6.6702570  72.7802900  45.1035870   6.4160330
  68.3639880  45.8527040  12.9475460  68.2977190  44.9322710  12.6933050
  67.7345020  45.9502480  13.6620100  62.2670500  46.4533000   4.9058880
  62.7849170  45.6501260   4.8515770  61.8154520  46.3912140   5.7475710
  59.7515040  43.4194370  11.8184580  59.3929980  44.0848220  12.4057920
  59.4569600  42.5877920  12.1897200  62.9528160  43.8778610  14.7024130
  62.6528300  44.0235790  13.8051950  63.7239400  43.3183900  14.6097520
  68.2956610  48.6747610  12.6979260  68.3101150  47.7428570  12.4798170
  67.5881710  48.7607370  13.3369030  74.5067820  45.3154950  12.0447840
  73.7816010  45.9083730  11.8477230  75.0343280  45.3078490  11.2461210
  70.0367410  47.0415120   5.5431690  70.3891230  46.4443250   4.8833060
  69.1529740  46.7159350   5.7139940  66.1230690  47.8012810   2.9502100
  66.8101820  48.3482020   3.3309690  65.3363110  48.3453540   2.9851710
  65.4257900  44.8058840   2.5627460  65.8820680  45.6164090   2.7887650
  65.0746110  44.4881980   3.3945950  67.7290510  50.3165180   9.7919760
  68.3732730  50.5224560  10.4693180  68.0919950  49.5553580   9.3390610
  61.3269680  35.1496490   3.0349980  61.1984310  35.1414390   3.9834900
  60.5031700  35.4879580   2.6840990  69.0022590  48.3197530   8.5097210
  69.6444820  47.6190690   8.6229380  69.5271940  49.0995970   8.3294100
  70.7760210  49.1192430  11.7133270  71.1116450  49.7059120  12.3911190
  69.8560550  48.9885140  11.9431060  58.3263610  36.9087610  12.4956680
  57.6122130  37.1084530  13.1009290  58.7458650  36.1327180  12.8671480
  58.6136200  50.8967870  13.4823210  58.7227320  49.9562610  13.3418600
  57.9616760  51.1622620  12.8336940  66.6048790  49.1683760  14.8821330
  66.2845660  48.4493000  15.4267020  65.9307150  49.8438830  14.9557390
  69.8202390  39.4009920  10.2458130  70.1883210  38.5805130  10.5737700
  68.9600590  39.4611810  10.6613780  65.1548450  40.6352810   2.4703570
  64.4464600  41.1039150   2.9117180  65.4392930  39.9774820   3.1048760
  66.7804380  42.0549510  10.4696100  67.2789630  42.5295330  11.1347950
  66.9227330  41.1313030  10.6766130  69.1863880  37.3603470   3.9099360
  69.0631660  37.3789600   2.9608870  70.1348440  37.4082410   4.0297760
  66.2740670  52.5958770   3.1827340  66.5282170  52.5580160   2.2606710
  65.3253150  52.4692100   3.1755590  73.9871240  38.2717470  11.3124490
  73.4844840  39.0122870  11.6518300  74.8027900  38.6601470  10.9961280
  72.2793250  43.5150650   4.7585850  71.3383390  43.5300880   4.9333540
  72.5937320  42.7286610   5.2046150  74.2818830  50.6859500   6.4340110
  74.4066250  51.5090670   6.9063920  75.1484390  50.4750230   6.0864260
  61.7536360  52.7790710   6.1057240  62.4898840  52.2306170   6.3765810
  62.1377280  53.6446720   5.9663230  58.6381840  48.8464280   1.9798750
  57.7121620  49.0885420   1.9704160  59.1038270  49.6738540   1.8583500
  60.7594640  51.9636780  15.2942820  61.5607370  52.2848830  15.7078220
  60.2446460  51.6032360  16.0162730  69.5959270  48.0716650  15.2418230
  68.9897430  48.0948250  14.5013980  69.2913380  47.3399690  15.7785480
  71.0259640  51.7996940  13.8527640  71.9781390  51.7154960  13.8027880
  70.8787860  52.4638650  14.5261430  58.4792450  44.4510240  14.2378870
  58.9831470  43.8717520  14.8095100  57.7399870  44.7350470  14.7755240
  65.5330390  45.8581230  13.7714390  64.7676060  46.4266230  13.6869060
  65.7146350  45.5657440  12.8782620  72.6753740  47.5886560  14.3289410
  73.4163210  47.9262320  13.8256870  71.9126420  47.7578620  13.7759180
  60.5115530  42.5939830  15.1328940  60.5520870  42.2953700  16.0414170
  61.3661030  42.9947440  14.9736460  62.4521340  41.1731930  13.1003430
  61.9217800  40.6822880  12.4726770  63.1209410  41.6016130  12.5661360
  71.3499400  45.6401390  12.8644620  71.7640420  45.7946470  13.7135040
  70.4150400  45.7656610  13.0270400  71.8221570  42.9797550  14.8683770
  72.4042340  42.2249870  14.7804250  71.9983340  43.5104990  14.0915250
  62.9393640  38.1394300  13.1800720  62.8450510  37.5215050  12.4551590
  62.3591030  38.8660590  12.9530630  65.7055080  36.6967540  10.2128110
  65.2572380  36.7191800   9.3673660  65.0720280  36.2986560  10.8098410
  66.1114630  45.5921870  10.8340550  66.5302740  46.4354600  10.6616790
  65.1923260  45.7293910  10.6047330  68.4478530  43.3238050  12.2178390
  68.5674740  42.7279190  12.9573230  69.3072530  43.3607740  11.7979690
  70.7866430  43.8775240  10.7940900  70.2601650  44.4017860  10.1906040
  71.1297770  44.5102630  11.4250630  63.9622050  51.8974880  11.9498280
  63.4243140  52.6220940  11.6306980  64.2156010  51.4205220  11.1595620
  65.2147300  39.8659400  13.4754210  65.8046990  39.5575250  14.1632030
  64.3967540  39.3939150  13.6314110  70.0340730  39.4825210  13.7087230
  69.3456250  38.8206750  13.6437220  70.7546750  39.0363480  14.1535690
  66.8184260  53.1326090  12.2084930  66.7442960  54.0361230  12.5157300
  65.9163100  52.8137990  12.1807000  58.2211550  50.4600680   5.5118550
  58.5514560  49.5921740   5.2797190  58.6502550  50.6659200   6.3423510
  62.8173470  48.7909690   3.1720520  62.5169010  48.6674660   4.0724430
  62.7110960  47.9318280   2.7636250  58.7101760  51.3271270   8.2500180
  58.2732750  51.5072070   9.0824330  59.2779440  52.0845890   8.1081900
  74.3463940  50.8288270  12.5377490  73.7465930  50.8880830  11.7941410
  74.4757840  49.8893250  12.6674340  58.5426190  43.8391500   4.6089060
  57.8875030  43.5703140   3.9648760  59.3804140  43.7295980   4.1591040
  73.0315580  47.5540250  10.6353650  72.2175420  47.9837410  10.8979440
  73.4389780  48.1658660  10.0222700  74.9906360  43.5456930   2.5283350
  74.6149960  42.7784860   2.0964640  74.2609480  43.9279630   3.0158280
  59.5802120  44.2244070   9.1492400  59.9475160  44.1371470  10.0288420
  59.0112940  43.4610620   9.0499260  74.3805980  42.6928450  12.1622870
  74.1492070  42.4641200  11.2620820  74.6410530  43.6128000  12.1167760
  59.1318120  41.1353160  13.0550820  58.2374170  41.1019920  13.3944530
  59.6715670  41.3339950  13.8202070  72.8194050  37.9184880  14.9402570
  73.6964230  37.9268280  15.3236570  72.8314890  37.1815720  14.3294920
  74.2657320  41.7714420   5.8290590  74.7894800  41.2777070   5.1980760
  74.8516740  41.9064780   6.5738160  74.4447040  41.8554290   9.3510140
  73.4949750  41.8217830   9.4655130  74.6260050  42.7654400   9.1159910
  73.7557290  41.0287770   1.7683000  74.2516410  40.7958640   2.5531880
  73.5573360  40.1899610   1.3520640  59.6357830  35.4101490   7.4034040
  60.2834020  34.8598870   6.9629200  60.0559670  35.6644640   8.2249850
  73.5310170  35.6042850  10.7603680  74.1682390  36.2176990  11.1262870
  73.6785060  35.6403510   9.8152910  73.0891630  52.3058850   4.1621920
  73.6850700  51.9843420   3.4856340  73.3469780  51.8330670   4.9535190
  59.3889830  35.5657160  10.1459360  59.0404650  36.0220980  10.9117540
  59.0577530  34.6714290  10.2281790  60.9954200  48.7376760  14.3112550
  60.9523830  48.3669670  15.1927010  61.1265210  49.6754330  14.4514370
  64.6960230  50.2936350   9.9122270  64.4551590  50.5610910   9.0252790
  65.6362870  50.4642080   9.9673130  66.9014650  36.7569040  13.6678780
  66.8403540  37.3490870  14.4174190  67.8415030  36.6495000  13.5229040
  69.5389210  36.4139100  13.3071070  70.1529620  36.7318390  12.6452150
  70.0838770  35.9287690  13.9266930  60.0610470  35.0933360  13.4210130
  60.6093460  34.9121410  12.6576240  60.1265780  34.3027470  13.9566440
  60.8342230  51.6839010  11.4310330  60.2402550  51.5523710  12.1700370
  60.8266070  50.8477150  10.9652430  70.2797250  34.9771240   9.6340360
  69.4057090  35.3106350   9.4313290  70.1708000  34.5044420  10.4592230
  71.1869230  37.1842110  11.0182080  70.8582590  36.3693870  10.6383810
  72.1351530  37.1411920  10.8947770  73.6403840  52.9554150   7.9919650
  73.1806810  53.7069960   7.6177670  73.0116300  52.2360620   7.9334450
  60.4654460  49.0497390  10.3818370  59.7388520  48.4302680  10.3144320
  60.5263610  49.4438000   9.5116450  64.0699560  51.2642390   7.1667780
  64.5864580  50.6529750   6.6416040  64.7196940  51.7671170   7.6578790
  66.8095060  52.1550880   7.9936760  67.0972870  51.9005180   7.1169770
  67.3218280  51.6028240   8.5842330  68.0272070  35.8941080   8.5733270
  67.2443860  36.3686580   8.8530030  67.7335000  34.9895910   8.4646450
  72.5793140  36.5964180   6.6182360  73.0201230  36.5409280   5.7703960
  72.3100730  37.5122190   6.6892540  74.4431710  36.2279420   4.6291180
  74.3820110  35.2840640   4.4822200  75.2223740  36.3359510   5.1744640
  58.7484460  52.3671780   3.5915130  58.5806500  51.7342460   4.2897020
  57.8818970  52.5731180   3.2409320  65.9126290  38.3127830   4.0849300
  65.1000800  37.9384720   3.7445180  66.4167930  37.5572910   4.3870490
  70.4151270  34.9770280   5.3232370  71.0180640  35.5490490   5.7980890
  69.6744260  35.5409720   5.1006270  63.9375470  36.4627750   2.6894350
  63.3078210  35.7615060   2.8564480  63.3980610  37.2231880   2.4727510
  66.8767420  53.0766980  15.3604960  67.8034730  52.8411250  15.4040920
  66.8617850  53.9038980  14.8790990  75.1112480  52.6192550   2.3579210
  75.2864670  51.9330290   1.7140130  74.4134050  53.1439600   1.9655880
  64.0631030  35.7411730  15.1246840  63.7815300  36.2445330  14.3607660
  64.4450730  34.9433480  14.7588970  70.6646490  35.1565310  15.7027310
  70.5511940  35.4759920  16.5978830  71.4816230  35.5577820  15.4064590
  73.4444980  52.3036840  15.1846000  74.2370300  51.8086070  14.9771960
  73.7378130  52.9826980  15.7921610  69.5704640  24.4014290  61.1636010
  69.4898690  23.4868900  60.8927720  69.1569060  24.8981360  60.4575720
  67.7022680  26.1793310  63.0445280  66.9264780  25.6993750  63.3343850
  68.3535610  25.4998960  62.8701440  61.7188510  26.4913120  63.9221040
  60.8873390  26.2361830  64.3217550  62.3269490  26.5623890  64.6578960
  71.7230110  30.5853500  61.8244410  71.2611640  29.8140740  62.1531580
  72.5355660  30.6119570  62.3296860  61.6989770  30.5253210  64.1179060
  62.0017810  29.6350950  63.9389280  62.4433360  31.0823430  63.8901310
  60.1280460  21.4515010  57.7063430  59.2397160  21.7930980  57.6043310
  60.4121650  21.2515330  56.8144260  58.0913470  24.0520660  63.5903130
  58.6629580  23.2842860  63.5906770  58.0915010  24.3509420  62.6809740
  67.9493420  32.8711510  61.4448400  67.3304860  33.3269010  60.8742840
  68.8045200  33.0262970  61.0438100  67.1431670  28.8550500  63.0515440
  67.0739950  27.9140440  62.8904570  67.9051530  28.9451910  63.6238010
  59.3338340  19.4605020  65.3772060  59.1541180  18.5630770  65.6574820
  58.9318420  20.0076890  66.0519010  68.1736840  21.6620880  63.2784370
  68.5501660  20.7892760  63.1658040  68.0756350  21.9979580  62.3874810
  62.3041850  20.0346510  58.7401810  62.4108600  20.9350240  59.0470570
  61.3934210  19.9864480  58.4496460  71.9560960  19.1571320  60.2112710
  72.7770580  18.6667890  60.2538190  71.9895040  19.7468980  60.9644550
  59.9525010  21.9565520  63.9854400  60.6335120  22.2203890  64.6041800
  59.6373060  21.1166390  64.3192410  64.1449580  23.0032880  63.0726990
  64.6527800  23.5013850  63.7132010  64.6762820  22.2268080  62.8966350
  62.4285680  17.6431440  67.3390410  62.4304120  18.1603830  66.5336310
  61.5989990  17.1661620  67.3160340  68.8156770  27.7550750  58.8380310
  68.1974040  28.2200200  58.2743030  69.3280020  28.4478230  59.2549820
  63.6788530  27.2826620  65.5163910  63.3457910  27.9095540  66.1584980
  63.8555210  27.8088500  64.7365580  72.1922440  21.0971700  62.9840250
  71.4878010  21.3856590  63.5643360  72.5534600  21.9071810  62.6239810
  62.1101010  19.3541400  65.3460860  62.4517820  20.1983450  65.0514730
  61.1716820  19.5025140  65.4626200  62.8907630  29.2507420  67.3313090
  63.5081630  29.9258500  67.0497540  62.0300750  29.6595400  67.2400590
  58.1839970  28.4407280  56.2119940  57.8067950  28.9294380  55.4804840
  58.4413040  29.1132560  56.8426470  73.8085220  30.7146830  65.2467730
  73.1248740  31.3845940  65.2384400  74.3479510  30.9127480  64.4812590
  75.2609360  20.5426490  63.3749460  74.3134270  20.5765470  63.5064890
  75.5859350  21.3565440  63.7598820  65.7928900  16.8423670  61.6705450
  66.1003880  16.2870560  60.9540950  64.8629600  16.9768130  61.4878440
  71.3443960  32.5590960  63.9612910  71.3571120  32.1553250  63.0935170
  70.7919180  33.3338250  63.8574340  72.6389380  29.2807180  59.0503080
  72.5285710  28.3381510  59.1752500  72.6357630  29.6422820  59.9365840
  70.7429400  27.4620800  65.2895520  71.1598190  27.2480910  64.4548980
  71.4669220  27.7193590  65.8604140  68.1809660  24.9072500  58.4065570
  67.2538940  24.8409880  58.6354040  68.3334480  25.8452630  58.2920810
  68.1678740  21.1789500  55.4032730  67.2282410  21.3403460  55.4885190
  68.4862000  21.8975180  54.8568720  74.6891500  25.8608020  65.3811760
  73.8610130  25.9301110  64.9061890  75.2841980  26.4462330  64.9127590
  72.2106950  26.4692800  58.9100820  71.5919370  26.1312350  58.2627120
  72.1931400  25.8252560  59.6180010  71.6533510  22.6477340  66.3266630
  71.2404690  23.4731050  66.5806620  70.9209460  22.0622380  66.1342990
  63.7866300  25.4337240  61.1885300  63.3823300  24.7214490  60.6931200
  63.8729420  25.0890480  62.0773340  64.2548000  29.1204800  63.3524510
  63.9576290  28.5150270  62.6732290  65.2047820  29.1582110  63.2413870
  62.4994920  22.2080450  64.9684340  63.0509510  22.3175790  64.1937590
  63.0138430  22.5818050  65.6839570  72.3433610  32.6936670  67.0147610
  71.8664170  33.5008860  66.8220220  71.6595400  32.0415000  67.1673820
  70.3871650  25.7079610  55.9173570  70.8264930  24.8702040  55.7711390
  71.1000070  26.3409010  56.0037710  68.4967030  30.6475680  59.8854810
  68.9362940  31.3900010  59.4710200  68.4353920  30.8902250  60.8093770
  73.9688790  16.9622420  54.2314610  73.6561450  17.0549250  55.1313680
  74.7301260  17.5403450  54.1812040  60.4870930  24.3282220  58.6891950
  60.3668530  25.0544310  58.0773220  60.1771820  23.5585130  58.2119860
  58.1256300  27.4997360  64.4960590  58.2036720  27.6346130  63.5516310
  58.7397980  26.7913250  64.6888710  59.3703930  29.1997550  60.9066770
  58.9632010  29.3412140  60.0520370  60.2616940  28.9157710  60.7037980
  71.1637210  33.6344800  57.2417820  71.0038350  33.3447740  58.1399650
  70.9983920  32.8584930  56.7063050  63.6425590  33.4143330  59.0189440
  63.4668070  32.4978870  58.8057240  62.7881330  33.7730620  59.2587240
  70.8663340  31.1432360  55.8015820  70.1728500  31.1409650  55.1418100
  71.6086200  30.7191680  55.3709990  70.4313270  32.7695070  59.8764310
  70.8870220  31.9884450  60.1902930  70.7705790  33.4801890  60.4205490
  58.1815820  28.5411530  67.0355050  58.3446860  28.0716890  66.2174420
  58.6468270  28.0335090  67.7003890  62.9534590  17.6717290  62.0715620
  62.5102740  18.4526830  61.7400140  63.5119580  17.9947180  62.7786560
  66.0693410  17.2927990  56.9521450  65.4447590  17.2887860  57.6774760
  65.9823530  16.4258950  56.5557420  64.9910490  18.2164620  63.9305220
  65.2882820  19.1227450  63.8497240  65.5396050  17.7283400  63.3164790
  62.7448810  22.7950860  59.7996870  62.5189730  22.5788030  60.7043490
  61.9641340  23.2279320  59.4542840  69.9746570  22.8014230  58.3987520
  69.3755460  23.5250030  58.2151140  70.5226180  22.7391010  57.6163970
  68.5811440  21.4377770  60.4290800  68.9741010  21.7549970  59.6159490
  68.9428290  20.5589650  60.5435320  57.6175610  18.0278570  62.6521000
  57.3288660  18.5981430  63.3645980  58.3621370  17.5483020  63.0152230
  57.8045840  21.9698690  53.8623720  57.7220510  22.9129450  54.0038710
  57.4528900  21.8273600  52.9836070  69.1666580  24.0283520  64.5241580
  68.4347700  24.5370330  64.8731680  68.7690920  23.2113500  64.2230360
  65.6043970  20.7037720  62.9294070  65.6080030  20.2627670  62.0798610
  66.4995090  21.0255050  63.0365890  61.4546350  20.5864210  61.8888280
  61.1146400  21.0639440  62.6455330  60.6923670  20.1329330  61.5289380
  65.6664120  21.7049800  55.9200830  65.7876940  21.6636280  56.8686650
  65.2812630  22.5673950  55.7647560  69.6292490  19.4817200  63.9364520
  69.6465230  19.9325850  64.7806370  69.3808070  18.5822840  64.1497960
  64.6785620  24.0150940  55.3184130  64.1102520  23.5669190  54.6920040
  65.3874620  24.3743720  54.7849280  65.9051940  24.7639500  64.6759480
  66.2722070  24.2898070  65.4220820  65.7157000  25.6381070  65.0167820
  58.7692430  19.5083190  60.8052950  58.4839350  19.1438860  61.6431570
  58.7071290  18.7763650  60.1916090  63.6951310  23.8048140  66.9943690
  63.3908380  24.6840120  67.2194050  64.6497770  23.8647930  67.0301130
  62.2233100  28.0109130  57.5910540  61.4495360  27.4706750  57.4309260
  62.9527730  27.4915740  57.2528300  72.9821080  27.0074490  63.3836930
  73.7020200  27.5029780  62.9933040  72.7802900  26.3292380  62.7390800
  68.4431020  18.4012450  57.5266320  67.6295630  17.9025620  57.4511630
  68.2492970  19.2410700  57.1102670  71.1579410  22.7732100  55.8228480
  72.0459030  23.0849330  55.6479820  71.1284500  21.9004350  55.4309060
  62.2670500  27.6789510  61.2289350  62.7849170  26.8757770  61.1746240
  61.8154520  27.6168650  62.0706180  67.1540000  28.9455790  56.5016650
  67.4955700  29.6898020  56.0059970  66.3252710  29.2586910  56.8641480
  73.4293680  24.0843940  55.2908340  73.3457400  24.5158160  54.4404780
  74.1487870  24.5442290  55.7235160  74.4580930  30.9386200  58.0190470
  73.8157090  30.2841820  58.2934190  74.0711590  31.3441290  57.2431140
  70.0367410  28.2671630  61.8662160  70.3891230  27.6699760  61.2063530
  69.1529740  27.9415860  62.0370410  66.1230690  29.0269320  59.2732570
  66.8101820  29.5738530  59.6540160  65.3363110  29.5710050  59.3082180
  58.2623090  24.6442140  54.7649650  59.1317940  24.9266940  55.0485570
  57.7713410  25.4578010  54.6498460  65.4257900  26.0315350  58.8857930
  65.8820680  26.8420600  59.1118120  65.0746110  25.7138490  59.7176420
  67.7290510  31.5421690  66.1150230  68.3732730  31.7481070  66.7923650
  68.0919950  30.7810090  65.6621080  61.3269680  16.3753000  59.3580450
  61.1984310  16.3670900  60.3065370  60.5031700  16.7136090  59.0071460
  69.0022590  29.5454040  64.8327680  69.6444820  28.8447200  64.9459850
  69.5271940  30.3252480  64.6524570  72.8478310  29.8302660  54.5566820
  72.6215890  29.1133100  55.1491460  72.4574510  29.5815100  53.7188570
  58.6294340  33.8569520  55.3311280  58.9891980  34.4558860  54.6768550
  58.4886680  34.4029410  56.1046310  72.4294560  27.7474600  56.2180980
  72.1416260  28.2087290  57.0058860  73.2246730  27.2872370  56.4865200
  64.6462960  31.2400720  56.1484950  64.6373060  31.9730410  55.5329460
  63.7261320  30.9932300  56.2411910  60.2469600  26.4615610  56.8931710
  59.6397550  27.2014510  56.9027010  60.7218950  26.5514970  56.0669910
  69.8202390  20.6266430  66.5688600  70.1883210  19.8061640  66.8968170
  68.9600590  20.6868320  66.9844250  73.1864420  19.5823370  57.3776160
  72.5577580  19.6869040  56.6634390  72.6916340  19.8020150  58.1670040
  67.6322560  31.3028960  54.8110140  67.7334540  31.0992950  53.8812120
  66.7324300  31.0487240  55.0157920  65.1548450  21.8609320  58.7934040
  64.4464600  22.3295660  59.2347650  65.4392930  21.2031330  59.4279230
  66.7804380  23.2806020  66.7926570  67.2789630  23.7551840  67.4578420
  66.9227330  22.3569540  66.9996600  69.1863880  18.5859980  60.2329830
  69.0631660  18.6046110  59.2839340  70.1348440  18.6338920  60.3528230
  66.2740670  33.8215280  59.5057810  66.5282170  33.7836670  58.5837180
  65.3253150  33.6948610  59.4986060  63.3583470  20.1694400  56.1684750
  64.2074000  20.6064550  56.1024940  62.9914740  20.4814660  56.9956810
  73.9871240  19.4973980  67.6354960  73.4844840  20.2379380  67.9748770
  74.8027900  19.8857980  67.3191750  72.2793250  24.7407160  61.0816320
  71.3383390  24.7557390  61.2564010  72.5937320  23.9543120  61.5276620
  62.2574890  26.4226760  54.6420280  63.0238160  26.3108120  55.2045710
  62.3349580  25.7264730  53.9897050  60.9521650  23.8551830  55.3253170
  61.0325240  22.9079340  55.4370570  61.8441400  24.1858710  55.4313830
  74.2818830  31.9116010  62.7570580  74.4066250  32.7347180  63.2294390
  75.1484390  31.7006740  62.4094730  61.7536360  34.0047220  62.4287710
  62.4898840  33.4562680  62.6996280  62.1377280  34.8703230  62.2893700
  58.6381840  30.0720790  58.3029220  57.7121620  30.3141930  58.2934630
  59.1038270  30.8995050  58.1813970  64.8638670  33.1777530  54.2513280
  65.6567280  33.4666360  53.7995070  64.3443020  32.7469700  53.5725760
  73.9168840  32.4047660  55.6750020  73.6310350  31.9912800  54.8604200
  73.7188390  33.3335370  55.5550540  65.3816070  28.3980940  54.1155630
  65.2766710  27.7833290  54.8417010  65.2140290  27.8746830  53.3318640
  68.6218800  27.4600970  54.7197620  68.0728900  27.9070270  55.3640360
  69.2438060  26.9550220  55.2435290  64.2893920  26.4191890  56.6162920
  64.7110340  26.2531760  57.4594310  64.4144760  25.6092120  56.1218060
  66.8021560  25.4429500  53.8640020  67.3227220  24.7278520  53.4981170
  67.4489960  26.0815370  54.1640530  65.7055080  17.9224050  66.5358580
  65.2572380  17.9448310  65.6904130  65.0720280  17.5243070  67.1328880
  66.1114630  26.8178380  67.1571020  66.5302740  27.6611110  66.9847260
  65.1923260  26.9550420  66.9277800  70.7866430  25.1031750  67.1171370
  70.2601650  25.6274370  66.5136510  71.1297770  25.7359140  67.7481100
  63.1852820  22.4925120  53.5621080  62.9841880  21.6292480  53.9234420
  63.0144870  22.4058480  52.6242680  70.6641130  17.3033350  56.0907960
  70.9443420  16.4601250  56.4467380  69.8906860  17.5356460  56.6046710
  61.9835620  19.5925740  53.5498960  62.2861520  19.5993170  52.6418110
  62.7230210  19.2423600  54.0466620  65.2020550  18.5360360  54.5355160
  64.8542550  17.8584350  53.9557610  65.4033320  18.0749870  55.3498550
  67.3669590  33.5241110  56.1541760  68.2620380  33.8626080  56.1760520
  67.3987220  32.8020520  55.5266040  61.0065750  28.8968160  54.3828760
  61.4440620  29.4397830  55.0386340  61.4913480  28.0715110  54.3925100
  58.2211550  31.6857190  61.8349020  58.5514560  30.8178250  61.6027660
  58.6502550  31.8915710  62.6653980  62.8173470  30.0166200  59.4950990
  62.5169010  29.8931170  60.3954900  62.7110960  29.1574790  59.0866720
  58.7101760  32.5527780  64.5730650  58.2732750  32.7328580  65.4054800
  59.2779440  33.3102400  64.4312370  75.5865390  29.7962600  54.1977670
  74.7558350  29.8639250  54.6684900  75.7637220  30.6866720  53.8944530
  75.0421850  26.5410080  56.7011870  75.8040760  27.1106730  56.8071560
  75.0576220  25.9737280  57.4720180  58.5426190  25.0648010  60.9319530
  57.8875030  24.7959650  60.2879230  59.3804140  24.9552490  60.4821510
  73.0315580  28.7796760  66.9584120  72.2175420  29.2093920  67.2209910
  73.4389780  29.3915170  66.3453170  75.0941020  26.8344450  53.8584390
  75.3689860  27.7423330  53.7303610  74.9051760  26.7706980  54.7946380
  71.4916630  19.8589300  55.1538020  71.9101510  19.6720280  54.3134680
  71.1852690  19.0068350  55.4640950  74.9906360  24.7713440  58.8513820
  74.6149960  24.0041370  58.4195110  74.2609480  25.1536140  59.3388750
  59.5802120  25.4500580  65.4722870  59.9475160  25.3627980  66.3518890
  59.0112940  24.6867130  65.3729730  57.7564270  22.2746940  56.8744860
  56.8528350  22.5377140  56.6996520  58.2404890  22.5458110  56.0944820
  74.2657320  22.9970930  62.1521060  74.7894800  22.5033580  61.5211230
  74.8516740  23.1321290  62.8968630  74.4447040  23.0810800  65.6740610
  73.4949750  23.0474340  65.7885600  74.6260050  23.9910910  65.4390380
  60.2991480  21.3312480  54.7839240  61.0083180  20.9095700  54.2986520
  59.5831420  21.3987710  54.1522590  59.9465640  17.3851810  53.8241890
  60.6693770  17.9260750  54.1423110  60.2190160  17.1115230  52.9483430
  73.7557290  22.2544280  58.0913470  74.2516410  22.0215150  58.8762350
  73.5573360  21.4156120  57.6751110  59.6357830  16.6358000  63.7264510
  60.2834020  16.0855380  63.2859670  60.0559670  16.8901150  64.5480320
  73.5310170  16.8299360  67.0834150  74.1682390  17.4433500  67.4493340
  73.6785060  16.8660020  66.1383380  73.0891630  33.5315360  60.4852390
  73.6850700  33.2099930  59.8086810  73.3469780  33.0587180  61.2765660
  59.3889830  16.7913670  66.4689830  59.0404650  17.2477490  67.2348010
  59.0577530  15.8970800  66.5512260  64.6960230  31.5192860  66.2352740
  64.4551590  31.7867420  65.3483260  65.6362870  31.6898590  66.2903600
  70.2797250  16.2027750  65.9570830  69.4057090  16.5362860  65.7543760
  70.1708000  15.7300930  66.7822700  71.1869230  18.4098620  67.3412550
  70.8582590  17.5950380  66.9614280  72.1351530  18.3668430  67.2178240
  73.6403840  34.1810660  64.3150120  73.1806810  34.9326470  63.9408140
  73.0116300  33.4617130  64.2564920  60.4654460  30.2753900  66.7048840
  59.7388520  29.6559190  66.6374790  60.5263610  30.6694510  65.8346920
  64.0699560  32.4898900  63.4898250  64.5864580  31.8786260  62.9646510
  64.7196940  32.9927680  63.9809260  66.8095060  33.3807390  64.3167230
  67.0972870  33.1261690  63.4400240  67.3218280  32.8284750  64.9072800
  68.0272070  17.1197590  64.8963740  67.2443860  17.5943090  65.1760500
  67.7335000  16.2152420  64.7876920  72.5793140  17.8220690  62.9412830
  73.0201230  17.7665790  62.0934430  72.3100730  18.7378700  63.0123010
  74.4431710  17.4535930  60.9521650  74.3820110  16.5097150  60.8052670
  75.2223740  17.5616020  61.4975110  58.7484460  33.5928290  59.9145600
  58.5806500  32.9598970  60.6127490  57.8818970  33.7987690  59.5639790
  59.3712480  17.4245070  57.4177460  60.1291840  17.5373950  56.8441490
  58.9089650  18.2614270  57.3720890  65.9126290  19.5384340  60.4079770
  65.1000800  19.1641230  60.0675650  66.4167930  18.7829420  60.7100960
  70.4151270  16.2026790  61.6462840  71.0180640  16.7747000  62.1211360
  69.6744260  16.7666230  61.4236740  73.5585870  16.6048350  56.9203120
  73.7536500  17.5031800  57.1870550  72.7715740  16.3735430  57.4136070
  60.3547160  32.2861520  57.3595740  59.8294780  32.6669550  56.6557700
  60.2791740  32.9112290  58.0805450  61.7437630  17.9509120  55.9579430
  62.2730390  17.1638920  55.8287380  62.3765950  18.6300310  56.1914960
  63.9375470  17.6884260  59.0124820  63.3078210  16.9871570  59.1794950
  63.3980610  18.4488390  58.7957980  75.1112480  33.8449060  58.6809680
  75.2864670  33.1586800  58.0370600  74.4134050  34.3696110  58.2886350
  62.9540130  34.2343900  56.2344990  63.6858950  33.9503180  55.6868880
  63.2133800  33.9957180  57.1244370  62.1154920  30.3508630  56.2391320
  61.4863800  30.8193730  56.7877150  62.2302750  29.5057850  56.6737510
  69.5704640  24.4014290  42.3892520  69.4898690  23.4868900  42.1184230
  69.1569060  24.8981360  41.6832230  67.7022680  26.1793310  44.2701790
  66.9264780  25.6993750  44.5600360  68.3535610  25.4998960  44.0957950
  61.7188510  26.4913120  45.1477550  60.8873390  26.2361830  45.5474060
  62.3269490  26.5623890  45.8835470  71.7230110  30.5853500  43.0500920
  71.2611640  29.8140740  43.3788090  72.5355660  30.6119570  43.5553370
  61.6989770  30.5253210  45.3435570  62.0017810  29.6350950  45.1645790
  62.4433360  31.0823430  45.1157820  60.1280460  21.4515010  38.9319940
  59.2397160  21.7930980  38.8299820  60.4121650  21.2515330  38.0400770
  58.0913470  24.0520660  44.8159640  58.6629580  23.2842860  44.8163280
  58.0915010  24.3509420  43.9066250  67.9493420  32.8711510  42.6704910
  67.3304860  33.3269010  42.0999350  68.8045200  33.0262970  42.2694610
  67.1431670  28.8550500  44.2771950  67.0739950  27.9140440  44.1161080
  67.9051530  28.9451910  44.8494520  59.3338340  19.4605020  46.6028570
  59.1541180  18.5630770  46.8831330  58.9318420  20.0076890  47.2775520
  68.1736840  21.6620880  44.5040880  68.5501660  20.7892760  44.3914550
  68.0756350  21.9979580  43.6131320  62.3041850  20.0346510  39.9658320
  62.4108600  20.9350240  40.2727080  61.3934210  19.9864480  39.6752970
  71.9560960  19.1571320  41.4369220  72.7770580  18.6667890  41.4794700
  71.9895040  19.7468980  42.1901060  59.9525010  21.9565520  45.2110910
  60.6335120  22.2203890  45.8298310  59.6373060  21.1166390  45.5448920
  64.1449580  23.0032880  44.2983500  64.6527800  23.5013850  44.9388520
  64.6762820  22.2268080  44.1222860  62.4285680  17.6431440  48.5646920
  62.4304120  18.1603830  47.7592820  61.5989990  17.1661620  48.5416850
  68.8156770  27.7550750  40.0636820  68.1974040  28.2200200  39.4999540
  69.3280020  28.4478230  40.4806330  63.6788530  27.2826620  46.7420420
  63.3457910  27.9095540  47.3841490  63.8555210  27.8088500  45.9622090
  72.1922440  21.0971700  44.2096760  71.4878010  21.3856590  44.7899870
  72.5534600  21.9071810  43.8496320  62.1101010  19.3541400  46.5717370
  62.4517820  20.1983450  46.2771240  61.1716820  19.5025140  46.6882710
  62.8907630  29.2507420  48.5569600  63.5081630  29.9258500  48.2754050
  62.0300750  29.6595400  48.4657100  58.1839970  28.4407280  37.4376450
  57.8067950  28.9294380  36.7061350  58.4413040  29.1132560  38.0682980
  73.8085220  30.7146830  46.4724240  73.1248740  31.3845940  46.4640910
  74.3479510  30.9127480  45.7069100  75.2609360  20.5426490  44.6005970
  74.3134270  20.5765470  44.7321400  75.5859350  21.3565440  44.9855330
  65.7928900  16.8423670  42.8961960  66.1003880  16.2870560  42.1797460
  64.8629600  16.9768130  42.7134950  71.3443960  32.5590960  45.1869420
  71.3571120  32.1553250  44.3191680  70.7919180  33.3338250  45.0830850
  72.6389380  29.2807180  40.2759590  72.5285710  28.3381510  40.4009010
  72.6357630  29.6422820  41.1622350  70.7429400  27.4620800  46.5152030
  71.1598190  27.2480910  45.6805490  71.4669220  27.7193590  47.0860650
  68.1809660  24.9072500  39.6322080  67.2538940  24.8409880  39.8610550
  68.3334480  25.8452630  39.5177320  68.1678740  21.1789500  36.6289240
  67.2282410  21.3403460  36.7141700  68.4862000  21.8975180  36.0825230
  74.6891500  25.8608020  46.6068270  73.8610130  25.9301110  46.1318400
  75.2841980  26.4462330  46.1384100  72.2106950  26.4692800  40.1357330
  71.5919370  26.1312350  39.4883630  72.1931400  25.8252560  40.8436520
  71.6533510  22.6477340  47.5523140  71.2404690  23.4731050  47.8063130
  70.9209460  22.0622380  47.3599500  63.7866300  25.4337240  42.4141810
  63.3823300  24.7214490  41.9187710  63.8729420  25.0890480  43.3029850
  64.2548000  29.1204800  44.5781020  63.9576290  28.5150270  43.8988800
  65.2047820  29.1582110  44.4670380  62.4994920  22.2080450  46.1940850
  63.0509510  22.3175790  45.4194100  63.0138430  22.5818050  46.9096080
  72.3433610  32.6936670  48.2404120  71.8664170  33.5008860  48.0476730
  71.6595400  32.0415000  48.3930330  63.3466430  28.8586490  51.2288820
  62.4494960  29.0826460  51.4762220  63.3719300  28.9821430  50.2800220
  70.3871650  25.7079610  37.1430080  70.8264930  24.8702040  36.9967900
  71.1000070  26.3409010  37.2294220  62.1737650  25.7299810  49.8046190
  62.0345420  26.6022610  50.1733590  61.2919010  25.3872620  49.6594130
  68.4967030  30.6475680  41.1111320  68.9362940  31.3900010  40.6966710
  68.4353920  30.8902250  42.0350280  63.9718000  31.6721510  52.0131340
  63.9433430  32.0764460  51.1459770  63.8082970  30.7431870  51.8502940
  73.9688790  16.9622420  35.4571120  73.6561450  17.0549250  36.3570190
  74.7301260  17.5403450  35.4068550  60.4870930  24.3282220  39.9148460
  60.3668530  25.0544310  39.3029730  60.1771820  23.5585130  39.4376370
  58.1256300  27.4997360  45.7217100  58.2036720  27.6346130  44.7772820
  58.7397980  26.7913250  45.9145220  59.3703930  29.1997550  42.1323280
  58.9632010  29.3412140  41.2776880  60.2616940  28.9157710  41.9294490
  75.3266070  29.6461460  50.4695520  75.4529130  29.4073340  49.5512700
  75.3687450  28.8146000  50.9417600  69.1882810  33.3489460  49.0390330
  69.7027480  33.2597470  49.8412760  68.3451890  33.6949160  49.3318240
  71.1637210  33.6344800  38.4674330  71.0038350  33.3447740  39.3656160
  70.9983920  32.8584930  37.9319560  63.6425590  33.4143330  40.2445950
  63.4668070  32.4978870  40.0313750  62.7881330  33.7730620  40.4843750
  70.8663340  31.1432360  37.0272330  70.1728500  31.1409650  36.3674610
  71.6086200  30.7191680  36.5966500  70.4313270  32.7695070  41.1020820
  70.8870220  31.9884450  41.4159440  70.7705790  33.4801890  41.6462000
  75.1790080  21.6993920  51.4345260  74.5634350  22.2073590  50.9060720
  74.8586500  20.7992250  51.3771200  58.1815820  28.5411530  48.2611560
  58.3446860  28.0716890  47.4430930  58.6468270  28.0335090  48.9260400
  62.9534590  17.6717290  43.2972130  62.5102740  18.4526830  42.9656650
  63.5119580  17.9947180  44.0043070  67.2404400  20.5385810  48.9007450
  66.7783770  20.7468830  49.7127390  66.8382510  19.7245160  48.5978120
  72.2408910  21.7594760  50.0304110  71.3902500  21.4600510  50.3513180
  72.0810700  22.0036770  49.1187930  69.3358620  23.2596510  52.1302900
  69.6612030  22.4260260  51.7905130  70.1238950  23.7825030  52.2781230
  66.0693410  17.2927990  38.1777960  65.4447590  17.2887860  38.9031270
  65.9823530  16.4258950  37.7813930  64.9910490  18.2164620  45.1561730
  65.2882820  19.1227450  45.0753750  65.5396050  17.7283400  44.5421300
  62.7448810  22.7950860  41.0253380  62.5189730  22.5788030  41.9300000
  61.9641340  23.2279320  40.6799350  69.9746570  22.8014230  39.6244030
  69.3755460  23.5250030  39.4407650  70.5226180  22.7391010  38.8420480
  65.1848020  23.6936440  51.6913650  65.0891620  22.7531170  51.5414050
  66.0280000  23.9151510  51.2961720  68.5811440  21.4377770  41.6547310
  68.9741010  21.7549970  40.8416000  68.9428290  20.5589650  41.7691830
  60.3158560  20.1050110  49.8447430  59.9221950  20.9525320  50.0520210
  59.6276960  19.4676480  50.0356070  66.8903610  20.1885080  52.9144170
  66.2001930  19.9957280  53.5490260  67.6335910  20.4719720  53.4468470
  57.6175610  18.0278570  43.8777510  57.3288660  18.5981430  44.5902490
  58.3621370  17.5483020  44.2408740  57.8045840  21.9698690  35.0880230
  57.7220510  22.9129450  35.2295220  57.4528900  21.8273600  34.2092580
  69.1666580  24.0283520  45.7498090  68.4347700  24.5370330  46.0988190
  68.7690920  23.2113500  45.4486870  65.6043970  20.7037720  44.1550580
  65.6080030  20.2627670  43.3055120  66.4995090  21.0255050  44.2622400
  61.4546350  20.5864210  43.1144790  61.1146400  21.0639440  43.8711840
  60.6923670  20.1329330  42.7545890  65.6664120  21.7049800  37.1457340
  65.7876940  21.6636280  38.0943160  65.2812630  22.5673950  36.9904070
  69.6292490  19.4817200  45.1621030  69.6465230  19.9325850  46.0062880
  69.3808070  18.5822840  45.3754470  64.6785620  24.0150940  36.5440640
  64.1102520  23.5669190  35.9176550  65.3874620  24.3743720  36.0105790
  73.0563240  16.8949380  51.0007410  73.3809010  16.1639040  51.5265390
  73.0919750  16.5763020  50.0988400  59.7554800  27.9162960  50.4207370
  59.3709590  27.2756630  51.0190330  60.0666990  28.6199080  50.9902100
  65.9051940  24.7639500  45.9015990  66.2722070  24.2898070  46.6477330
  65.7157000  25.6381070  46.2424330  58.7692430  19.5083190  42.0309460
  58.4839350  19.1438860  42.8688080  58.7071290  18.7763650  41.4172600
  63.6951310  23.8048140  48.2200200  63.3908380  24.6840120  48.4450560
  64.6497770  23.8647930  48.2557640  62.2233100  28.0109130  38.8167050
  61.4495360  27.4706750  38.6565770  62.9527730  27.4915740  38.4784810
  72.9821080  27.0074490  44.6093440  73.7020200  27.5029780  44.2189550
  72.7802900  26.3292380  43.9647310  68.4431020  18.4012450  38.7522830
  67.6295630  17.9025620  38.6768140  68.2492970  19.2410700  38.3359180
  68.3639880  27.0783550  50.4962440  68.2977190  26.1579220  50.2420030
  67.7345020  27.1758990  51.2107080  71.1579410  22.7732100  37.0484990
  72.0459030  23.0849330  36.8736330  71.1284500  21.9004350  36.6565570
  62.2670500  27.6789510  42.4545860  62.7849170  26.8757770  42.4002750
  61.8154520  27.6168650  43.2962690  67.1540000  28.9455790  37.7273160
  67.4955700  29.6898020  37.2316480  66.3252710  29.2586910  38.0897990
  59.7515040  24.6450880  49.3671560  59.3929980  25.3104730  49.9544900
  59.4569600  23.8134430  49.7384180  62.9528160  25.1035120  52.2511110
  62.6528300  25.2492300  51.3538930  63.7239400  24.5440410  52.1584500
  68.2956610  29.9004120  50.2466240  68.3101150  28.9685080  50.0285150
  67.5881710  29.9863880  50.8856010  73.4293680  24.0843940  36.5164850
  73.3457400  24.5158160  35.6661290  74.1487870  24.5442290  36.9491670
  74.5067820  26.5411460  49.5934820  73.7816010  27.1340240  49.3964210
  75.0343280  26.5335000  48.7948190  74.4580930  30.9386200  39.2446980
  73.8157090  30.2841820  39.5190700  74.0711590  31.3441290  38.4687650
  70.0367410  28.2671630  43.0918670  70.3891230  27.6699760  42.4320040
  69.1529740  27.9415860  43.2626920  66.1230690  29.0269320  40.4989080
  66.8101820  29.5738530  40.8796670  65.3363110  29.5710050  40.5338690
  58.2623090  24.6442140  35.9906160  59.1317940  24.9266940  36.2742080
  57.7713410  25.4578010  35.8754970  65.4257900  26.0315350  40.1114440
  65.8820680  26.8420600  40.3374630  65.0746110  25.7138490  40.9432930
  67.7290510  31.5421690  47.3406740  68.3732730  31.7481070  48.0180160
  68.0919950  30.7810090  46.8877590  61.3269680  16.3753000  40.5836960
  61.1984310  16.3670900  41.5321880  60.5031700  16.7136090  40.2327970
  69.0022590  29.5454040  46.0584190  69.6444820  28.8447200  46.1716360
  69.5271940  30.3252480  45.8781080  72.8478310  29.8302660  35.7823330
  72.6215890  29.1133100  36.3747970  72.4574510  29.5815100  34.9445080
  70.7760210  30.3448940  49.2620250  71.1116450  30.9315630  49.9398170
  69.8560550  30.2141650  49.4918040  58.6294340  33.8569520  36.5567790
  58.9891980  34.4558860  35.9025060  58.4886680  34.4029410  37.3302820
  58.3263610  18.1344120  50.0443660  57.6122130  18.3341040  50.6496270
  58.7458650  17.3583690  50.4158460  72.4294560  27.7474600  37.4437490
  72.1416260  28.2087290  38.2315370  73.2246730  27.2872370  37.7121710
  58.6136200  32.1224380  51.0310190  58.7227320  31.1819120  50.8905580
  57.9616760  32.3879130  50.3823920  66.6048790  30.3940270  52.4308310
  66.2845660  29.6749510  52.9754000  65.9307150  31.0695340  52.5044370
  64.6462960  31.2400720  37.3741460  64.6373060  31.9730410  36.7585970
  63.7261320  30.9932300  37.4668420  60.2469600  26.4615610  38.1188220
  59.6397550  27.2014510  38.1283520  60.7218950  26.5514970  37.2926420
  69.8202390  20.6266430  47.7945110  70.1883210  19.8061640  48.1224680
  68.9600590  20.6868320  48.2100760  73.1864420  19.5823370  38.6032670
  72.5577580  19.6869040  37.8890900  72.6916340  19.8020150  39.3926550
  67.6322560  31.3028960  36.0366650  67.7334540  31.0992950  35.1068630
  66.7324300  31.0487240  36.2414430  65.1548450  21.8609320  40.0190550
  64.4464600  22.3295660  40.4604160  65.4392930  21.2031330  40.6535740
  66.7804380  23.2806020  48.0183080  67.2789630  23.7551840  48.6834930
  66.9227330  22.3569540  48.2253110  69.1863880  18.5859980  41.4586340
  69.0631660  18.6046110  40.5095850  70.1348440  18.6338920  41.5784740
  66.2740670  33.8215280  40.7314320  66.5282170  33.7836670  39.8093690
  65.3253150  33.6948610  40.7242570  63.3583470  20.1694400  37.3941260
  64.2074000  20.6064550  37.3281450  62.9914740  20.4814660  38.2213320
  73.9871240  19.4973980  48.8611470  73.4844840  20.2379380  49.2005280
  74.8027900  19.8857980  48.5448260  72.2793250  24.7407160  42.3072830
  71.3383390  24.7557390  42.4820520  72.5937320  23.9543120  42.7533130
  62.2574890  26.4226760  35.8676790  63.0238160  26.3108120  36.4302220
  62.3349580  25.7264730  35.2153560  60.9521650  23.8551830  36.5509680
  61.0325240  22.9079340  36.6627080  61.8441400  24.1858710  36.6570340
  74.2818830  31.9116010  43.9827090  74.4066250  32.7347180  44.4550900
  75.1484390  31.7006740  43.6351240  61.7536360  34.0047220  43.6544220
  62.4898840  33.4562680  43.9252790  62.1377280  34.8703230  43.5150210
  58.6381840  30.0720790  39.5285730  57.7121620  30.3141930  39.5191140
  59.1038270  30.8995050  39.4070480  60.7594640  33.1893290  52.8429800
  61.5607370  33.5105340  53.2565200  60.2446460  32.8288870  53.5649710
  64.8638670  33.1777530  35.4769790  65.6567280  33.4666360  35.0251580
  64.3443020  32.7469700  34.7982270  69.5959270  29.2973160  52.7905210
  68.9897430  29.3204760  52.0500960  69.2913380  28.5656200  53.3272460
  71.0259640  33.0253450  51.4014620  71.9781390  32.9411470  51.3514860
  70.8787860  33.6895160  52.0748410  73.9168840  32.4047660  36.9006530
  73.6310350  31.9912800  36.0860710  73.7188390  33.3335370  36.7807050
  58.4792450  25.6766750  51.7865850  58.9831470  25.0974030  52.3582080
  57.7399870  25.9606980  52.3242220  65.3816070  28.3980940  35.3412140
  65.2766710  27.7833290  36.0673520  65.2140290  27.8746830  34.5575150
  65.5330390  27.0837740  51.3201370  64.7676060  27.6522740  51.2356040
  65.7146350  26.7913950  50.4269600  68.6218800  27.4600970  35.9454130
  68.0728900  27.9070270  36.5896870  69.2438060  26.9550220  36.4691800
  72.6753740  28.8143070  51.8776390  73.4163210  29.1518830  51.3743850
  71.9126420  28.9835130  51.3246160  60.5115530  23.8196340  52.6815920
  60.5520870  23.5210210  53.5901150  61.3661030  24.2203950  52.5223440
  64.2893920  26.4191890  37.8419430  64.7110340  26.2531760  38.6850820
  64.4144760  25.6092120  37.3474570  62.4521340  22.3988440  50.6490410
  61.9217800  21.9079390  50.0213750  63.1209410  22.8272640  50.1148340
  66.8021560  25.4429500  35.0896530  67.3227220  24.7278520  34.7237680
  67.4489960  26.0815370  35.3897040  71.3499400  26.8657900  50.4131600
  71.7640420  27.0202980  51.2622020  70.4150400  26.9913120  50.5757380
  71.8221570  24.2054060  52.4170750  72.4042340  23.4506380  52.3291230
  71.9983340  24.7361500  51.6402230  62.9393640  19.3650810  50.7287700
  62.8450510  18.7471560  50.0038570  62.3591030  20.0917100  50.5017610
  65.7055080  17.9224050  47.7615090  65.2572380  17.9448310  46.9160640
  65.0720280  17.5243070  48.3585390  66.1114630  26.8178380  48.3827530
  66.5302740  27.6611110  48.2103770  65.1923260  26.9550420  48.1534310
  68.4478530  24.5494560  49.7665370  68.5674740  23.9535700  50.5060210
  69.3072530  24.5864250  49.3466670  70.7866430  25.1031750  48.3427880
  70.2601650  25.6274370  47.7393020  71.1297770  25.7359140  48.9737610
  63.1852820  22.4925120  34.7877590  62.9841880  21.6292480  35.1490930
  63.0144870  22.4058480  33.8499190  63.9622050  33.1231390  49.4985260
  63.4243140  33.8477450  49.1793960  64.2156010  32.6461730  48.7082600
  65.2147300  21.0915910  51.0241190  65.8046990  20.7831760  51.7119010
  64.3967540  20.6195660  51.1801090  70.0340730  20.7081720  51.2574210
  69.3456250  20.0463260  51.1924200  70.7546750  20.2619990  51.7022670
  70.6641130  17.3033350  37.3164470  70.9443420  16.4601250  37.6723890
  69.8906860  17.5356460  37.8303220  61.9835620  19.5925740  34.7755470
  62.2861520  19.5993170  33.8674620  62.7230210  19.2423600  35.2723130
  66.8184260  34.3582600  49.7571910  66.7442960  35.2617740  50.0644280
  65.9163100  34.0394500  49.7293980  65.2020550  18.5360360  35.7611670
  64.8542550  17.8584350  35.1814120  65.4033320  18.0749870  36.5755060
  67.3669590  33.5241110  37.3798270  68.2620380  33.8626080  37.4017030
  67.3987220  32.8020520  36.7522550  61.0065750  28.8968160  35.6085270
  61.4440620  29.4397830  36.2642850  61.4913480  28.0715110  35.6181610
  58.2211550  31.6857190  43.0605530  58.5514560  30.8178250  42.8284170
  58.6502550  31.8915710  43.8910490  62.8173470  30.0166200  40.7207500
  62.5169010  29.8931170  41.6211410  62.7110960  29.1574790  40.3123230
  58.7101760  32.5527780  45.7987160  58.2732750  32.7328580  46.6311310
  59.2779440  33.3102400  45.6568880  74.3463940  32.0544780  50.0864470
  73.7465930  32.1137340  49.3428390  74.4757840  31.1149760  50.2161320
  75.5865390  29.7962600  35.4234180  74.7558350  29.8639250  35.8941410
  75.7637220  30.6866720  35.1201040  75.0421850  26.5410080  37.9268380
  75.8040760  27.1106730  38.0328070  75.0576220  25.9737280  38.6976690
  58.5426190  25.0648010  42.1576040  57.8875030  24.7959650  41.5135740
  59.3804140  24.9552490  41.7078020  73.0315580  28.7796760  48.1840630
  72.2175420  29.2093920  48.4466420  73.4389780  29.3915170  47.5709680
  75.0941020  26.8344450  35.0840900  75.3689860  27.7423330  34.9560120
  74.9051760  26.7706980  36.0202890  71.4916630  19.8589300  36.3794530
  71.9101510  19.6720280  35.5391190  71.1852690  19.0068350  36.6897460
  74.9906360  24.7713440  40.0770330  74.6149960  24.0041370  39.6451620
  74.2609480  25.1536140  40.5645260  59.5802120  25.4500580  46.6979380
  59.9475160  25.3627980  47.5775400  59.0112940  24.6867130  46.5986240
  74.3805980  23.9184960  49.7109850  74.1492070  23.6897710  48.8107800
  74.6410530  24.8384510  49.6654740  59.1318120  22.3609670  50.6037800
  58.2374170  22.3276430  50.9431510  59.6715670  22.5596460  51.3689050
  72.8194050  19.1441390  52.4889550  73.6964230  19.1524790  52.8723550
  72.8314890  18.4072230  51.8781900  57.7564270  22.2746940  38.1001370
  56.8528350  22.5377140  37.9253030  58.2404890  22.5458110  37.3201330
  74.2657320  22.9970930  43.3777570  74.7894800  22.5033580  42.7467740
  74.8516740  23.1321290  44.1225140  74.4447040  23.0810800  46.8997120
  73.4949750  23.0474340  47.0142110  74.6260050  23.9910910  46.6646890
  60.2991480  21.3312480  36.0095750  61.0083180  20.9095700  35.5243030
  59.5831420  21.3987710  35.3779100  59.9465640  17.3851810  35.0498400
  60.6693770  17.9260750  35.3679620  60.2190160  17.1115230  34.1739940
  73.7557290  22.2544280  39.3169980  74.2516410  22.0215150  40.1018860
  73.5573360  21.4156120  38.9007620  59.6357830  16.6358000  44.9521020
  60.2834020  16.0855380  44.5116180  60.0559670  16.8901150  45.7736830
  73.5310170  16.8299360  48.3090660  74.1682390  17.4433500  48.6749850
  73.6785060  16.8660020  47.3639890  73.0891630  33.5315360  41.7108900
  73.6850700  33.2099930  41.0343320  73.3469780  33.0587180  42.5022170
  59.3889830  16.7913670  47.6946340  59.0404650  17.2477490  48.4604520
  59.0577530  15.8970800  47.7768770  60.9954200  29.9633270  51.8599530
  60.9523830  29.5926180  52.7413990  61.1265210  30.9010840  52.0001350
  64.6960230  31.5192860  47.4609250  64.4551590  31.7867420  46.5739770
  65.6362870  31.6898590  47.5160110  66.9014650  17.9825550  51.2165760
  66.8403540  18.5747380  51.9661170  67.8415030  17.8751510  51.0716020
  69.5389210  17.6395610  50.8558050  70.1529620  17.9574900  50.1939130
  70.0838770  17.1544200  51.4753910  60.0610470  16.3189870  50.9697110
  60.6093460  16.1377920  50.2063220  60.1265780  15.5283980  51.5053420
  60.8342230  32.9095520  48.9797310  60.2402550  32.7780220  49.7187350
  60.8266070  32.0733660  48.5139410  70.2797250  16.2027750  47.1827340
  69.4057090  16.5362860  46.9800270  70.1708000  15.7300930  48.0079210
  71.1869230  18.4098620  48.5669060  70.8582590  17.5950380  48.1870790
  72.1351530  18.3668430  48.4434750  73.6403840  34.1810660  45.5406630
  73.1806810  34.9326470  45.1664650  73.0116300  33.4617130  45.4821430
  60.4654460  30.2753900  47.9305350  59.7388520  29.6559190  47.8631300
  60.5263610  30.6694510  47.0603430  64.0699560  32.4898900  44.7154760
  64.5864580  31.8786260  44.1903020  64.7196940  32.9927680  45.2065770
  66.8095060  33.3807390  45.5423740  67.0972870  33.1261690  44.6656750
  67.3218280  32.8284750  46.1329310  68.0272070  17.1197590  46.1220250
  67.2443860  17.5943090  46.4017010  67.7335000  16.2152420  46.0133430
  72.5793140  17.8220690  44.1669340  73.0201230  17.7665790  43.3190940
  72.3100730  18.7378700  44.2379520  74.4431710  17.4535930  42.1778160
  74.3820110  16.5097150  42.0309180  75.2223740  17.5616020  42.7231620
  58.7484460  33.5928290  41.1402110  58.5806500  32.9598970  41.8384000
  57.8818970  33.7987690  40.7896300  59.3712480  17.4245070  38.6433970
  60.1291840  17.5373950  38.0698000  58.9089650  18.2614270  38.5977400
  65.9126290  19.5384340  41.6336280  65.1000800  19.1641230  41.2932160
  66.4167930  18.7829420  41.9357470  70.4151270  16.2026790  42.8719350
  71.0180640  16.7747000  43.3467870  69.6744260  16.7666230  42.6493250
  73.5585870  16.6048350  38.1459630  73.7536500  17.5031800  38.4127060
  72.7715740  16.3735430  38.6392580  60.3547160  32.2861520  38.5852250
  59.8294780  32.6669550  37.8814210  60.2791740  32.9112290  39.3061960
  61.7437630  17.9509120  37.1835940  62.2730390  17.1638920  37.0543890
  62.3765950  18.6300310  37.4171470  63.9375470  17.6884260  40.2381330
  63.3078210  16.9871570  40.4051460  63.3980610  18.4488390  40.0214490
  66.8767420  34.3023490  52.9091940  67.8034730  34.0667760  52.9527900
  66.8617850  35.1295490  52.4277970  75.1112480  33.8449060  39.9066190
  75.2864670  33.1586800  39.2627110  74.4134050  34.3696110  39.5142860
  64.0631030  16.9668240  52.6733820  63.7815300  17.4701840  51.9094640
  64.4450730  16.1689990  52.3075950  62.9540130  34.2343900  37.4601500
  63.6858950  33.9503180  36.9125390  63.2133800  33.9957180  38.3500880
  62.1154920  30.3508630  37.4647830  61.4863800  30.8193730  38.0133660
  62.2302750  29.5057850  37.8994020  70.6646490  16.3821820  53.2514290
  70.5511940  16.7016430  54.1465810  71.4816230  16.7834330  52.9551570
  73.4444980  33.5293350  52.7332980  74.2370300  33.0342580  52.5258940
  73.7378130  34.2083490  53.3408590  69.5704640  24.4014290  23.6149030
  69.4898690  23.4868900  23.3440740  69.1569060  24.8981360  22.9088740
  67.7022680  26.1793310  25.4958300  66.9264780  25.6993750  25.7856870
  68.3535610  25.4998960  25.3214460  61.7188510  26.4913120  26.3734060
  60.8873390  26.2361830  26.7730570  62.3269490  26.5623890  27.1091980
  71.7230110  30.5853500  24.2757430  71.2611640  29.8140740  24.6044600
  72.5355660  30.6119570  24.7809880  61.6989770  30.5253210  26.5692080
  62.0017810  29.6350950  26.3902300  62.4433360  31.0823430  26.3414330
  60.1280460  21.4515010  20.1576450  59.2397160  21.7930980  20.0556330
  60.4121650  21.2515330  19.2657280  58.0913470  24.0520660  26.0416150
  58.6629580  23.2842860  26.0419790  58.0915010  24.3509420  25.1322760
  67.9493420  32.8711510  23.8961420  67.3304860  33.3269010  23.3255860
  68.8045200  33.0262970  23.4951120  67.1431670  28.8550500  25.5028460
  67.0739950  27.9140440  25.3417590  67.9051530  28.9451910  26.0751030
  59.3338340  19.4605020  27.8285080  59.1541180  18.5630770  28.1087840
  58.9318420  20.0076890  28.5032030  68.1736840  21.6620880  25.7297390
  68.5501660  20.7892760  25.6171060  68.0756350  21.9979580  24.8387830
  62.3041850  20.0346510  21.1914830  62.4108600  20.9350240  21.4983590
  61.3934210  19.9864480  20.9009480  71.9560960  19.1571320  22.6625730
  72.7770580  18.6667890  22.7051210  71.9895040  19.7468980  23.4157570
  59.9525010  21.9565520  26.4367420  60.6335120  22.2203890  27.0554820
  59.6373060  21.1166390  26.7705430  64.1449580  23.0032880  25.5240010
  64.6527800  23.5013850  26.1645030  64.6762820  22.2268080  25.3479370
  62.4285680  17.6431440  29.7903430  62.4304120  18.1603830  28.9849330
  61.5989990  17.1661620  29.7673360  68.8156770  27.7550750  21.2893330
  68.1974040  28.2200200  20.7256050  69.3280020  28.4478230  21.7062840
  63.6788530  27.2826620  27.9676930  63.3457910  27.9095540  28.6098000
  63.8555210  27.8088500  27.1878600  72.1922440  21.0971700  25.4353270
  71.4878010  21.3856590  26.0156380  72.5534600  21.9071810  25.0752830
  62.1101010  19.3541400  27.7973880  62.4517820  20.1983450  27.5027750
  61.1716820  19.5025140  27.9139220  62.8907630  29.2507420  29.7826110
  63.5081630  29.9258500  29.5010560  62.0300750  29.6595400  29.6913610
  58.1839970  28.4407280  18.6632960  57.8067950  28.9294380  17.9317860
  58.4413040  29.1132560  19.2939490  73.8085220  30.7146830  27.6980750
  73.1248740  31.3845940  27.6897420  74.3479510  30.9127480  26.9325610
  75.2609360  20.5426490  25.8262480  74.3134270  20.5765470  25.9577910
  75.5859350  21.3565440  26.2111840  65.7928900  16.8423670  24.1218470
  66.1003880  16.2870560  23.4053970  64.8629600  16.9768130  23.9391460
  71.3443960  32.5590960  26.4125930  71.3571120  32.1553250  25.5448190
  70.7919180  33.3338250  26.3087360  72.6389380  29.2807180  21.5016100
  72.5285710  28.3381510  21.6265520  72.6357630  29.6422820  22.3878860
  70.7429400  27.4620800  27.7408540  71.1598190  27.2480910  26.9062000
  71.4669220  27.7193590  28.3117160  68.1809660  24.9072500  20.8578590
  67.2538940  24.8409880  21.0867060  68.3334480  25.8452630  20.7433830
  68.1678740  21.1789500  17.8545750  67.2282410  21.3403460  17.9398210
  68.4862000  21.8975180  17.3081740  74.6891500  25.8608020  27.8324780
  73.8610130  25.9301110  27.3574910  75.2841980  26.4462330  27.3640610
  72.2106950  26.4692800  21.3613840  71.5919370  26.1312350  20.7140140
  72.1931400  25.8252560  22.0693030  71.6533510  22.6477340  28.7779650
  71.2404690  23.4731050  29.0319640  70.9209460  22.0622380  28.5856010
  63.7866300  25.4337240  23.6398320  63.3823300  24.7214490  23.1444220
  63.8729420  25.0890480  24.5286360  64.2548000  29.1204800  25.8037530
  63.9576290  28.5150270  25.1245310  65.2047820  29.1582110  25.6926890
  62.4994920  22.2080450  27.4197360  63.0509510  22.3175790  26.6450610
  63.0138430  22.5818050  28.1352590  72.3433610  32.6936670  29.4660630
  71.8664170  33.5008860  29.2733240  71.6595400  32.0415000  29.6186840
  63.3466430  28.8586490  32.4545330  62.4494960  29.0826460  32.7018730
  63.3719300  28.9821430  31.5056730  70.3871650  25.7079610  18.3686590
  70.8264930  24.8702040  18.2224410  71.1000070  26.3409010  18.4550730
  62.1737650  25.7299810  31.0302700  62.0345420  26.6022610  31.3990100
  61.2919010  25.3872620  30.8850640  68.4967030  30.6475680  22.3367830
  68.9362940  31.3900010  21.9223220  68.4353920  30.8902250  23.2606790
  63.9718000  31.6721510  33.2387850  63.9433430  32.0764460  32.3716280
  63.8082970  30.7431870  33.0759450  73.9688790  16.9622420  16.6827630
  73.6561450  17.0549250  17.5826700  74.7301260  17.5403450  16.6325060
  60.4870930  24.3282220  21.1404970  60.3668530  25.0544310  20.5286240
  60.1771820  23.5585130  20.6632880  58.1256300  27.4997360  26.9473610
  58.2036720  27.6346130  26.0029330  58.7397980  26.7913250  27.1401730
  59.3703930  29.1997550  23.3579790  58.9632010  29.3412140  22.5033390
  60.2616940  28.9157710  23.1551000  75.3266070  29.6461460  31.6952030
  75.4529130  29.4073340  30.7769210  75.3687450  28.8146000  32.1674110
  69.1882810  33.3489460  30.2646840  69.7027480  33.2597470  31.0669270
  68.3451890  33.6949160  30.5574750  71.1637210  33.6344800  19.6930840
  71.0038350  33.3447740  20.5912670  70.9983920  32.8584930  19.1576070
  63.6425590  33.4143330  21.4702460  63.4668070  32.4978870  21.2570260
  62.7881330  33.7730620  21.7100260  70.8663340  31.1432360  18.2528840
  70.1728500  31.1409650  17.5931120  71.6086200  30.7191680  17.8223010
  70.4313270  32.7695070  22.3277330  70.8870220  31.9884450  22.6415950
  70.7705790  33.4801890  22.8718510  75.1790080  21.6993920  32.6601770
  74.5634350  22.2073590  32.1317230  74.8586500  20.7992250  32.6027710
  58.1815820  28.5411530  29.4868070  58.3446860  28.0716890  28.6687440
  58.6468270  28.0335090  30.1516910  62.9534590  17.6717290  24.5228640
  62.5102740  18.4526830  24.1913160  63.5119580  17.9947180  25.2299580
  67.2404400  20.5385810  30.1263960  66.7783770  20.7468830  30.9383900
  66.8382510  19.7245160  29.8234630  72.2408910  21.7594760  31.2560620
  71.3902500  21.4600510  31.5769690  72.0810700  22.0036770  30.3444440
  69.3358620  23.2596510  33.3559410  69.6612030  22.4260260  33.0161640
  70.1238950  23.7825030  33.5037740  66.0693410  17.2927990  19.4034470
  65.4447590  17.2887860  20.1287780  65.9823530  16.4258950  19.0070440
  64.9910490  18.2164620  26.3818240  65.2882820  19.1227450  26.3010260
  65.5396050  17.7283400  25.7677810  62.7448810  22.7950860  22.2509890
  62.5189730  22.5788030  23.1556510  61.9641340  23.2279320  21.9055860
  69.9746570  22.8014230  20.8500540  69.3755460  23.5250030  20.6664160
  70.5226180  22.7391010  20.0676990  65.1848020  23.6936440  32.9170160
  65.0891620  22.7531170  32.7670560  66.0280000  23.9151510  32.5218230
  68.5811440  21.4377770  22.8803820  68.9741010  21.7549970  22.0672510
  68.9428290  20.5589650  22.9948340  60.3158560  20.1050110  31.0703940
  59.9221950  20.9525320  31.2776720  59.6276960  19.4676480  31.2612580
  66.8903610  20.1885080  34.1400680  66.2001930  19.9957280  34.7746770
  67.6335910  20.4719720  34.6724980  57.6175610  18.0278570  25.1034020
  57.3288660  18.5981430  25.8159000  58.3621370  17.5483020  25.4665250
  57.8045840  21.9698690  16.3136740  57.7220510  22.9129450  16.4551730
  57.4528900  21.8273600  15.4349090  69.1666580  24.0283520  26.9754600
  68.4347700  24.5370330  27.3244700  68.7690920  23.2113500  26.6743380
  65.6043970  20.7037720  25.3807090  65.6080030  20.2627670  24.5311630
  66.4995090  21.0255050  25.4878910  61.4546350  20.5864210  24.3401300
  61.1146400  21.0639440  25.0968350  60.6923670  20.1329330  23.9802400
  65.6664120  21.7049800  18.3713850  65.7876940  21.6636280  19.3199670
  65.2812630  22.5673950  18.2160580  69.6292490  19.4817200  26.3877540
  69.6465230  19.9325850  27.2319390  69.3808070  18.5822840  26.6010980
  64.6785620  24.0150940  17.7697150  64.1102520  23.5669190  17.1433060
  65.3874620  24.3743720  17.2362300  73.0563240  16.8949380  32.2263920
  73.3809010  16.1639040  32.7521900  73.0919750  16.5763020  31.3244910
  59.7554800  27.9162960  31.6463880  59.3709590  27.2756630  32.2446840
  60.0666990  28.6199080  32.2158610  65.9051940  24.7639500  27.1272500
  66.2722070  24.2898070  27.8733840  65.7157000  25.6381070  27.4680840
  58.7692430  19.5083190  23.2565970  58.4839350  19.1438860  24.0944590
  58.7071290  18.7763650  22.6429110  63.6951310  23.8048140  29.4456710
  63.3908380  24.6840120  29.6707070  64.6497770  23.8647930  29.4814150
  62.2233100  28.0109130  20.0423560  61.4495360  27.4706750  19.8822280
  62.9527730  27.4915740  19.7041320  72.9821080  27.0074490  25.8349950
  73.7020200  27.5029780  25.4446060  72.7802900  26.3292380  25.1903820
  68.4431020  18.4012450  19.9779340  67.6295630  17.9025620  19.9024650
  68.2492970  19.2410700  19.5615690  68.3639880  27.0783550  31.7218950
  68.2977190  26.1579220  31.4676540  67.7345020  27.1758990  32.4363590
  71.1579410  22.7732100  18.2741500  72.0459030  23.0849330  18.0992840
  71.1284500  21.9004350  17.8822080  62.2670500  27.6789510  23.6802370
  62.7849170  26.8757770  23.6259260  61.8154520  27.6168650  24.5219200
  67.1540000  28.9455790  18.9529670  67.4955700  29.6898020  18.4572990
  66.3252710  29.2586910  19.3154500  59.7515040  24.6450880  30.5928070
  59.3929980  25.3104730  31.1801410  59.4569600  23.8134430  30.9640690
  62.9528160  25.1035120  33.4767620  62.6528300  25.2492300  32.5795440
  63.7239400  24.5440410  33.3841010  68.2956610  29.9004120  31.4722750
  68.3101150  28.9685080  31.2541660  67.5881710  29.9863880  32.1112520
  73.4293680  24.0843940  17.7421360  73.3457400  24.5158160  16.8917800
  74.1487870  24.5442290  18.1748180  74.5067820  26.5411460  30.8191330
  73.7816010  27.1340240  30.6220720  75.0343280  26.5335000  30.0204700
  74.4580930  30.9386200  20.4703490  73.8157090  30.2841820  20.7447210
  74.0711590  31.3441290  19.6944160  70.0367410  28.2671630  24.3175180
  70.3891230  27.6699760  23.6576550  69.1529740  27.9415860  24.4883430
  66.1230690  29.0269320  21.7245590  66.8101820  29.5738530  22.1053180
  65.3363110  29.5710050  21.7595200  58.2623090  24.6442140  17.2162670
  59.1317940  24.9266940  17.4998590  57.7713410  25.4578010  17.1011480
  65.4257900  26.0315350  21.3370950  65.8820680  26.8420600  21.5631140
  65.0746110  25.7138490  22.1689440  67.7290510  31.5421690  28.5663250
  68.3732730  31.7481070  29.2436670  68.0919950  30.7810090  28.1134100
  61.3269680  16.3753000  21.8093470  61.1984310  16.3670900  22.7578390
  60.5031700  16.7136090  21.4584480  69.0022590  29.5454040  27.2840700
  69.6444820  28.8447200  27.3972870  69.5271940  30.3252480  27.1037590
  72.8478310  29.8302660  17.0079840  72.6215890  29.1133100  17.6004480
  72.4574510  29.5815100  16.1701590  70.7760210  30.3448940  30.4876760
  71.1116450  30.9315630  31.1654680  69.8560550  30.2141650  30.7174550
  58.6294340  33.8569520  17.7824300  58.9891980  34.4558860  17.1281570
  58.4886680  34.4029410  18.5559330  58.3263610  18.1344120  31.2700170
  57.6122130  18.3341040  31.8752780  58.7458650  17.3583690  31.6414970
  72.4294560  27.7474600  18.6694000  72.1416260  28.2087290  19.4571880
  73.2246730  27.2872370  18.9378220  58.6136200  32.1224380  32.2566700
  58.7227320  31.1819120  32.1162090  57.9616760  32.3879130  31.6080430
  66.6048790  30.3940270  33.6564820  66.2845660  29.6749510  34.2010510
  65.9307150  31.0695340  33.7300880  64.6462960  31.2400720  18.5997970
  64.6373060  31.9730410  17.9842480  63.7261320  30.9932300  18.6924930
  60.2469600  26.4615610  19.3444730  59.6397550  27.2014510  19.3540030
  60.7218950  26.5514970  18.5182930  69.8202390  20.6266430  29.0201620
  70.1883210  19.8061640  29.3481190  68.9600590  20.6868320  29.4357270
  73.1864420  19.5823370  19.8289180  72.5577580  19.6869040  19.1147410
  72.6916340  19.8020150  20.6183060  67.6322560  31.3028960  17.2623160
  67.7334540  31.0992950  16.3325140  66.7324300  31.0487240  17.4670940
  65.1548450  21.8609320  21.2447060  64.4464600  22.3295660  21.6860670
  65.4392930  21.2031330  21.8792250  66.7804380  23.2806020  29.2439590
  67.2789630  23.7551840  29.9091440  66.9227330  22.3569540  29.4509620
  69.1863880  18.5859980  22.6842850  69.0631660  18.6046110  21.7352360
  70.1348440  18.6338920  22.8041250  66.2740670  33.8215280  21.9570830
  66.5282170  33.7836670  21.0350200  65.3253150  33.6948610  21.9499080
  63.3583470  20.1694400  18.6197770  64.2074000  20.6064550  18.5537960
  62.9914740  20.4814660  19.4469830  73.9871240  19.4973980  30.0867980
  73.4844840  20.2379380  30.4261790  74.8027900  19.8857980  29.7704770
  72.2793250  24.7407160  23.5329340  71.3383390  24.7557390  23.7077030
  72.5937320  23.9543120  23.9789640  62.2574890  26.4226760  17.0933300
  63.0238160  26.3108120  17.6558730  62.3349580  25.7264730  16.4410070
  60.9521650  23.8551830  17.7766190  61.0325240  22.9079340  17.8883590
  61.8441400  24.1858710  17.8826850  74.2818830  31.9116010  25.2083600
  74.4066250  32.7347180  25.6807410  75.1484390  31.7006740  24.8607750
  61.7536360  34.0047220  24.8800730  62.4898840  33.4562680  25.1509300
  62.1377280  34.8703230  24.7406720  58.6381840  30.0720790  20.7542240
  57.7121620  30.3141930  20.7447650  59.1038270  30.8995050  20.6326990
  60.7594640  33.1893290  34.0686310  61.5607370  33.5105340  34.4821710
  60.2446460  32.8288870  34.7906220  64.8638670  33.1777530  16.7026300
  65.6567280  33.4666360  16.2508090  64.3443020  32.7469700  16.0238780
  69.5959270  29.2973160  34.0161720  68.9897430  29.3204760  33.2757470
  69.2913380  28.5656200  34.5528970  71.0259640  33.0253450  32.6271130
  71.9781390  32.9411470  32.5771370  70.8787860  33.6895160  33.3004920
  73.9168840  32.4047660  18.1263040  73.6310350  31.9912800  17.3117220
  73.7188390  33.3335370  18.0063560  58.4792450  25.6766750  33.0122360
  58.9831470  25.0974030  33.5838590  57.7399870  25.9606980  33.5498730
  65.3816070  28.3980940  16.5668650  65.2766710  27.7833290  17.2930030
  65.2140290  27.8746830  15.7831660  65.5330390  27.0837740  32.5457880
  64.7676060  27.6522740  32.4612550  65.7146350  26.7913950  31.6526110
  68.6218800  27.4600970  17.1710640  68.0728900  27.9070270  17.8153380
  69.2438060  26.9550220  17.6948310  72.6753740  28.8143070  33.1032900
  73.4163210  29.1518830  32.6000360  71.9126420  28.9835130  32.5502670
  60.5115530  23.8196340  33.9072430  60.5520870  23.5210210  34.8157660
  61.3661030  24.2203950  33.7479950  64.2893920  26.4191890  19.0675940
  64.7110340  26.2531760  19.9107330  64.4144760  25.6092120  18.5731080
  62.4521340  22.3988440  31.8746920  61.9217800  21.9079390  31.2470260
  63.1209410  22.8272640  31.3404850  66.8021560  25.4429500  16.3153040
  67.3227220  24.7278520  15.9494190  67.4489960  26.0815370  16.6153550
  71.3499400  26.8657900  31.6388110  71.7640420  27.0202980  32.4878530
  70.4150400  26.9913120  31.8013890  71.8221570  24.2054060  33.6427260
  72.4042340  23.4506380  33.5547740  71.9983340  24.7361500  32.8658740
  62.9393640  19.3650810  31.9544210  62.8450510  18.7471560  31.2295080
  62.3591030  20.0917100  31.7274120  65.7055080  17.9224050  28.9871600
  65.2572380  17.9448310  28.1417150  65.0720280  17.5243070  29.5841900
  66.1114630  26.8178380  29.6084040  66.5302740  27.6611110  29.4360280
  65.1923260  26.9550420  29.3790820  68.4478530  24.5494560  30.9921880
  68.5674740  23.9535700  31.7316720  69.3072530  24.5864250  30.5723180
  70.7866430  25.1031750  29.5684390  70.2601650  25.6274370  28.9649530
  71.1297770  25.7359140  30.1994120  63.1852820  22.4925120  16.0134100
  62.9841880  21.6292480  16.3747440  63.0144870  22.4058480  15.0755700
  63.9622050  33.1231390  30.7241770  63.4243140  33.8477450  30.4050470
  64.2156010  32.6461730  29.9339110  65.2147300  21.0915910  32.2497700
  65.8046990  20.7831760  32.9375520  64.3967540  20.6195660  32.4057600
  70.0340730  20.7081720  32.4830720  69.3456250  20.0463260  32.4180710
  70.7546750  20.2619990  32.9279180  70.6641130  17.3033350  18.5420980
  70.9443420  16.4601250  18.8980400  69.8906860  17.5356460  19.0559730
  61.9835620  19.5925740  16.0011980  62.2861520  19.5993170  15.0931130
  62.7230210  19.2423600  16.4979640  66.8184260  34.3582600  30.9828420
  66.7442960  35.2617740  31.2900790  65.9163100  34.0394500  30.9550490
  65.2020550  18.5360360  16.9868180  64.8542550  17.8584350  16.4070630
  65.4033320  18.0749870  17.8011570  67.3669590  33.5241110  18.6054780
  68.2620380  33.8626080  18.6273540  67.3987220  32.8020520  17.9779060
  61.0065750  28.8968160  16.8341780  61.4440620  29.4397830  17.4899360
  61.4913480  28.0715110  16.8438120  58.2211550  31.6857190  24.2862040
  58.5514560  30.8178250  24.0540680  58.6502550  31.8915710  25.1167000
  62.8173470  30.0166200  21.9464010  62.5169010  29.8931170  22.8467920
  62.7110960  29.1574790  21.5379740  58.7101760  32.5527780  27.0243670
  58.2732750  32.7328580  27.8567820  59.2779440  33.3102400  26.8825390
  74.3463940  32.0544780  31.3120980  73.7465930  32.1137340  30.5684900
  74.4757840  31.1149760  31.4417830  75.5865390  29.7962600  16.6490690
  74.7558350  29.8639250  17.1197920  75.7637220  30.6866720  16.3457550
  75.0421850  26.5410080  19.1524890  75.8040760  27.1106730  19.2584580
  75.0576220  25.9737280  19.9233200  58.5426190  25.0648010  23.3832550
  57.8875030  24.7959650  22.7392250  59.3804140  24.9552490  22.9334530
  73.0315580  28.7796760  29.4097140  72.2175420  29.2093920  29.6722930
  73.4389780  29.3915170  28.7966190  75.0941020  26.8344450  16.3097410
  75.3689860  27.7423330  16.1816630  74.9051760  26.7706980  17.2459400
  71.4916630  19.8589300  17.6051040  71.9101510  19.6720280  16.7647700
  71.1852690  19.0068350  17.9153970  74.9906360  24.7713440  21.3026840
  74.6149960  24.0041370  20.8708130  74.2609480  25.1536140  21.7901770
  59.5802120  25.4500580  27.9235890  59.9475160  25.3627980  28.8031910
  59.0112940  24.6867130  27.8242750  74.3805980  23.9184960  30.9366360
  74.1492070  23.6897710  30.0364310  74.6410530  24.8384510  30.8911250
  59.1318120  22.3609670  31.8294310  58.2374170  22.3276430  32.1688020
  59.6715670  22.5596460  32.5945560  72.8194050  19.1441390  33.7146060
  73.6964230  19.1524790  34.0980060  72.8314890  18.4072230  33.1038410
  57.7564270  22.2746940  19.3257880  56.8528350  22.5377140  19.1509540
  58.2404890  22.5458110  18.5457840  74.2657320  22.9970930  24.6034080
  74.7894800  22.5033580  23.9724250  74.8516740  23.1321290  25.3481650
  74.4447040  23.0810800  28.1253630  73.4949750  23.0474340  28.2398620
  74.6260050  23.9910910  27.8903400  60.2991480  21.3312480  17.2352260
  61.0083180  20.9095700  16.7499540  59.5831420  21.3987710  16.6035610
  59.9465640  17.3851810  16.2754910  60.6693770  17.9260750  16.5936130
  60.2190160  17.1115230  15.3996450  73.7557290  22.2544280  20.5426490
  74.2516410  22.0215150  21.3275370  73.5573360  21.4156120  20.1264130
  59.6357830  16.6358000  26.1777530  60.2834020  16.0855380  25.7372690
  60.0559670  16.8901150  26.9993340  73.5310170  16.8299360  29.5347170
  74.1682390  17.4433500  29.9006360  73.6785060  16.8660020  28.5896400
  73.0891630  33.5315360  22.9365410  73.6850700  33.2099930  22.2599830
  73.3469780  33.0587180  23.7278680  59.3889830  16.7913670  28.9202850
  59.0404650  17.2477490  29.6861030  59.0577530  15.8970800  29.0025280
  60.9954200  29.9633270  33.0856040  60.9523830  29.5926180  33.9670500
  61.1265210  30.9010840  33.2257860  64.6960230  31.5192860  28.6865760
  64.4551590  31.7867420  27.7996280  65.6362870  31.6898590  28.7416620
  66.9014650  17.9825550  32.4422270  66.8403540  18.5747380  33.1917680
  67.8415030  17.8751510  32.2972530  69.5389210  17.6395610  32.0814560
  70.1529620  17.9574900  31.4195640  70.0838770  17.1544200  32.7010420
  60.0610470  16.3189870  32.1953620  60.6093460  16.1377920  31.4319730
  60.1265780  15.5283980  32.7309930  60.8342230  32.9095520  30.2053820
  60.2402550  32.7780220  30.9443860  60.8266070  32.0733660  29.7395920
  70.2797250  16.2027750  28.4083850  69.4057090  16.5362860  28.2056780
  70.1708000  15.7300930  29.2335720  71.1869230  18.4098620  29.7925570
  70.8582590  17.5950380  29.4127300  72.1351530  18.3668430  29.6691260
  73.6403840  34.1810660  26.7663140  73.1806810  34.9326470  26.3921160
  73.0116300  33.4617130  26.7077940  60.4654460  30.2753900  29.1561860
  59.7388520  29.6559190  29.0887810  60.5263610  30.6694510  28.2859940
  64.0699560  32.4898900  25.9411270  64.5864580  31.8786260  25.4159530
  64.7196940  32.9927680  26.4322280  66.8095060  33.3807390  26.7680250
  67.0972870  33.1261690  25.8913260  67.3218280  32.8284750  27.3585820
  68.0272070  17.1197590  27.3476760  67.2443860  17.5943090  27.6273520
  67.7335000  16.2152420  27.2389940  72.5793140  17.8220690  25.3925850
  73.0201230  17.7665790  24.5447450  72.3100730  18.7378700  25.4636030
  74.4431710  17.4535930  23.4034670  74.3820110  16.5097150  23.2565690
  75.2223740  17.5616020  23.9488130  58.7484460  33.5928290  22.3658620
  58.5806500  32.9598970  23.0640510  57.8818970  33.7987690  22.0152810
  59.3712480  17.4245070  19.8690480  60.1291840  17.5373950  19.2954510
  58.9089650  18.2614270  19.8233910  65.9126290  19.5384340  22.8592790
  65.1000800  19.1641230  22.5188670  66.4167930  18.7829420  23.1613980
  70.4151270  16.2026790  24.0975860  71.0180640  16.7747000  24.5724380
  69.6744260  16.7666230  23.8749760  73.5585870  16.6048350  19.3716140
  73.7536500  17.5031800  19.6383570  72.7715740  16.3735430  19.8649090
  60.3547160  32.2861520  19.8108760  59.8294780  32.6669550  19.1070720
  60.2791740  32.9112290  20.5318470  61.7437630  17.9509120  18.4092450
  62.2730390  17.1638920  18.2800400  62.3765950  18.6300310  18.6427980
  63.9375470  17.6884260  21.4637840  63.3078210  16.9871570  21.6307970
  63.3980610  18.4488390  21.2471000  66.8767420  34.3023490  34.1348450
  67.8034730  34.0667760  34.1784410  66.8617850  35.1295490  33.6534480
  75.1112480  33.8449060  21.1322700  75.2864670  33.1586800  20.4883620
  74.4134050  34.3696110  20.7399370  64.0631030  16.9668240  33.8990330
  63.7815300  17.4701840  33.1351150  64.4450730  16.1689990  33.5332460
  62.9540130  34.2343900  18.6858010  63.6858950  33.9503180  18.1381900
  63.2133800  33.9957180  19.5757390  62.1154920  30.3508630  18.6904340
  61.4863800  30.8193730  19.2390170  62.2302750  29.5057850  19.1250530
  70.6646490  16.3821820  34.4770800  70.5511940  16.7016430  35.3722320
  71.4816230  16.7834330  34.1808080  73.4444980  33.5293350  33.9589490
  74.2370300  33.0342580  33.7515450  73.7378130  34.2083490  34.5665100
  69.5704640  24.4014290   4.8405540  69.4898690  23.4868900   4.5697250
  69.1569060  24.8981360   4.1345250  67.7022680  26.1793310   6.7214810
  66.9264780  25.6993750   7.0113380  68.3535610  25.4998960   6.5470970
  61.7188510  26.4913120   7.5990570  60.8873390  26.2361830   7.9987080
  62.3269490  26.5623890   8.3348490  71.7230110  30.5853500   5.5013940
  71.2611640  29.8140740   5.8301110  72.5355660  30.6119570   6.0066390
  61.6989770  30.5253210   7.7948590  62.0017810  29.6350950   7.6158810
  62.4433360  31.0823430   7.5670840  58.0913470  24.0520660   7.2672660
  58.6629580  23.2842860   7.2676300  58.0915010  24.3509420   6.3579270
  67.9493420  32.8711510   5.1217930  67.3304860  33.3269010   4.5512370
  68.8045200  33.0262970   4.7207630  67.1431670  28.8550500   6.7284970
  67.0739950  27.9140440   6.5674100  67.9051530  28.9451910   7.3007540
  59.3338340  19.4605020   9.0541590  59.1541180  18.5630770   9.3344350
  58.9318420  20.0076890   9.7288540  68.1736840  21.6620880   6.9553900
  68.5501660  20.7892760   6.8427570  68.0756350  21.9979580   6.0644340
  62.3041850  20.0346510   2.4171340  62.4108600  20.9350240   2.7240100
  61.3934210  19.9864480   2.1265990  71.9560960  19.1571320   3.8882240
  72.7770580  18.6667890   3.9307720  71.9895040  19.7468980   4.6414080
  59.9525010  21.9565520   7.6623930  60.6335120  22.2203890   8.2811330
  59.6373060  21.1166390   7.9961940  64.1449580  23.0032880   6.7496520
  64.6527800  23.5013850   7.3901540  64.6762820  22.2268080   6.5735880
  62.4285680  17.6431440  11.0159940  62.4304120  18.1603830  10.2105840
  61.5989990  17.1661620  10.9929870  68.8156770  27.7550750   2.5149840
  68.1974040  28.2200200   1.9512560  69.3280020  28.4478230   2.9319350
  63.6788530  27.2826620   9.1933440  63.3457910  27.9095540   9.8354510
  63.8555210  27.8088500   8.4135110  72.1922440  21.0971700   6.6609780
  71.4878010  21.3856590   7.2412890  72.5534600  21.9071810   6.3009340
  62.1101010  19.3541400   9.0230390  62.4517820  20.1983450   8.7284260
  61.1716820  19.5025140   9.1395730  62.8907630  29.2507420  11.0082620
  63.5081630  29.9258500  10.7267070  62.0300750  29.6595400  10.9170120
  73.8085220  30.7146830   8.9237260  73.1248740  31.3845940   8.9153930
  74.3479510  30.9127480   8.1582120  75.2609360  20.5426490   7.0518990
  74.3134270  20.5765470   7.1834420  75.5859350  21.3565440   7.4368350
  65.7928900  16.8423670   5.3474980  66.1003880  16.2870560   4.6310480
  64.8629600  16.9768130   5.1647970  71.3443960  32.5590960   7.6382440
  71.3571120  32.1553250   6.7704700  70.7919180  33.3338250   7.5343870
  72.6389380  29.2807180   2.7272610  72.5285710  28.3381510   2.8522030
  72.6357630  29.6422820   3.6135370  70.7429400  27.4620800   8.9665050
  71.1598190  27.2480910   8.1318510  71.4669220  27.7193590   9.5373670
  68.1809660  24.9072500   2.0835100  67.2538940  24.8409880   2.3123570
  68.3334480  25.8452630   1.9690340  74.6891500  25.8608020   9.0581290
  73.8610130  25.9301110   8.5831420  75.2841980  26.4462330   8.5897120
  72.2106950  26.4692800   2.5870350  71.5919370  26.1312350   1.9396650
  72.1931400  25.8252560   3.2949540  71.6533510  22.6477340  10.0036160
  71.2404690  23.4731050  10.2576150  70.9209460  22.0622380   9.8112520
  63.7866300  25.4337240   4.8654830  63.3823300  24.7214490   4.3700730
  63.8729420  25.0890480   5.7542870  64.2548000  29.1204800   7.0294040
  63.9576290  28.5150270   6.3501820  65.2047820  29.1582110   6.9183400
  62.4994920  22.2080450   8.6453870  63.0509510  22.3175790   7.8707120
  63.0138430  22.5818050   9.3609100  72.3433610  32.6936670  10.6917140
  71.8664170  33.5008860  10.4989750  71.6595400  32.0415000  10.8443350
  63.3466430  28.8586490  13.6801840  62.4494960  29.0826460  13.9275240
  63.3719300  28.9821430  12.7313240  62.1737650  25.7299810  12.2559210
  62.0345420  26.6022610  12.6246610  61.2919010  25.3872620  12.1107150
  68.4967030  30.6475680   3.5624340  68.9362940  31.3900010   3.1479730
  68.4353920  30.8902250   4.4863300  63.9718000  31.6721510  14.4644360
  63.9433430  32.0764460  13.5972790  63.8082970  30.7431870  14.3015960
  60.4870930  24.3282220   2.3661480  60.3668530  25.0544310   1.7542750
  60.1771820  23.5585130   1.8889390  58.1256300  27.4997360   8.1730120
  58.2036720  27.6346130   7.2285840  58.7397980  26.7913250   8.3658240
  59.3703930  29.1997550   4.5836300  58.9632010  29.3412140   3.7289900
  60.2616940  28.9157710   4.3807510  75.3266070  29.6461460  12.9208540
  75.4529130  29.4073340  12.0025720  75.3687450  28.8146000  13.3930620
  69.1882810  33.3489460  11.4903350  69.7027480  33.2597470  12.2925780
  68.3451890  33.6949160  11.7831260  63.6425590  33.4143330   2.6958970
  63.4668070  32.4978870   2.4826770  62.7881330  33.7730620   2.9356770
  70.4313270  32.7695070   3.5533840  70.8870220  31.9884450   3.8672460
  70.7705790  33.4801890   4.0975020  75.1790080  21.6993920  13.8858280
  74.5634350  22.2073590  13.3573740  74.8586500  20.7992250  13.8284220
  58.1815820  28.5411530  10.7124580  58.3446860  28.0716890   9.8943950
  58.6468270  28.0335090  11.3773420  62.9534590  17.6717290   5.7485150
  62.5102740  18.4526830   5.4169670  63.5119580  17.9947180   6.4556090
  67.2404400  20.5385810  11.3520470  66.7783770  20.7468830  12.1640410
  66.8382510  19.7245160  11.0491140  72.2408910  21.7594760  12.4817130
  71.3902500  21.4600510  12.8026200  72.0810700  22.0036770  11.5700950
  69.3358620  23.2596510  14.5815920  69.6612030  22.4260260  14.2418150
  70.1238950  23.7825030  14.7294250  64.9910490  18.2164620   7.6074750
  65.2882820  19.1227450   7.5266770  65.5396050  17.7283400   6.9934320
  62.7448810  22.7950860   3.4766400  62.5189730  22.5788030   4.3813020
  61.9641340  23.2279320   3.1312370  69.9746570  22.8014230   2.0757050
  69.3755460  23.5250030   1.8920670  70.5226180  22.7391010   1.2933500
  65.1848020  23.6936440  14.1426670  65.0891620  22.7531170  13.9927070
  66.0280000  23.9151510  13.7474740  68.5811440  21.4377770   4.1060330
  68.9741010  21.7549970   3.2929020  68.9428290  20.5589650   4.2204850
  60.3158560  20.1050110  12.2960450  59.9221950  20.9525320  12.5033230
  59.6276960  19.4676480  12.4869090  66.8903610  20.1885080  15.3657190
  66.2001930  19.9957280  16.0003280  67.6335910  20.4719720  15.8981490
  57.6175610  18.0278570   6.3290530  57.3288660  18.5981430   7.0415510
  58.3621370  17.5483020   6.6921760  69.1666580  24.0283520   8.2011110
  68.4347700  24.5370330   8.5501210  68.7690920  23.2113500   7.8999890
  65.6043970  20.7037720   6.6063600  65.6080030  20.2627670   5.7568140
  66.4995090  21.0255050   6.7135420  61.4546350  20.5864210   5.5657810
  61.1146400  21.0639440   6.3224860  60.6923670  20.1329330   5.2058910
  69.6292490  19.4817200   7.6134050  69.6465230  19.9325850   8.4575900
  69.3808070  18.5822840   7.8267490  73.0563240  16.8949380  13.4520430
  73.3809010  16.1639040  13.9778410  73.0919750  16.5763020  12.5501420
  59.7554800  27.9162960  12.8720390  59.3709590  27.2756630  13.4703350
  60.0666990  28.6199080  13.4415120  65.9051940  24.7639500   8.3529010
  66.2722070  24.2898070   9.0990350  65.7157000  25.6381070   8.6937350
  58.7692430  19.5083190   4.4822480  58.4839350  19.1438860   5.3201100
  58.7071290  18.7763650   3.8685620  63.6951310  23.8048140  10.6713220
  63.3908380  24.6840120  10.8963580  64.6497770  23.8647930  10.7070660
  72.9821080  27.0074490   7.0606460  73.7020200  27.5029780   6.6702570
  72.7802900  26.3292380   6.4160330  68.3639880  27.0783550  12.9475460
  68.2977190  26.1579220  12.6933050  67.7345020  27.1758990  13.6620100
  62.2670500  27.6789510   4.9058880  62.7849170  26.8757770   4.8515770
  61.8154520  27.6168650   5.7475710  59.7515040  24.6450880  11.8184580
  59.3929980  25.3104730  12.4057920  59.4569600  23.8134430  12.1897200
  62.9528160  25.1035120  14.7024130  62.6528300  25.2492300  13.8051950
  63.7239400  24.5440410  14.6097520  68.2956610  29.9004120  12.6979260
  68.3101150  28.9685080  12.4798170  67.5881710  29.9863880  13.3369030
  74.5067820  26.5411460  12.0447840  73.7816010  27.1340240  11.8477230
  75.0343280  26.5335000  11.2461210  70.0367410  28.2671630   5.5431690
  70.3891230  27.6699760   4.8833060  69.1529740  27.9415860   5.7139940
  66.1230690  29.0269320   2.9502100  66.8101820  29.5738530   3.3309690
  65.3363110  29.5710050   2.9851710  65.4257900  26.0315350   2.5627460
  65.8820680  26.8420600   2.7887650  65.0746110  25.7138490   3.3945950
  67.7290510  31.5421690   9.7919760  68.3732730  31.7481070  10.4693180
  68.0919950  30.7810090   9.3390610  61.3269680  16.3753000   3.0349980
  61.1984310  16.3670900   3.9834900  60.5031700  16.7136090   2.6840990
  69.0022590  29.5454040   8.5097210  69.6444820  28.8447200   8.6229380
  69.5271940  30.3252480   8.3294100  70.7760210  30.3448940  11.7133270
  71.1116450  30.9315630  12.3911190  69.8560550  30.2141650  11.9431060
  58.3263610  18.1344120  12.4956680  57.6122130  18.3341040  13.1009290
  58.7458650  17.3583690  12.8671480  58.6136200  32.1224380  13.4823210
  58.7227320  31.1819120  13.3418600  57.9616760  32.3879130  12.8336940
  66.6048790  30.3940270  14.8821330  66.2845660  29.6749510  15.4267020
  65.9307150  31.0695340  14.9557390  69.8202390  20.6266430  10.2458130
  70.1883210  19.8061640  10.5737700  68.9600590  20.6868320  10.6613780
  65.1548450  21.8609320   2.4703570  64.4464600  22.3295660   2.9117180
  65.4392930  21.2031330   3.1048760  66.7804380  23.2806020  10.4696100
  67.2789630  23.7551840  11.1347950  66.9227330  22.3569540  10.6766130
  69.1863880  18.5859980   3.9099360  69.0631660  18.6046110   2.9608870
  70.1348440  18.6338920   4.0297760  66.2740670  33.8215280   3.1827340
  66.5282170  33.7836670   2.2606710  65.3253150  33.6948610   3.1755590
  73.9871240  19.4973980  11.3124490  73.4844840  20.2379380  11.6518300
  74.8027900  19.8857980  10.9961280  72.2793250  24.7407160   4.7585850
  71.3383390  24.7557390   4.9333540  72.5937320  23.9543120   5.2046150
  74.2818830  31.9116010   6.4340110  74.4066250  32.7347180   6.9063920
  75.1484390  31.7006740   6.0864260  61.7536360  34.0047220   6.1057240
  62.4898840  33.4562680   6.3765810  62.1377280  34.8703230   5.9663230
  58.6381840  30.0720790   1.9798750  57.7121620  30.3141930   1.9704160
  59.1038270  30.8995050   1.8583500  60.7594640  33.1893290  15.2942820
  61.5607370  33.5105340  15.7078220  60.2446460  32.8288870  16.0162730
  69.5959270  29.2973160  15.2418230  68.9897430  29.3204760  14.5013980
  69.2913380  28.5656200  15.7785480  71.0259640  33.0253450  13.8527640
  71.9781390  32.9411470  13.8027880  70.8787860  33.6895160  14.5261430
  58.4792450  25.6766750  14.2378870  58.9831470  25.0974030  14.8095100
  57.7399870  25.9606980  14.7755240  65.5330390  27.0837740  13.7714390
  64.7676060  27.6522740  13.6869060  65.7146350  26.7913950  12.8782620
  72.6753740  28.8143070  14.3289410  73.4163210  29.1518830  13.8256870
  71.9126420  28.9835130  13.7759180  60.5115530  23.8196340  15.1328940
  60.5520870  23.5210210  16.0414170  61.3661030  24.2203950  14.9736460
  62.4521340  22.3988440  13.1003430  61.9217800  21.9079390  12.4726770
  63.1209410  22.8272640  12.5661360  71.3499400  26.8657900  12.8644620
  71.7640420  27.0202980  13.7135040  70.4150400  26.9913120  13.0270400
  71.8221570  24.2054060  14.8683770  72.4042340  23.4506380  14.7804250
  71.9983340  24.7361500  14.0915250  62.9393640  19.3650810  13.1800720
  62.8450510  18.7471560  12.4551590  62.3591030  20.0917100  12.9530630
  65.7055080  17.9224050  10.2128110  65.2572380  17.9448310   9.3673660
  65.0720280  17.5243070  10.8098410  66.1114630  26.8178380  10.8340550
  66.5302740  27.6611110  10.6616790  65.1923260  26.9550420  10.6047330
  68.4478530  24.5494560  12.2178390  68.5674740  23.9535700  12.9573230
  69.3072530  24.5864250  11.7979690  70.7866430  25.1031750  10.7940900
  70.2601650  25.6274370  10.1906040  71.1297770  25.7359140  11.4250630
  63.9622050  33.1231390  11.9498280  63.4243140  33.8477450  11.6306980
  64.2156010  32.6461730  11.1595620  65.2147300  21.0915910  13.4754210
  65.8046990  20.7831760  14.1632030  64.3967540  20.6195660  13.6314110
  70.0340730  20.7081720  13.7087230  69.3456250  20.0463260  13.6437220
  70.7546750  20.2619990  14.1535690  66.8184260  34.3582600  12.2084930
  66.7442960  35.2617740  12.5157300  65.9163100  34.0394500  12.1807000
  58.2211550  31.6857190   5.5118550  58.5514560  30.8178250   5.2797190
  58.6502550  31.8915710   6.3423510  62.8173470  30.0166200   3.1720520
  62.5169010  29.8931170   4.0724430  62.7110960  29.1574790   2.7636250
  58.7101760  32.5527780   8.2500180  58.2732750  32.7328580   9.0824330
  59.2779440  33.3102400   8.1081900  74.3463940  32.0544780  12.5377490
  73.7465930  32.1137340  11.7941410  74.4757840  31.1149760  12.6674340
  58.5426190  25.0648010   4.6089060  57.8875030  24.7959650   3.9648760
  59.3804140  24.9552490   4.1591040  73.0315580  28.7796760  10.6353650
  72.2175420  29.2093920  10.8979440  73.4389780  29.3915170  10.0222700
  74.9906360  24.7713440   2.5283350  74.6149960  24.0041370   2.0964640
  74.2609480  25.1536140   3.0158280  59.5802120  25.4500580   9.1492400
  59.9475160  25.3627980  10.0288420  59.0112940  24.6867130   9.0499260
  74.3805980  23.9184960  12.1622870  74.1492070  23.6897710  11.2620820
  74.6410530  24.8384510  12.1167760  59.1318120  22.3609670  13.0550820
  58.2374170  22.3276430  13.3944530  59.6715670  22.5596460  13.8202070
  72.8194050  19.1441390  14.9402570  73.6964230  19.1524790  15.3236570
  72.8314890  18.4072230  14.3294920  74.2657320  22.9970930   5.8290590
  74.7894800  22.5033580   5.1980760  74.8516740  23.1321290   6.5738160
  74.4447040  23.0810800   9.3510140  73.4949750  23.0474340   9.4655130
  74.6260050  23.9910910   9.1159910  73.7557290  22.2544280   1.7683000
  74.2516410  22.0215150   2.5531880  73.5573360  21.4156120   1.3520640
  59.6357830  16.6358000   7.4034040  60.2834020  16.0855380   6.9629200
  60.0559670  16.8901150   8.2249850  73.5310170  16.8299360  10.7603680
  74.1682390  17.4433500  11.1262870  73.6785060  16.8660020   9.8152910
  73.0891630  33.5315360   4.1621920  73.6850700  33.2099930   3.4856340
  73.3469780  33.0587180   4.9535190  59.3889830  16.7913670  10.1459360
  59.0404650  17.2477490  10.9117540  59.0577530  15.8970800  10.2281790
  60.9954200  29.9633270  14.3112550  60.9523830  29.5926180  15.1927010
  61.1265210  30.9010840  14.4514370  64.6960230  31.5192860   9.9122270
  64.4551590  31.7867420   9.0252790  65.6362870  31.6898590   9.9673130
  66.9014650  17.9825550  13.6678780  66.8403540  18.5747380  14.4174190
  67.8415030  17.8751510  13.5229040  69.5389210  17.6395610  13.3071070
  70.1529620  17.9574900  12.6452150  70.0838770  17.1544200  13.9266930
  60.0610470  16.3189870  13.4210130  60.6093460  16.1377920  12.6576240
  60.1265780  15.5283980  13.9566440  60.8342230  32.9095520  11.4310330
  60.2402550  32.7780220  12.1700370  60.8266070  32.0733660  10.9652430
  70.2797250  16.2027750   9.6340360  69.4057090  16.5362860   9.4313290
  70.1708000  15.7300930  10.4592230  71.1869230  18.4098620  11.0182080
  70.8582590  17.5950380  10.6383810  72.1351530  18.3668430  10.8947770
  73.6403840  34.1810660   7.9919650  73.1806810  34.9326470   7.6177670
  73.0116300  33.4617130   7.9334450  60.4654460  30.2753900  10.3818370
  59.7388520  29.6559190  10.3144320  60.5263610  30.6694510   9.5116450
  64.0699560  32.4898900   7.1667780  64.5864580  31.8786260   6.6416040
  64.7196940  32.9927680   7.6578790  66.8095060  33.3807390   7.9936760
  67.0972870  33.1261690   7.1169770  67.3218280  32.8284750   8.5842330
  68.0272070  17.1197590   8.5733270  67.2443860  17.5943090   8.8530030
  67.7335000  16.2152420   8.4646450  72.5793140  17.8220690   6.6182360
  73.0201230  17.7665790   5.7703960  72.3100730  18.7378700   6.6892540
  74.4431710  17.4535930   4.6291180  74.3820110  16.5097150   4.4822200
  75.2223740  17.5616020   5.1744640  58.7484460  33.5928290   3.5915130
  58.5806500  32.9598970   4.2897020  57.8818970  33.7987690   3.2409320
  65.9126290  19.5384340   4.0849300  65.1000800  19.1641230   3.7445180
  66.4167930  18.7829420   4.3870490  70.4151270  16.2026790   5.3232370
  71.0180640  16.7747000   5.7980890  69.6744260  16.7666230   5.1006270
  63.9375470  17.6884260   2.6894350  63.3078210  16.9871570   2.8564480
  63.3980610  18.4488390   2.4727510  66.8767420  34.3023490  15.3604960
  67.8034730  34.0667760  15.4040920  66.8617850  35.1295490  14.8790990
  75.1112480  33.8449060   2.3579210  75.2864670  33.1586800   1.7140130
  74.4134050  34.3696110   1.9655880  64.0631030  16.9668240  15.1246840
  63.7815300  17.4701840  14.3607660  64.4450730  16.1689990  14.7588970
  70.6646490  16.3821820  15.7027310  70.5511940  16.7016430  16.5978830
  71.4816230  16.7834330  15.4064590  73.4444980  33.5293350  15.1846000
  74.2370300  33.0342580  14.9771960  73.7378130  34.2083490  15.7921610
  69.5704640   5.6270800  61.1636010  69.4898690   4.7125410  60.8927720
  69.1569060   6.1237870  60.4575720  67.7022680   7.4049820  63.0445280
  66.9264780   6.9250260  63.3343850  68.3535610   6.7255470  62.8701440
  61.7188510   7.7169630  63.9221040  60.8873390   7.4618340  64.3217550
  62.3269490   7.7880400  64.6578960  71.7230110  11.8110010  61.8244410
  71.2611640  11.0397250  62.1531580  72.5355660  11.8376080  62.3296860
  61.6989770  11.7509720  64.1179060  62.0017810  10.8607460  63.9389280
  62.4433360  12.3079940  63.8901310  60.1280460   2.6771520  57.7063430
  59.2397160   3.0187490  57.6043310  60.4121650   2.4771840  56.8144260
  58.0913470   5.2777170  63.5903130  58.6629580   4.5099370  63.5906770
  58.0915010   5.5765930  62.6809740  67.9493420  14.0968020  61.4448400
  67.3304860  14.5525520  60.8742840  68.8045200  14.2519480  61.0438100
  67.1431670  10.0807010  63.0515440  67.0739950   9.1396950  62.8904570
  67.9051530  10.1708420  63.6238010  68.1736840   2.8877390  63.2784370
  68.5501660   2.0149270  63.1658040  68.0756350   3.2236090  62.3874810
  59.9525010   3.1822030  63.9854400  60.6335120   3.4460400  64.6041800
  59.6373060   2.3422900  64.3192410  64.1449580   4.2289390  63.0726990
  64.6527800   4.7270360  63.7132010  64.6762820   3.4524590  62.8966350
  68.8156770   8.9807260  58.8380310  68.1974040   9.4456710  58.2743030
  69.3280020   9.6734740  59.2549820  63.6788530   8.5083130  65.5163910
  63.3457910   9.1352050  66.1584980  63.8555210   9.0345010  64.7365580
  72.1922440   2.3228210  62.9840250  71.4878010   2.6113100  63.5643360
  72.5534600   3.1328320  62.6239810  62.8907630  10.4763930  67.3313090
  63.5081630  11.1515010  67.0497540  62.0300750  10.8851910  67.2400590
  58.1839970   9.6663790  56.2119940  57.8067950  10.1550890  55.4804840
  58.4413040  10.3389070  56.8426470  73.8085220  11.9403340  65.2467730
  73.1248740  12.6102450  65.2384400  74.3479510  12.1383990  64.4812590
  75.2609360   1.7683000  63.3749460  74.3134270   1.8021980  63.5064890
  75.5859350   2.5821950  63.7598820  71.3443960  13.7847470  63.9612910
  71.3571120  13.3809760  63.0935170  70.7919180  14.5594760  63.8574340
  72.6389380  10.5063690  59.0503080  72.5285710   9.5638020  59.1752500
  72.6357630  10.8679330  59.9365840  70.7429400   8.6877310  65.2895520
  71.1598190   8.4737420  64.4548980  71.4669220   8.9450100  65.8604140
  68.1809660   6.1329010  58.4065570  67.2538940   6.0666390  58.6354040
  68.3334480   7.0709140  58.2920810  68.1678740   2.4046010  55.4032730
  67.2282410   2.5659970  55.4885190  68.4862000   3.1231690  54.8568720
  74.6891500   7.0864530  65.3811760  73.8610130   7.1557620  64.9061890
  75.2841980   7.6718840  64.9127590  72.2106950   7.6949310  58.9100820
  71.5919370   7.3568860  58.2627120  72.1931400   7.0509070  59.6180010
  71.6533510   3.8733850  66.3266630  71.2404690   4.6987560  66.5806620
  70.9209460   3.2878890  66.1342990  63.7866300   6.6593750  61.1885300
  63.3823300   5.9471000  60.6931200  63.8729420   6.3146990  62.0773340
  64.2548000  10.3461310  63.3524510  63.9576290   9.7406780  62.6732290
  65.2047820  10.3838620  63.2413870  62.4994920   3.4336960  64.9684340
  63.0509510   3.5432300  64.1937590  63.0138430   3.8074560  65.6839570
  72.3433610  13.9193180  67.0147610  71.8664170  14.7265370  66.8220220
  71.6595400  13.2671510  67.1673820  70.3871650   6.9336120  55.9173570
  70.8264930   6.0958550  55.7711390  71.1000070   7.5665520  56.0037710
  68.4967030  11.8732190  59.8854810  68.9362940  12.6156520  59.4710200
  68.4353920  12.1158760  60.8093770  60.4870930   5.5538730  58.6891950
  60.3668530   6.2800820  58.0773220  60.1771820   4.7841640  58.2119860
  58.1256300   8.7253870  64.4960590  58.2036720   8.8602640  63.5516310
  58.7397980   8.0169760  64.6888710  59.3703930  10.4254060  60.9066770
  58.9632010  10.5668650  60.0520370  60.2616940  10.1414220  60.7037980
  71.1637210  14.8601310  57.2417820  71.0038350  14.5704250  58.1399650
  70.9983920  14.0841440  56.7063050  63.6425590  14.6399840  59.0189440
  63.4668070  13.7235380  58.8057240  62.7881330  14.9987130  59.2587240
  70.8663340  12.3688870  55.8015820  70.1728500  12.3666160  55.1418100
  71.6086200  11.9448190  55.3709990  70.4313270  13.9951580  59.8764310
  70.8870220  13.2140960  60.1902930  70.7705790  14.7058400  60.4205490
  58.1815820   9.7668040  67.0355050  58.3446860   9.2973400  66.2174420
  58.6468270   9.2591600  67.7003890  62.7448810   4.0207370  59.7996870
  62.5189730   3.8044540  60.7043490  61.9641340   4.4535830  59.4542840
  69.9746570   4.0270740  58.3987520  69.3755460   4.7506540  58.2151140
  70.5226180   3.9647520  57.6163970  68.5811440   2.6634280  60.4290800
  68.9741010   2.9806480  59.6159490  68.9428290   1.7846160  60.5435320
  57.8045840   3.1955200  53.8623720  57.7220510   4.1385960  54.0038710
  57.4528900   3.0530110  52.9836070  69.1666580   5.2540030  64.5241580
  68.4347700   5.7626840  64.8731680  68.7690920   4.4370010  64.2230360
  65.6664120   2.9306310  55.9200830  65.7876940   2.8892790  56.8686650
  65.2812630   3.7930460  55.7647560  64.6785620   5.2407450  55.3184130
  64.1102520   4.7925700  54.6920040  65.3874620   5.6000230  54.7849280
  65.9051940   5.9896010  64.6759480  66.2722070   5.5154580  65.4220820
  65.7157000   6.8637580  65.0167820  63.6951310   5.0304650  66.9943690
  63.3908380   5.9096630  67.2194050  64.6497770   5.0904440  67.0301130
  62.2233100   9.2365640  57.5910540  61.4495360   8.6963260  57.4309260
  62.9527730   8.7172250  57.2528300  72.9821080   8.2331000  63.3836930
  73.7020200   8.7286290  62.9933040  72.7802900   7.5548890  62.7390800
  71.1579410   3.9988610  55.8228480  72.0459030   4.3105840  55.6479820
  71.1284500   3.1260860  55.4309060  62.2670500   8.9046020  61.2289350
  62.7849170   8.1014280  61.1746240  61.8154520   8.8425160  62.0706180
  67.1540000  10.1712300  56.5016650  67.4955700  10.9154530  56.0059970
  66.3252710  10.4843420  56.8641480  73.4293680   5.3100450  55.2908340
  73.3457400   5.7414670  54.4404780  74.1487870   5.7698800  55.7235160
  74.4580930  12.1642710  58.0190470  73.8157090  11.5098330  58.2934190
  74.0711590  12.5697800  57.2431140  70.0367410   9.4928140  61.8662160
  70.3891230   8.8956270  61.2063530  69.1529740   9.1672370  62.0370410
  66.1230690  10.2525830  59.2732570  66.8101820  10.7995040  59.6540160
  65.3363110  10.7966560  59.3082180  58.2623090   5.8698650  54.7649650
  59.1317940   6.1523450  55.0485570  57.7713410   6.6834520  54.6498460
  65.4257900   7.2571860  58.8857930  65.8820680   8.0677110  59.1118120
  65.0746110   6.9395000  59.7176420  67.7290510  12.7678200  66.1150230
  68.3732730  12.9737580  66.7923650  68.0919950  12.0066600  65.6621080
  69.0022590  10.7710550  64.8327680  69.6444820  10.0703710  64.9459850
  69.5271940  11.5508990  64.6524570  72.8478310  11.0559170  54.5566820
  72.6215890  10.3389610  55.1491460  72.4574510  10.8071610  53.7188570
  58.6294340  15.0826030  55.3311280  58.9891980  15.6815370  54.6768550
  58.4886680  15.6285920  56.1046310  72.4294560   8.9731110  56.2180980
  72.1416260   9.4343800  57.0058860  73.2246730   8.5128880  56.4865200
  64.6462960  12.4657230  56.1484950  64.6373060  13.1986920  55.5329460
  63.7261320  12.2188810  56.2411910  60.2469600   7.6872120  56.8931710
  59.6397550   8.4271020  56.9027010  60.7218950   7.7771480  56.0669910
  67.6322560  12.5285470  54.8110140  67.7334540  12.3249460  53.8812120
  66.7324300  12.2743750  55.0157920  65.1548450   3.0865830  58.7934040
  64.4464600   3.5552170  59.2347650  65.4392930   2.4287840  59.4279230
  66.7804380   4.5062530  66.7926570  67.2789630   4.9808350  67.4578420
  66.9227330   3.5826050  66.9996600  66.2740670  15.0471790  59.5057810
  66.5282170  15.0093180  58.5837180  65.3253150  14.9205120  59.4986060
  72.2793250   5.9663670  61.0816320  71.3383390   5.9813900  61.2564010
  72.5937320   5.1799630  61.5276620  62.2574890   7.6483270  54.6420280
  63.0238160   7.5364630  55.2045710  62.3349580   6.9521240  53.9897050
  60.9521650   5.0808340  55.3253170  61.0325240   4.1335850  55.4370570
  61.8441400   5.4115220  55.4313830  74.2818830  13.1372520  62.7570580
  74.4066250  13.9603690  63.2294390  75.1484390  12.9263250  62.4094730
  61.7536360  15.2303730  62.4287710  62.4898840  14.6819190  62.6996280
  62.1377280  16.0959740  62.2893700  58.6381840  11.2977300  58.3029220
  57.7121620  11.5398440  58.2934630  59.1038270  12.1251560  58.1813970
  64.8638670  14.4034040  54.2513280  65.6567280  14.6922870  53.7995070
  64.3443020  13.9726210  53.5725760  73.9168840  13.6304170  55.6750020
  73.6310350  13.2169310  54.8604200  73.7188390  14.5591880  55.5550540
  65.3816070   9.6237450  54.1155630  65.2766710   9.0089800  54.8417010
  65.2140290   9.1003340  53.3318640  68.6218800   8.6857480  54.7197620
  68.0728900   9.1326780  55.3640360  69.2438060   8.1806730  55.2435290
  64.2893920   7.6448400  56.6162920  64.7110340   7.4788270  57.4594310
  64.4144760   6.8348630  56.1218060  66.8021560   6.6686010  53.8640020
  67.3227220   5.9535030  53.4981170  67.4489960   7.3071880  54.1640530
  66.1114630   8.0434890  67.1571020  66.5302740   8.8867620  66.9847260
  65.1923260   8.1806930  66.9277800  70.7866430   6.3288260  67.1171370
  70.2601650   6.8530880  66.5136510  71.1297770   6.9615650  67.7481100
  63.1852820   3.7181630  53.5621080  62.9841880   2.8548990  53.9234420
  63.0144870   3.6314990  52.6242680  67.3669590  14.7497620  56.1541760
  68.2620380  15.0882590  56.1760520  67.3987220  14.0277030  55.5266040
  61.0065750  10.1224670  54.3828760  61.4440620  10.6654340  55.0386340
  61.4913480   9.2971620  54.3925100  58.2211550  12.9113700  61.8349020
  58.5514560  12.0434760  61.6027660  58.6502550  13.1172220  62.6653980
  62.8173470  11.2422710  59.4950990  62.5169010  11.1187680  60.3954900
  62.7110960  10.3831300  59.0866720  58.7101760  13.7784290  64.5730650
  58.2732750  13.9585090  65.4054800  59.2779440  14.5358910  64.4312370
  75.5865390  11.0219110  54.1977670  74.7558350  11.0895760  54.6684900
  75.7637220  11.9123230  53.8944530  75.0421850   7.7666590  56.7011870
  75.8040760   8.3363240  56.8071560  75.0576220   7.1993790  57.4720180
  58.5426190   6.2904520  60.9319530  57.8875030   6.0216160  60.2879230
  59.3804140   6.1809000  60.4821510  73.0315580  10.0053270  66.9584120
  72.2175420  10.4350430  67.2209910  73.4389780  10.6171680  66.3453170
  75.0941020   8.0600960  53.8584390  75.3689860   8.9679840  53.7303610
  74.9051760   7.9963490  54.7946380  74.9906360   5.9969950  58.8513820
  74.6149960   5.2297880  58.4195110  74.2609480   6.3792650  59.3388750
  59.5802120   6.6757090  65.4722870  59.9475160   6.5884490  66.3518890
  59.0112940   5.9123640  65.3729730  57.7564270   3.5003450  56.8744860
  56.8528350   3.7633650  56.6996520  58.2404890   3.7714620  56.0944820
  74.2657320   4.2227440  62.1521060  74.7894800   3.7290090  61.5211230
  74.8516740   4.3577800  62.8968630  74.4447040   4.3067310  65.6740610
  73.4949750   4.2730850  65.7885600  74.6260050   5.2167420  65.4390380
  60.2991480   2.5568990  54.7839240  61.0083180   2.1352210  54.2986520
  59.5831420   2.6244220  54.1522590  73.7557290   3.4800790  58.0913470
  74.2516410   3.2471660  58.8762350  73.5573360   2.6412630  57.6751110
  73.0891630  14.7571870  60.4852390  73.6850700  14.4356440  59.8086810
  73.3469780  14.2843690  61.2765660  64.6960230  12.7449370  66.2352740
  64.4551590  13.0123930  65.3483260  65.6362870  12.9155100  66.2903600
  73.6403840  15.4067170  64.3150120  73.1806810  16.1582980  63.9408140
  73.0116300  14.6873640  64.2564920  60.4654460  11.5010410  66.7048840
  59.7388520  10.8815700  66.6374790  60.5263610  11.8951020  65.8346920
  64.0699560  13.7155410  63.4898250  64.5864580  13.1042770  62.9646510
  64.7196940  14.2184190  63.9809260  66.8095060  14.6063900  64.3167230
  67.0972870  14.3518200  63.4400240  67.3218280  14.0541260  64.9072800
  58.7484460  14.8184800  59.9145600  58.5806500  14.1855480  60.6127490
  57.8818970  15.0244200  59.5639790  60.3547160  13.5118030  57.3595740
  59.8294780  13.8926060  56.6557700  60.2791740  14.1368800  58.0805450
  75.1112480  15.0705570  58.6809680  75.2864670  14.3843310  58.0370600
  74.4134050  15.5952620  58.2886350  62.9540130  15.4600410  56.2344990
  63.6858950  15.1759690  55.6868880  63.2133800  15.2213690  57.1244370
  62.1154920  11.5765140  56.2391320  61.4863800  12.0450240  56.7877150
  62.2302750  10.7314360  56.6737510  69.5704640   5.6270800  42.3892520
  69.4898690   4.7125410  42.1184230  69.1569060   6.1237870  41.6832230
  67.7022680   7.4049820  44.2701790  66.9264780   6.9250260  44.5600360
  68.3535610   6.7255470  44.0957950  61.7188510   7.7169630  45.1477550
  60.8873390   7.4618340  45.5474060  62.3269490   7.7880400  45.8835470
  71.7230110  11.8110010  43.0500920  71.2611640  11.0397250  43.3788090
  72.5355660  11.8376080  43.5553370  61.6989770  11.7509720  45.3435570
  62.0017810  10.8607460  45.1645790  62.4433360  12.3079940  45.1157820
  60.1280460   2.6771520  38.9319940  59.2397160   3.0187490  38.8299820
  60.4121650   2.4771840  38.0400770  58.0913470   5.2777170  44.8159640
  58.6629580   4.5099370  44.8163280  58.0915010   5.5765930  43.9066250
  67.9493420  14.0968020  42.6704910  67.3304860  14.5525520  42.0999350
  68.8045200  14.2519480  42.2694610  67.1431670  10.0807010  44.2771950
  67.0739950   9.1396950  44.1161080  67.9051530  10.1708420  44.8494520
  68.1736840   2.8877390  44.5040880  68.5501660   2.0149270  44.3914550
  68.0756350   3.2236090  43.6131320  59.9525010   3.1822030  45.2110910
  60.6335120   3.4460400  45.8298310  59.6373060   2.3422900  45.5448920
  64.1449580   4.2289390  44.2983500  64.6527800   4.7270360  44.9388520
  64.6762820   3.4524590  44.1222860  68.8156770   8.9807260  40.0636820
  68.1974040   9.4456710  39.4999540  69.3280020   9.6734740  40.4806330
  63.6788530   8.5083130  46.7420420  63.3457910   9.1352050  47.3841490
  63.8555210   9.0345010  45.9622090  72.1922440   2.3228210  44.2096760
  71.4878010   2.6113100  44.7899870  72.5534600   3.1328320  43.8496320
  62.8907630  10.4763930  48.5569600  63.5081630  11.1515010  48.2754050
  62.0300750  10.8851910  48.4657100  58.1839970   9.6663790  37.4376450
  57.8067950  10.1550890  36.7061350  58.4413040  10.3389070  38.0682980
  73.8085220  11.9403340  46.4724240  73.1248740  12.6102450  46.4640910
  74.3479510  12.1383990  45.7069100  75.2609360   1.7683000  44.6005970
  74.3134270   1.8021980  44.7321400  75.5859350   2.5821950  44.9855330
  71.3443960  13.7847470  45.1869420  71.3571120  13.3809760  44.3191680
  70.7919180  14.5594760  45.0830850  72.6389380  10.5063690  40.2759590
  72.5285710   9.5638020  40.4009010  72.6357630  10.8679330  41.1622350
  70.7429400   8.6877310  46.5152030  71.1598190   8.4737420  45.6805490
  71.4669220   8.9450100  47.0860650  68.1809660   6.1329010  39.6322080
  67.2538940   6.0666390  39.8610550  68.3334480   7.0709140  39.5177320
  68.1678740   2.4046010  36.6289240  67.2282410   2.5659970  36.7141700
  68.4862000   3.1231690  36.0825230  74.6891500   7.0864530  46.6068270
  73.8610130   7.1557620  46.1318400  75.2841980   7.6718840  46.1384100
  72.2106950   7.6949310  40.1357330  71.5919370   7.3568860  39.4883630
  72.1931400   7.0509070  40.8436520  71.6533510   3.8733850  47.5523140
  71.2404690   4.6987560  47.8063130  70.9209460   3.2878890  47.3599500
  63.7866300   6.6593750  42.4141810  63.3823300   5.9471000  41.9187710
  63.8729420   6.3146990  43.3029850  64.2548000  10.3461310  44.5781020
  63.9576290   9.7406780  43.8988800  65.2047820  10.3838620  44.4670380
  62.4994920   3.4336960  46.1940850  63.0509510   3.5432300  45.4194100
  63.0138430   3.8074560  46.9096080  72.3433610  13.9193180  48.2404120
  71.8664170  14.7265370  48.0476730  71.6595400  13.2671510  48.3930330
  63.3466430  10.0843000  51.2288820  62.4494960  10.3082970  51.4762220
  63.3719300  10.2077940  50.2800220  70.3871650   6.9336120  37.1430080
  70.8264930   6.0958550  36.9967900  71.1000070   7.5665520  37.2294220
  62.1737650   6.9556320  49.8046190  62.0345420   7.8279120  50.1733590
  61.2919010   6.6129130  49.6594130  68.4967030  11.8732190  41.1111320
  68.9362940  12.6156520  40.6966710  68.4353920  12.1158760  42.0350280
  63.9718000  12.8978020  52.0131340  63.9433430  13.3020970  51.1459770
  63.8082970  11.9688380  51.8502940  60.4870930   5.5538730  39.9148460
  60.3668530   6.2800820  39.3029730  60.1771820   4.7841640  39.4376370
  58.1256300   8.7253870  45.7217100  58.2036720   8.8602640  44.7772820
  58.7397980   8.0169760  45.9145220  59.3703930  10.4254060  42.1323280
  58.9632010  10.5668650  41.2776880  60.2616940  10.1414220  41.9294490
  75.3266070  10.8717970  50.4695520  75.4529130  10.6329850  49.5512700
  75.3687450  10.0402510  50.9417600  69.1882810  14.5745970  49.0390330
  69.7027480  14.4853980  49.8412760  68.3451890  14.9205670  49.3318240
  71.1637210  14.8601310  38.4674330  71.0038350  14.5704250  39.3656160
  70.9983920  14.0841440  37.9319560  63.6425590  14.6399840  40.2445950
  63.4668070  13.7235380  40.0313750  62.7881330  14.9987130  40.4843750
  70.8663340  12.3688870  37.0272330  70.1728500  12.3666160  36.3674610
  71.6086200  11.9448190  36.5966500  70.4313270  13.9951580  41.1020820
  70.8870220  13.2140960  41.4159440  70.7705790  14.7058400  41.6462000
  75.1790080   2.9250430  51.4345260  74.5634350   3.4330100  50.9060720
  74.8586500   2.0248760  51.3771200  58.1815820   9.7668040  48.2611560
  58.3446860   9.2973400  47.4430930  58.6468270   9.2591600  48.9260400
  72.2408910   2.9851270  50.0304110  71.3902500   2.6857020  50.3513180
  72.0810700   3.2293280  49.1187930  69.3358620   4.4853020  52.1302900
  69.6612030   3.6516770  51.7905130  70.1238950   5.0081540  52.2781230
  62.7448810   4.0207370  41.0253380  62.5189730   3.8044540  41.9300000
  61.9641340   4.4535830  40.6799350  69.9746570   4.0270740  39.6244030
  69.3755460   4.7506540  39.4407650  70.5226180   3.9647520  38.8420480
  65.1848020   4.9192950  51.6913650  65.0891620   3.9787680  51.5414050
  66.0280000   5.1408020  51.2961720  68.5811440   2.6634280  41.6547310
  68.9741010   2.9806480  40.8416000  68.9428290   1.7846160  41.7691830
  57.8045840   3.1955200  35.0880230  57.7220510   4.1385960  35.2295220
  57.4528900   3.0530110  34.2092580  69.1666580   5.2540030  45.7498090
  68.4347700   5.7626840  46.0988190  68.7690920   4.4370010  45.4486870
  65.6664120   2.9306310  37.1457340  65.7876940   2.8892790  38.0943160
  65.2812630   3.7930460  36.9904070  64.6785620   5.2407450  36.5440640
  64.1102520   4.7925700  35.9176550  65.3874620   5.6000230  36.0105790
  59.7554800   9.1419470  50.4207370  59.3709590   8.5013140  51.0190330
  60.0666990   9.8455590  50.9902100  65.9051940   5.9896010  45.9015990
  66.2722070   5.5154580  46.6477330  65.7157000   6.8637580  46.2424330
  63.6951310   5.0304650  48.2200200  63.3908380   5.9096630  48.4450560
  64.6497770   5.0904440  48.2557640  62.2233100   9.2365640  38.8167050
  61.4495360   8.6963260  38.6565770  62.9527730   8.7172250  38.4784810
  72.9821080   8.2331000  44.6093440  73.7020200   8.7286290  44.2189550
  72.7802900   7.5548890  43.9647310  68.3639880   8.3040060  50.4962440
  68.2977190   7.3835730  50.2420030  67.7345020   8.4015500  51.2107080
  71.1579410   3.9988610  37.0484990  72.0459030   4.3105840  36.8736330
  71.1284500   3.1260860  36.6565570  62.2670500   8.9046020  42.4545860
  62.7849170   8.1014280  42.4002750  61.8154520   8.8425160  43.2962690
  67.1540000  10.1712300  37.7273160  67.4955700  10.9154530  37.2316480
  66.3252710  10.4843420  38.0897990  59.7515040   5.8707390  49.3671560
  59.3929980   6.5361240  49.9544900  59.4569600   5.0390940  49.7384180
  62.9528160   6.3291630  52.2511110  62.6528300   6.4748810  51.3538930
  63.7239400   5.7696920  52.1584500  68.2956610  11.1260630  50.2466240
  68.3101150  10.1941590  50.0285150  67.5881710  11.2120390  50.8856010
  73.4293680   5.3100450  36.5164850  73.3457400   5.7414670  35.6661290
  74.1487870   5.7698800  36.9491670  74.5067820   7.7667970  49.5934820
  73.7816010   8.3596750  49.3964210  75.0343280   7.7591510  48.7948190
  74.4580930  12.1642710  39.2446980  73.8157090  11.5098330  39.5190700
  74.0711590  12.5697800  38.4687650  70.0367410   9.4928140  43.0918670
  70.3891230   8.8956270  42.4320040  69.1529740   9.1672370  43.2626920
  66.1230690  10.2525830  40.4989080  66.8101820  10.7995040  40.8796670
  65.3363110  10.7966560  40.5338690  58.2623090   5.8698650  35.9906160
  59.1317940   6.1523450  36.2742080  57.7713410   6.6834520  35.8754970
  65.4257900   7.2571860  40.1114440  65.8820680   8.0677110  40.3374630
  65.0746110   6.9395000  40.9432930  67.7290510  12.7678200  47.3406740
  68.3732730  12.9737580  48.0180160  68.0919950  12.0066600  46.8877590
  69.0022590  10.7710550  46.0584190  69.6444820  10.0703710  46.1716360
  69.5271940  11.5508990  45.8781080  72.8478310  11.0559170  35.7823330
  72.6215890  10.3389610  36.3747970  72.4574510  10.8071610  34.9445080
  70.7760210  11.5705450  49.2620250  71.1116450  12.1572140  49.9398170
  69.8560550  11.4398160  49.4918040  58.6294340  15.0826030  36.5567790
  58.9891980  15.6815370  35.9025060  58.4886680  15.6285920  37.3302820
  72.4294560   8.9731110  37.4437490  72.1416260   9.4343800  38.2315370
  73.2246730   8.5128880  37.7121710  58.6136200  13.3480890  51.0310190
  58.7227320  12.4075630  50.8905580  57.9616760  13.6135640  50.3823920
  66.6048790  11.6196780  52.4308310  66.2845660  10.9006020  52.9754000
  65.9307150  12.2951850  52.5044370  64.6462960  12.4657230  37.3741460
  64.6373060  13.1986920  36.7585970  63.7261320  12.2188810  37.4668420
  60.2469600   7.6872120  38.1188220  59.6397550   8.4271020  38.1283520
  60.7218950   7.7771480  37.2926420  67.6322560  12.5285470  36.0366650
  67.7334540  12.3249460  35.1068630  66.7324300  12.2743750  36.2414430
  65.1548450   3.0865830  40.0190550  64.4464600   3.5552170  40.4604160
  65.4392930   2.4287840  40.6535740  66.7804380   4.5062530  48.0183080
  67.2789630   4.9808350  48.6834930  66.9227330   3.5826050  48.2253110
  66.2740670  15.0471790  40.7314320  66.5282170  15.0093180  39.8093690
  65.3253150  14.9205120  40.7242570  72.2793250   5.9663670  42.3072830
  71.3383390   5.9813900  42.4820520  72.5937320   5.1799630  42.7533130
  62.2574890   7.6483270  35.8676790  63.0238160   7.5364630  36.4302220
  62.3349580   6.9521240  35.2153560  60.9521650   5.0808340  36.5509680
  61.0325240   4.1335850  36.6627080  61.8441400   5.4115220  36.6570340
  74.2818830  13.1372520  43.9827090  74.4066250  13.9603690  44.4550900
  75.1484390  12.9263250  43.6351240  61.7536360  15.2303730  43.6544220
  62.4898840  14.6819190  43.9252790  62.1377280  16.0959740  43.5150210
  58.6381840  11.2977300  39.5285730  57.7121620  11.5398440  39.5191140
  59.1038270  12.1251560  39.4070480  60.7594640  14.4149800  52.8429800
  61.5607370  14.7361850  53.2565200  60.2446460  14.0545380  53.5649710
  64.8638670  14.4034040  35.4769790  65.6567280  14.6922870  35.0251580
  64.3443020  13.9726210  34.7982270  69.5959270  10.5229670  52.7905210
  68.9897430  10.5461270  52.0500960  69.2913380   9.7912710  53.3272460
  71.0259640  14.2509960  51.4014620  71.9781390  14.1667980  51.3514860
  70.8787860  14.9151670  52.0748410  73.9168840  13.6304170  36.9006530
  73.6310350  13.2169310  36.0860710  73.7188390  14.5591880  36.7807050
  58.4792450   6.9023260  51.7865850  58.9831470   6.3230540  52.3582080
  57.7399870   7.1863490  52.3242220  65.3816070   9.6237450  35.3412140
  65.2766710   9.0089800  36.0673520  65.2140290   9.1003340  34.5575150
  65.5330390   8.3094250  51.3201370  64.7676060   8.8779250  51.2356040
  65.7146350   8.0170460  50.4269600  68.6218800   8.6857480  35.9454130
  68.0728900   9.1326780  36.5896870  69.2438060   8.1806730  36.4691800
  72.6753740  10.0399580  51.8776390  73.4163210  10.3775340  51.3743850
  71.9126420  10.2091640  51.3246160  60.5115530   5.0452850  52.6815920
  60.5520870   4.7466720  53.5901150  61.3661030   5.4460460  52.5223440
  64.2893920   7.6448400  37.8419430  64.7110340   7.4788270  38.6850820
  64.4144760   6.8348630  37.3474570  62.4521340   3.6244950  50.6490410
  61.9217800   3.1335900  50.0213750  63.1209410   4.0529150  50.1148340
  66.8021560   6.6686010  35.0896530  67.3227220   5.9535030  34.7237680
  67.4489960   7.3071880  35.3897040  71.3499400   8.0914410  50.4131600
  71.7640420   8.2459490  51.2622020  70.4150400   8.2169630  50.5757380
  71.8221570   5.4310570  52.4170750  72.4042340   4.6762890  52.3291230
  71.9983340   5.9618010  51.6402230  66.1114630   8.0434890  48.3827530
  66.5302740   8.8867620  48.2103770  65.1923260   8.1806930  48.1534310
  68.4478530   5.7751070  49.7665370  68.5674740   5.1792210  50.5060210
  69.3072530   5.8120760  49.3466670  70.7866430   6.3288260  48.3427880
  70.2601650   6.8530880  47.7393020  71.1297770   6.9615650  48.9737610
  63.1852820   3.7181630  34.7877590  62.9841880   2.8548990  35.1490930
  63.0144870   3.6314990  33.8499190  63.9622050  14.3487900  49.4985260
  63.4243140  15.0733960  49.1793960  64.2156010  13.8718240  48.7082600
  65.2147300   2.3172420  51.0241190  65.8046990   2.0088270  51.7119010
  64.3967540   1.8452170  51.1801090  66.8184260  15.5839110  49.7571910
  66.7442960  16.4874250  50.0644280  65.9163100  15.2651010  49.7293980
  67.3669590  14.7497620  37.3798270  68.2620380  15.0882590  37.4017030
  67.3987220  14.0277030  36.7522550  61.0065750  10.1224670  35.6085270
  61.4440620  10.6654340  36.2642850  61.4913480   9.2971620  35.6181610
  58.2211550  12.9113700  43.0605530  58.5514560  12.0434760  42.8284170
  58.6502550  13.1172220  43.8910490  62.8173470  11.2422710  40.7207500
  62.5169010  11.1187680  41.6211410  62.7110960  10.3831300  40.3123230
  58.7101760  13.7784290  45.7987160  58.2732750  13.9585090  46.6311310
  59.2779440  14.5358910  45.6568880  74.3463940  13.2801290  50.0864470
  73.7465930  13.3393850  49.3428390  74.4757840  12.3406270  50.2161320
  75.5865390  11.0219110  35.4234180  74.7558350  11.0895760  35.8941410
  75.7637220  11.9123230  35.1201040  75.0421850   7.7666590  37.9268380
  75.8040760   8.3363240  38.0328070  75.0576220   7.1993790  38.6976690
  58.5426190   6.2904520  42.1576040  57.8875030   6.0216160  41.5135740
  59.3804140   6.1809000  41.7078020  73.0315580  10.0053270  48.1840630
  72.2175420  10.4350430  48.4466420  73.4389780  10.6171680  47.5709680
  75.0941020   8.0600960  35.0840900  75.3689860   8.9679840  34.9560120
  74.9051760   7.9963490  36.0202890  74.9906360   5.9969950  40.0770330
  74.6149960   5.2297880  39.6451620  74.2609480   6.3792650  40.5645260
  59.5802120   6.6757090  46.6979380  59.9475160   6.5884490  47.5775400
  59.0112940   5.9123640  46.5986240  74.3805980   5.1441470  49.7109850
  74.1492070   4.9154220  48.8107800  74.6410530   6.0641020  49.6654740
  59.1318120   3.5866180  50.6037800  58.2374170   3.5532940  50.9431510
  59.6715670   3.7852970  51.3689050  57.7564270   3.5003450  38.1001370
  56.8528350   3.7633650  37.9253030  58.2404890   3.7714620  37.3201330
  74.2657320   4.2227440  43.3777570  74.7894800   3.7290090  42.7467740
  74.8516740   4.3577800  44.1225140  74.4447040   4.3067310  46.8997120
  73.4949750   4.2730850  47.0142110  74.6260050   5.2167420  46.6646890
  60.2991480   2.5568990  36.0095750  61.0083180   2.1352210  35.5243030
  59.5831420   2.6244220  35.3779100  73.7557290   3.4800790  39.3169980
  74.2516410   3.2471660  40.1018860  73.5573360   2.6412630  38.9007620
  73.0891630  14.7571870  41.7108900  73.6850700  14.4356440  41.0343320
  73.3469780  14.2843690  42.5022170  60.9954200  11.1889780  51.8599530
  60.9523830  10.8182690  52.7413990  61.1265210  12.1267350  52.0001350
  64.6960230  12.7449370  47.4609250  64.4551590  13.0123930  46.5739770
  65.6362870  12.9155100  47.5160110  60.8342230  14.1352030  48.9797310
  60.2402550  14.0036730  49.7187350  60.8266070  13.2990170  48.5139410
  73.6403840  15.4067170  45.5406630  73.1806810  16.1582980  45.1664650
  73.0116300  14.6873640  45.4821430  60.4654460  11.5010410  47.9305350
  59.7388520  10.8815700  47.8631300  60.5263610  11.8951020  47.0603430
  64.0699560  13.7155410  44.7154760  64.5864580  13.1042770  44.1903020
  64.7196940  14.2184190  45.2065770  66.8095060  14.6063900  45.5423740
  67.0972870  14.3518200  44.6656750  67.3218280  14.0541260  46.1329310
  58.7484460  14.8184800  41.1402110  58.5806500  14.1855480  41.8384000
  57.8818970  15.0244200  40.7896300  60.3547160  13.5118030  38.5852250
  59.8294780  13.8926060  37.8814210  60.2791740  14.1368800  39.3061960
  66.8767420  15.5280000  52.9091940  67.8034730  15.2924270  52.9527900
  66.8617850  16.3552000  52.4277970  75.1112480  15.0705570  39.9066190
  75.2864670  14.3843310  39.2627110  74.4134050  15.5952620  39.5142860
  62.9540130  15.4600410  37.4601500  63.6858950  15.1759690  36.9125390
  63.2133800  15.2213690  38.3500880  62.1154920  11.5765140  37.4647830
  61.4863800  12.0450240  38.0133660  62.2302750  10.7314360  37.8994020
  73.4444980  14.7549860  52.7332980  74.2370300  14.2599090  52.5258940
  73.7378130  15.4340000  53.3408590  69.5704640   5.6270800  23.6149030
  69.4898690   4.7125410  23.3440740  69.1569060   6.1237870  22.9088740
  67.7022680   7.4049820  25.4958300  66.9264780   6.9250260  25.7856870
  68.3535610   6.7255470  25.3214460  61.7188510   7.7169630  26.3734060
  60.8873390   7.4618340  26.7730570  62.3269490   7.7880400  27.1091980
  71.7230110  11.8110010  24.2757430  71.2611640  11.0397250  24.6044600
  72.5355660  11.8376080  24.7809880  61.6989770  11.7509720  26.5692080
  62.0017810  10.8607460  26.3902300  62.4433360  12.3079940  26.3414330
  60.1280460   2.6771520  20.1576450  59.2397160   3.0187490  20.0556330
  60.4121650   2.4771840  19.2657280  58.0913470   5.2777170  26.0416150
  58.6629580   4.5099370  26.0419790  58.0915010   5.5765930  25.1322760
  67.9493420  14.0968020  23.8961420  67.3304860  14.5525520  23.3255860
  68.8045200  14.2519480  23.4951120  67.1431670  10.0807010  25.5028460
  67.0739950   9.1396950  25.3417590  67.9051530  10.1708420  26.0751030
  68.1736840   2.8877390  25.7297390  68.5501660   2.0149270  25.6171060
  68.0756350   3.2236090  24.8387830  59.9525010   3.1822030  26.4367420
  60.6335120   3.4460400  27.0554820  59.6373060   2.3422900  26.7705430
  64.1449580   4.2289390  25.5240010  64.6527800   4.7270360  26.1645030
  64.6762820   3.4524590  25.3479370  68.8156770   8.9807260  21.2893330
  68.1974040   9.4456710  20.7256050  69.3280020   9.6734740  21.7062840
  63.6788530   8.5083130  27.9676930  63.3457910   9.1352050  28.6098000
  63.8555210   9.0345010  27.1878600  72.1922440   2.3228210  25.4353270
  71.4878010   2.6113100  26.0156380  72.5534600   3.1328320  25.0752830
  62.8907630  10.4763930  29.7826110  63.5081630  11.1515010  29.5010560
  62.0300750  10.8851910  29.6913610  58.1839970   9.6663790  18.6632960
  57.8067950  10.1550890  17.9317860  58.4413040  10.3389070  19.2939490
  73.8085220  11.9403340  27.6980750  73.1248740  12.6102450  27.6897420
  74.3479510  12.1383990  26.9325610  75.2609360   1.7683000  25.8262480
  74.3134270   1.8021980  25.9577910  75.5859350   2.5821950  26.2111840
  71.3443960  13.7847470  26.4125930  71.3571120  13.3809760  25.5448190
  70.7919180  14.5594760  26.3087360  72.6389380  10.5063690  21.5016100
  72.5285710   9.5638020  21.6265520  72.6357630  10.8679330  22.3878860
  70.7429400   8.6877310  27.7408540  71.1598190   8.4737420  26.9062000
  71.4669220   8.9450100  28.3117160  68.1809660   6.1329010  20.8578590
  67.2538940   6.0666390  21.0867060  68.3334480   7.0709140  20.7433830
  68.1678740   2.4046010  17.8545750  67.2282410   2.5659970  17.9398210
  68.4862000   3.1231690  17.3081740  74.6891500   7.0864530  27.8324780
  73.8610130   7.1557620  27.3574910  75.2841980   7.6718840  27.3640610
  72.2106950   7.6949310  21.3613840  71.5919370   7.3568860  20.7140140
  72.1931400   7.0509070  22.0693030  71.6533510   3.8733850  28.7779650
  71.2404690   4.6987560  29.0319640  70.9209460   3.2878890  28.5856010
  63.7866300   6.6593750  23.6398320  63.3823300   5.9471000  23.1444220
  63.8729420   6.3146990  24.5286360  64.2548000  10.3461310  25.8037530
  63.9576290   9.7406780  25.1245310  65.2047820  10.3838620  25.6926890
  62.4994920   3.4336960  27.4197360  63.0509510   3.5432300  26.6450610
  63.0138430   3.8074560  28.1352590  72.3433610  13.9193180  29.4660630
  71.8664170  14.7265370  29.2733240  71.6595400  13.2671510  29.6186840
  63.3466430  10.0843000  32.4545330  62.4494960  10.3082970  32.7018730
  63.3719300  10.2077940  31.5056730  70.3871650   6.9336120  18.3686590
  70.8264930   6.0958550  18.2224410  71.1000070   7.5665520  18.4550730
  62.1737650   6.9556320  31.0302700  62.0345420   7.8279120  31.3990100
  61.2919010   6.6129130  30.8850640  68.4967030  11.8732190  22.3367830
  68.9362940  12.6156520  21.9223220  68.4353920  12.1158760  23.2606790
  63.9718000  12.8978020  33.2387850  63.9433430  13.3020970  32.3716280
  63.8082970  11.9688380  33.0759450  60.4870930   5.5538730  21.1404970
  60.3668530   6.2800820  20.5286240  60.1771820   4.7841640  20.6632880
  58.1256300   8.7253870  26.9473610  58.2036720   8.8602640  26.0029330
  58.7397980   8.0169760  27.1401730  59.3703930  10.4254060  23.3579790
  58.9632010  10.5668650  22.5033390  60.2616940  10.1414220  23.1551000
  75.3266070  10.8717970  31.6952030  75.4529130  10.6329850  30.7769210
  75.3687450  10.0402510  32.1674110  69.1882810  14.5745970  30.2646840
  69.7027480  14.4853980  31.0669270  68.3451890  14.9205670  30.5574750
  71.1637210  14.8601310  19.6930840  71.0038350  14.5704250  20.5912670
  70.9983920  14.0841440  19.1576070  63.6425590  14.6399840  21.4702460
  63.4668070  13.7235380  21.2570260  62.7881330  14.9987130  21.7100260
  70.8663340  12.3688870  18.2528840  70.1728500  12.3666160  17.5931120
  71.6086200  11.9448190  17.8223010  70.4313270  13.9951580  22.3277330
  70.8870220  13.2140960  22.6415950  70.7705790  14.7058400  22.8718510
  75.1790080   2.9250430  32.6601770  74.5634350   3.4330100  32.1317230
  74.8586500   2.0248760  32.6027710  58.1815820   9.7668040  29.4868070
  58.3446860   9.2973400  28.6687440  58.6468270   9.2591600  30.1516910
  72.2408910   2.9851270  31.2560620  71.3902500   2.6857020  31.5769690
  72.0810700   3.2293280  30.3444440  69.3358620   4.4853020  33.3559410
  69.6612030   3.6516770  33.0161640  70.1238950   5.0081540  33.5037740
  62.7448810   4.0207370  22.2509890  62.5189730   3.8044540  23.1556510
  61.9641340   4.4535830  21.9055860  69.9746570   4.0270740  20.8500540
  69.3755460   4.7506540  20.6664160  70.5226180   3.9647520  20.0676990
  65.1848020   4.9192950  32.9170160  65.0891620   3.9787680  32.7670560
  66.0280000   5.1408020  32.5218230  68.5811440   2.6634280  22.8803820
  68.9741010   2.9806480  22.0672510  68.9428290   1.7846160  22.9948340
  57.8045840   3.1955200  16.3136740  57.7220510   4.1385960  16.4551730
  57.4528900   3.0530110  15.4349090  69.1666580   5.2540030  26.9754600
  68.4347700   5.7626840  27.3244700  68.7690920   4.4370010  26.6743380
  65.6664120   2.9306310  18.3713850  65.7876940   2.8892790  19.3199670
  65.2812630   3.7930460  18.2160580  64.6785620   5.2407450  17.7697150
  64.1102520   4.7925700  17.1433060  65.3874620   5.6000230  17.2362300
  59.7554800   9.1419470  31.6463880  59.3709590   8.5013140  32.2446840
  60.0666990   9.8455590  32.2158610  65.9051940   5.9896010  27.1272500
  66.2722070   5.5154580  27.8733840  65.7157000   6.8637580  27.4680840
  63.6951310   5.0304650  29.4456710  63.3908380   5.9096630  29.6707070
  64.6497770   5.0904440  29.4814150  62.2233100   9.2365640  20.0423560
  61.4495360   8.6963260  19.8822280  62.9527730   8.7172250  19.7041320
  72.9821080   8.2331000  25.8349950  73.7020200   8.7286290  25.4446060
  72.7802900   7.5548890  25.1903820  68.3639880   8.3040060  31.7218950
  68.2977190   7.3835730  31.4676540  67.7345020   8.4015500  32.4363590
  71.1579410   3.9988610  18.2741500  72.0459030   4.3105840  18.0992840
  71.1284500   3.1260860  17.8822080  62.2670500   8.9046020  23.6802370
  62.7849170   8.1014280  23.6259260  61.8154520   8.8425160  24.5219200
  67.1540000  10.1712300  18.9529670  67.4955700  10.9154530  18.4572990
  66.3252710  10.4843420  19.3154500  59.7515040   5.8707390  30.5928070
  59.3929980   6.5361240  31.1801410  59.4569600   5.0390940  30.9640690
  62.9528160   6.3291630  33.4767620  62.6528300   6.4748810  32.5795440
  63.7239400   5.7696920  33.3841010  68.2956610  11.1260630  31.4722750
  68.3101150  10.1941590  31.2541660  67.5881710  11.2120390  32.1112520
  73.4293680   5.3100450  17.7421360  73.3457400   5.7414670  16.8917800
  74.1487870   5.7698800  18.1748180  74.5067820   7.7667970  30.8191330
  73.7816010   8.3596750  30.6220720  75.0343280   7.7591510  30.0204700
  74.4580930  12.1642710  20.4703490  73.8157090  11.5098330  20.7447210
  74.0711590  12.5697800  19.6944160  70.0367410   9.4928140  24.3175180
  70.3891230   8.8956270  23.6576550  69.1529740   9.1672370  24.4883430
  66.1230690  10.2525830  21.7245590  66.8101820  10.7995040  22.1053180
  65.3363110  10.7966560  21.7595200  58.2623090   5.8698650  17.2162670
  59.1317940   6.1523450  17.4998590  57.7713410   6.6834520  17.1011480
  65.4257900   7.2571860  21.3370950  65.8820680   8.0677110  21.5631140
  65.0746110   6.9395000  22.1689440  67.7290510  12.7678200  28.5663250
  68.3732730  12.9737580  29.2436670  68.0919950  12.0066600  28.1134100
  69.0022590  10.7710550  27.2840700  69.6444820  10.0703710  27.3972870
  69.5271940  11.5508990  27.1037590  72.8478310  11.0559170  17.0079840
  72.6215890  10.3389610  17.6004480  72.4574510  10.8071610  16.1701590
  70.7760210  11.5705450  30.4876760  71.1116450  12.1572140  31.1654680
  69.8560550  11.4398160  30.7174550  58.6294340  15.0826030  17.7824300
  58.9891980  15.6815370  17.1281570  58.4886680  15.6285920  18.5559330
  72.4294560   8.9731110  18.6694000  72.1416260   9.4343800  19.4571880
  73.2246730   8.5128880  18.9378220  58.6136200  13.3480890  32.2566700
  58.7227320  12.4075630  32.1162090  57.9616760  13.6135640  31.6080430
  66.6048790  11.6196780  33.6564820  66.2845660  10.9006020  34.2010510
  65.9307150  12.2951850  33.7300880  64.6462960  12.4657230  18.5997970
  64.6373060  13.1986920  17.9842480  63.7261320  12.2188810  18.6924930
  60.2469600   7.6872120  19.3444730  59.6397550   8.4271020  19.3540030
  60.7218950   7.7771480  18.5182930  67.6322560  12.5285470  17.2623160
  67.7334540  12.3249460  16.3325140  66.7324300  12.2743750  17.4670940
  65.1548450   3.0865830  21.2447060  64.4464600   3.5552170  21.6860670
  65.4392930   2.4287840  21.8792250  66.7804380   4.5062530  29.2439590
  67.2789630   4.9808350  29.9091440  66.9227330   3.5826050  29.4509620
  66.2740670  15.0471790  21.9570830  66.5282170  15.0093180  21.0350200
  65.3253150  14.9205120  21.9499080  72.2793250   5.9663670  23.5329340
  71.3383390   5.9813900  23.7077030  72.5937320   5.1799630  23.9789640
  62.2574890   7.6483270  17.0933300  63.0238160   7.5364630  17.6558730
  62.3349580   6.9521240  16.4410070  60.9521650   5.0808340  17.7766190
  61.0325240   4.1335850  17.8883590  61.8441400   5.4115220  17.8826850
  74.2818830  13.1372520  25.2083600  74.4066250  13.9603690  25.6807410
  75.1484390  12.9263250  24.8607750  61.7536360  15.2303730  24.8800730
  62.4898840  14.6819190  25.1509300  62.1377280  16.0959740  24.7406720
  58.6381840  11.2977300  20.7542240  57.7121620  11.5398440  20.7447650
  59.1038270  12.1251560  20.6326990  60.7594640  14.4149800  34.0686310
  61.5607370  14.7361850  34.4821710  60.2446460  14.0545380  34.7906220
  64.8638670  14.4034040  16.7026300  65.6567280  14.6922870  16.2508090
  64.3443020  13.9726210  16.0238780  69.5959270  10.5229670  34.0161720
  68.9897430  10.5461270  33.2757470  69.2913380   9.7912710  34.5528970
  71.0259640  14.2509960  32.6271130  71.9781390  14.1667980  32.5771370
  70.8787860  14.9151670  33.3004920  73.9168840  13.6304170  18.1263040
  73.6310350  13.2169310  17.3117220  73.7188390  14.5591880  18.0063560
  58.4792450   6.9023260  33.0122360  58.9831470   6.3230540  33.5838590
  57.7399870   7.1863490  33.5498730  65.3816070   9.6237450  16.5668650
  65.2766710   9.0089800  17.2930030  65.2140290   9.1003340  15.7831660
  65.5330390   8.3094250  32.5457880  64.7676060   8.8779250  32.4612550
  65.7146350   8.0170460  31.6526110  68.6218800   8.6857480  17.1710640
  68.0728900   9.1326780  17.8153380  69.2438060   8.1806730  17.6948310
  72.6753740  10.0399580  33.1032900  73.4163210  10.3775340  32.6000360
  71.9126420  10.2091640  32.5502670  60.5115530   5.0452850  33.9072430
  60.5520870   4.7466720  34.8157660  61.3661030   5.4460460  33.7479950
  64.2893920   7.6448400  19.0675940  64.7110340   7.4788270  19.9107330
  64.4144760   6.8348630  18.5731080  62.4521340   3.6244950  31.8746920
  61.9217800   3.1335900  31.2470260  63.1209410   4.0529150  31.3404850
  66.8021560   6.6686010  16.3153040  67.3227220   5.9535030  15.9494190
  67.4489960   7.3071880  16.6153550  71.3499400   8.0914410  31.6388110
  71.7640420   8.2459490  32.4878530  70.4150400   8.2169630  31.8013890
  71.8221570   5.4310570  33.6427260  72.4042340   4.6762890  33.5547740
  71.9983340   5.9618010  32.8658740  66.1114630   8.0434890  29.6084040
  66.5302740   8.8867620  29.4360280  65.1923260   8.1806930  29.3790820
  68.4478530   5.7751070  30.9921880  68.5674740   5.1792210  31.7316720
  69.3072530   5.8120760  30.5723180  70.7866430   6.3288260  29.5684390
  70.2601650   6.8530880  28.9649530  71.1297770   6.9615650  30.1994120
  63.1852820   3.7181630  16.0134100  62.9841880   2.8548990  16.3747440
  63.0144870   3.6314990  15.0755700  63.9622050  14.3487900  30.7241770
  63.4243140  15.0733960  30.4050470  64.2156010  13.8718240  29.9339110
  65.2147300   2.3172420  32.2497700  65.8046990   2.0088270  32.9375520
  64.3967540   1.8452170  32.4057600  66.8184260  15.5839110  30.9828420
  66.7442960  16.4874250  31.2900790  65.9163100  15.2651010  30.9550490
  67.3669590  14.7497620  18.6054780  68.2620380  15.0882590  18.6273540
  67.3987220  14.0277030  17.9779060  61.0065750  10.1224670  16.8341780
  61.4440620  10.6654340  17.4899360  61.4913480   9.2971620  16.8438120
  58.2211550  12.9113700  24.2862040  58.5514560  12.0434760  24.0540680
  58.6502550  13.1172220  25.1167000  62.8173470  11.2422710  21.9464010
  62.5169010  11.1187680  22.8467920  62.7110960  10.3831300  21.5379740
  58.7101760  13.7784290  27.0243670  58.2732750  13.9585090  27.8567820
  59.2779440  14.5358910  26.8825390  74.3463940  13.2801290  31.3120980
  73.7465930  13.3393850  30.5684900  74.4757840  12.3406270  31.4417830
  75.5865390  11.0219110  16.6490690  74.7558350  11.0895760  17.1197920
  75.7637220  11.9123230  16.3457550  75.0421850   7.7666590  19.1524890
  75.8040760   8.3363240  19.2584580  75.0576220   7.1993790  19.9233200
  58.5426190   6.2904520  23.3832550  57.8875030   6.0216160  22.7392250
  59.3804140   6.1809000  22.9334530  73.0315580  10.0053270  29.4097140
  72.2175420  10.4350430  29.6722930  73.4389780  10.6171680  28.7966190
  75.0941020   8.0600960  16.3097410  75.3689860   8.9679840  16.1816630
  74.9051760   7.9963490  17.2459400  74.9906360   5.9969950  21.3026840
  74.6149960   5.2297880  20.8708130  74.2609480   6.3792650  21.7901770
  59.5802120   6.6757090  27.9235890  59.9475160   6.5884490  28.8031910
  59.0112940   5.9123640  27.8242750  74.3805980   5.1441470  30.9366360
  74.1492070   4.9154220  30.0364310  74.6410530   6.0641020  30.8911250
  59.1318120   3.5866180  31.8294310  58.2374170   3.5532940  32.1688020
  59.6715670   3.7852970  32.5945560  57.7564270   3.5003450  19.3257880
  56.8528350   3.7633650  19.1509540  58.2404890   3.7714620  18.5457840
  74.2657320   4.2227440  24.6034080  74.7894800   3.7290090  23.9724250
  74.8516740   4.3577800  25.3481650  74.4447040   4.3067310  28.1253630
  73.4949750   4.2730850  28.2398620  74.6260050   5.2167420  27.8903400
  60.2991480   2.5568990  17.2352260  61.0083180   2.1352210  16.7499540
  59.5831420   2.6244220  16.6035610  73.7557290   3.4800790  20.5426490
  74.2516410   3.2471660  21.3275370  73.5573360   2.6412630  20.1264130
  73.0891630  14.7571870  22.9365410  73.6850700  14.4356440  22.2599830
  73.3469780  14.2843690  23.7278680  60.9954200  11.1889780  33.0856040
  60.9523830  10.8182690  33.9670500  61.1265210  12.1267350  33.2257860
  64.6960230  12.7449370  28.6865760  64.4551590  13.0123930  27.7996280
  65.6362870  12.9155100  28.7416620  60.8342230  14.1352030  30.2053820
  60.2402550  14.0036730  30.9443860  60.8266070  13.2990170  29.7395920
  73.6403840  15.4067170  26.7663140  73.1806810  16.1582980  26.3921160
  73.0116300  14.6873640  26.7077940  60.4654460  11.5010410  29.1561860
  59.7388520  10.8815700  29.0887810  60.5263610  11.8951020  28.2859940
  64.0699560  13.7155410  25.9411270  64.5864580  13.1042770  25.4159530
  64.7196940  14.2184190  26.4322280  66.8095060  14.6063900  26.7680250
  67.0972870  14.3518200  25.8913260  67.3218280  14.0541260  27.3585820
  58.7484460  14.8184800  22.3658620  58.5806500  14.1855480  23.0640510
  57.8818970  15.0244200  22.0152810  60.3547160  13.5118030  19.8108760
  59.8294780  13.8926060  19.1070720  60.2791740  14.1368800  20.5318470
  66.8767420  15.5280000  34.1348450  67.8034730  15.2924270  34.1784410
  66.8617850  16.3552000  33.6534480  75.1112480  15.0705570  21.1322700
  75.2864670  14.3843310  20.4883620  74.4134050  15.5952620  20.7399370
  62.9540130  15.4600410  18.6858010  63.6858950  15.1759690  18.1381900
  63.2133800  15.2213690  19.5757390  62.1154920  11.5765140  18.6904340
  61.4863800  12.0450240  19.2390170  62.2302750  10.7314360  19.1250530
  73.4444980  14.7549860  33.9589490  74.2370300  14.2599090  33.7515450
  73.7378130  15.4340000  34.5665100  69.5704640   5.6270800   4.8405540
  69.4898690   4.7125410   4.5697250  69.1569060   6.1237870   4.1345250
  67.7022680   7.4049820   6.7214810  66.9264780   6.9250260   7.0113380
  68.3535610   6.7255470   6.5470970  61.7188510   7.7169630   7.5990570
  60.8873390   7.4618340   7.9987080  62.3269490   7.7880400   8.3348490
  71.7230110  11.8110010   5.5013940  71.2611640  11.0397250   5.8301110
  72.5355660  11.8376080   6.0066390  61.6989770  11.7509720   7.7948590
  62.0017810  10.8607460   7.6158810  62.4433360  12.3079940   7.5670840
  58.0913470   5.2777170   7.2672660  58.6629580   4.5099370   7.2676300
  58.0915010   5.5765930   6.3579270  67.9493420  14.0968020   5.1217930
  67.3304860  14.5525520   4.5512370  68.8045200  14.2519480   4.7207630
  67.1431670  10.0807010   6.7284970  67.0739950   9.1396950   6.5674100
  67.9051530  10.1708420   7.3007540  68.1736840   2.8877390   6.9553900
  68.5501660   2.0149270   6.8427570  68.0756350   3.2236090   6.0644340
  59.9525010   3.1822030   7.6623930  60.6335120   3.4460400   8.2811330
  59.6373060   2.3422900   7.9961940  64.1449580   4.2289390   6.7496520
  64.6527800   4.7270360   7.3901540  64.6762820   3.4524590   6.5735880
  68.8156770   8.9807260   2.5149840  68.1974040   9.4456710   1.9512560
  69.3280020   9.6734740   2.9319350  63.6788530   8.5083130   9.1933440
  63.3457910   9.1352050   9.8354510  63.8555210   9.0345010   8.4135110
  72.1922440   2.3228210   6.6609780  71.4878010   2.6113100   7.2412890
  72.5534600   3.1328320   6.3009340  62.8907630  10.4763930  11.0082620
  63.5081630  11.1515010  10.7267070  62.0300750  10.8851910  10.9170120
  73.8085220  11.9403340   8.9237260  73.1248740  12.6102450   8.9153930
  74.3479510  12.1383990   8.1582120  75.2609360   1.7683000   7.0518990
  74.3134270   1.8021980   7.1834420  75.5859350   2.5821950   7.4368350
  71.3443960  13.7847470   7.6382440  71.3571120  13.3809760   6.7704700
  70.7919180  14.5594760   7.5343870  72.6389380  10.5063690   2.7272610
  72.5285710   9.5638020   2.8522030  72.6357630  10.8679330   3.6135370
  70.7429400   8.6877310   8.9665050  71.1598190   8.4737420   8.1318510
  71.4669220   8.9450100   9.5373670  68.1809660   6.1329010   2.0835100
  67.2538940   6.0666390   2.3123570  68.3334480   7.0709140   1.9690340
  74.6891500   7.0864530   9.0581290  73.8610130   7.1557620   8.5831420
  75.2841980   7.6718840   8.5897120  72.2106950   7.6949310   2.5870350
  71.5919370   7.3568860   1.9396650  72.1931400   7.0509070   3.2949540
  71.6533510   3.8733850  10.0036160  71.2404690   4.6987560  10.2576150
  70.9209460   3.2878890   9.8112520  63.7866300   6.6593750   4.8654830
  63.3823300   5.9471000   4.3700730  63.8729420   6.3146990   5.7542870
  64.2548000  10.3461310   7.0294040  63.9576290   9.7406780   6.3501820
  65.2047820  10.3838620   6.9183400  62.4994920   3.4336960   8.6453870
  63.0509510   3.5432300   7.8707120  63.0138430   3.8074560   9.3609100
  72.3433610  13.9193180  10.6917140  71.8664170  14.7265370  10.4989750
  71.6595400  13.2671510  10.8443350  63.3466430  10.0843000  13.6801840
  62.4494960  10.3082970  13.9275240  63.3719300  10.2077940  12.7313240
  62.1737650   6.9556320  12.2559210  62.0345420   7.8279120  12.6246610
  61.2919010   6.6129130  12.1107150  68.4967030  11.8732190   3.5624340
  68.9362940  12.6156520   3.1479730  68.4353920  12.1158760   4.4863300
  63.9718000  12.8978020  14.4644360  63.9433430  13.3020970  13.5972790
  63.8082970  11.9688380  14.3015960  60.4870930   5.5538730   2.3661480
  60.3668530   6.2800820   1.7542750  60.1771820   4.7841640   1.8889390
  58.1256300   8.7253870   8.1730120  58.2036720   8.8602640   7.2285840
  58.7397980   8.0169760   8.3658240  59.3703930  10.4254060   4.5836300
  58.9632010  10.5668650   3.7289900  60.2616940  10.1414220   4.3807510
  75.3266070  10.8717970  12.9208540  75.4529130  10.6329850  12.0025720
  75.3687450  10.0402510  13.3930620  69.1882810  14.5745970  11.4903350
  69.7027480  14.4853980  12.2925780  68.3451890  14.9205670  11.7831260
  63.6425590  14.6399840   2.6958970  63.4668070  13.7235380   2.4826770
  62.7881330  14.9987130   2.9356770  70.4313270  13.9951580   3.5533840
  70.8870220  13.2140960   3.8672460  70.7705790  14.7058400   4.0975020
  75.1790080   2.9250430  13.8858280  74.5634350   3.4330100  13.3573740
  74.8586500   2.0248760  13.8284220  58.1815820   9.7668040  10.7124580
  58.3446860   9.2973400   9.8943950  58.6468270   9.2591600  11.3773420
  72.2408910   2.9851270  12.4817130  71.3902500   2.6857020  12.8026200
  72.0810700   3.2293280  11.5700950  69.3358620   4.4853020  14.5815920
  69.6612030   3.6516770  14.2418150  70.1238950   5.0081540  14.7294250
  62.7448810   4.0207370   3.4766400  62.5189730   3.8044540   4.3813020
  61.9641340   4.4535830   3.1312370  69.9746570   4.0270740   2.0757050
  69.3755460   4.7506540   1.8920670  70.5226180   3.9647520   1.2933500
  65.1848020   4.9192950  14.1426670  65.0891620   3.9787680  13.9927070
  66.0280000   5.1408020  13.7474740  68.5811440   2.6634280   4.1060330
  68.9741010   2.9806480   3.2929020  68.9428290   1.7846160   4.2204850
  69.1666580   5.2540030   8.2011110  68.4347700   5.7626840   8.5501210
  68.7690920   4.4370010   7.8999890  59.7554800   9.1419470  12.8720390
  59.3709590   8.5013140  13.4703350  60.0666990   9.8455590  13.4415120
  65.9051940   5.9896010   8.3529010  66.2722070   5.5154580   9.0990350
  65.7157000   6.8637580   8.6937350  63.6951310   5.0304650  10.6713220
  63.3908380   5.9096630  10.8963580  64.6497770   5.0904440  10.7070660
  72.9821080   8.2331000   7.0606460  73.7020200   8.7286290   6.6702570
  72.7802900   7.5548890   6.4160330  68.3639880   8.3040060  12.9475460
  68.2977190   7.3835730  12.6933050  67.7345020   8.4015500  13.6620100
  62.2670500   8.9046020   4.9058880  62.7849170   8.1014280   4.8515770
  61.8154520   8.8425160   5.7475710  59.7515040   5.8707390  11.8184580
  59.3929980   6.5361240  12.4057920  59.4569600   5.0390940  12.1897200
  62.9528160   6.3291630  14.7024130  62.6528300   6.4748810  13.8051950
  63.7239400   5.7696920  14.6097520  68.2956610  11.1260630  12.6979260
  68.3101150  10.1941590  12.4798170  67.5881710  11.2120390  13.3369030
  74.5067820   7.7667970  12.0447840  73.7816010   8.3596750  11.8477230
  75.0343280   7.7591510  11.2461210  70.0367410   9.4928140   5.5431690
  70.3891230   8.8956270   4.8833060  69.1529740   9.1672370   5.7139940
  66.1230690  10.2525830   2.9502100  66.8101820  10.7995040   3.3309690
  65.3363110  10.7966560   2.9851710  65.4257900   7.2571860   2.5627460
  65.8820680   8.0677110   2.7887650  65.0746110   6.9395000   3.3945950
  67.7290510  12.7678200   9.7919760  68.3732730  12.9737580  10.4693180
  68.0919950  12.0066600   9.3390610  69.0022590  10.7710550   8.5097210
  69.6444820  10.0703710   8.6229380  69.5271940  11.5508990   8.3294100
  70.7760210  11.5705450  11.7133270  71.1116450  12.1572140  12.3911190
  69.8560550  11.4398160  11.9431060  58.6136200  13.3480890  13.4823210
  58.7227320  12.4075630  13.3418600  57.9616760  13.6135640  12.8336940
  66.6048790  11.6196780  14.8821330  66.2845660  10.9006020  15.4267020
  65.9307150  12.2951850  14.9557390  65.1548450   3.0865830   2.4703570
  64.4464600   3.5552170   2.9117180  65.4392930   2.4287840   3.1048760
  66.7804380   4.5062530  10.4696100  67.2789630   4.9808350  11.1347950
  66.9227330   3.5826050  10.6766130  66.2740670  15.0471790   3.1827340
  66.5282170  15.0093180   2.2606710  65.3253150  14.9205120   3.1755590
  72.2793250   5.9663670   4.7585850  71.3383390   5.9813900   4.9333540
  72.5937320   5.1799630   5.2046150  74.2818830  13.1372520   6.4340110
  74.4066250  13.9603690   6.9063920  75.1484390  12.9263250   6.0864260
  61.7536360  15.2303730   6.1057240  62.4898840  14.6819190   6.3765810
  62.1377280  16.0959740   5.9663230  58.6381840  11.2977300   1.9798750
  57.7121620  11.5398440   1.9704160  59.1038270  12.1251560   1.8583500
  60.7594640  14.4149800  15.2942820  61.5607370  14.7361850  15.7078220
  60.2446460  14.0545380  16.0162730  69.5959270  10.5229670  15.2418230
  68.9897430  10.5461270  14.5013980  69.2913380   9.7912710  15.7785480
  71.0259640  14.2509960  13.8527640  71.9781390  14.1667980  13.8027880
  70.8787860  14.9151670  14.5261430  58.4792450   6.9023260  14.2378870
  58.9831470   6.3230540  14.8095100  57.7399870   7.1863490  14.7755240
  65.5330390   8.3094250  13.7714390  64.7676060   8.8779250  13.6869060
  65.7146350   8.0170460  12.8782620  72.6753740  10.0399580  14.3289410
  73.4163210  10.3775340  13.8256870  71.9126420  10.2091640  13.7759180
  60.5115530   5.0452850  15.1328940  60.5520870   4.7466720  16.0414170
  61.3661030   5.4460460  14.9736460  62.4521340   3.6244950  13.1003430
  61.9217800   3.1335900  12.4726770  63.1209410   4.0529150  12.5661360
  71.3499400   8.0914410  12.8644620  71.7640420   8.2459490  13.7135040
  70.4150400   8.2169630  13.0270400  71.8221570   5.4310570  14.8683770
  72.4042340   4.6762890  14.7804250  71.9983340   5.9618010  14.0915250
  66.1114630   8.0434890  10.8340550  66.5302740   8.8867620  10.6616790
  65.1923260   8.1806930  10.6047330  68.4478530   5.7751070  12.2178390
  68.5674740   5.1792210  12.9573230  69.3072530   5.8120760  11.7979690
  70.7866430   6.3288260  10.7940900  70.2601650   6.8530880  10.1906040
  71.1297770   6.9615650  11.4250630  63.9622050  14.3487900  11.9498280
  63.4243140  15.0733960  11.6306980  64.2156010  13.8718240  11.1595620
  65.2147300   2.3172420  13.4754210  65.8046990   2.0088270  14.1632030
  64.3967540   1.8452170  13.6314110  66.8184260  15.5839110  12.2084930
  66.7442960  16.4874250  12.5157300  65.9163100  15.2651010  12.1807000
  58.2211550  12.9113700   5.5118550  58.5514560  12.0434760   5.2797190
  58.6502550  13.1172220   6.3423510  62.8173470  11.2422710   3.1720520
  62.5169010  11.1187680   4.0724430  62.7110960  10.3831300   2.7636250
  58.7101760  13.7784290   8.2500180  58.2732750  13.9585090   9.0824330
  59.2779440  14.5358910   8.1081900  74.3463940  13.2801290  12.5377490
  73.7465930  13.3393850  11.7941410  74.4757840  12.3406270  12.6674340
  58.5426190   6.2904520   4.6089060  57.8875030   6.0216160   3.9648760
  59.3804140   6.1809000   4.1591040  73.0315580  10.0053270  10.6353650
  72.2175420  10.4350430  10.8979440  73.4389780  10.6171680  10.0222700
  74.9906360   5.9969950   2.5283350  74.6149960   5.2297880   2.0964640
  74.2609480   6.3792650   3.0158280  59.5802120   6.6757090   9.1492400
  59.9475160   6.5884490  10.0288420  59.0112940   5.9123640   9.0499260
  74.3805980   5.1441470  12.1622870  74.1492070   4.9154220  11.2620820
  74.6410530   6.0641020  12.1167760  59.1318120   3.5866180  13.0550820
  58.2374170   3.5532940  13.3944530  59.6715670   3.7852970  13.8202070
  74.2657320   4.2227440   5.8290590  74.7894800   3.7290090   5.1980760
  74.8516740   4.3577800   6.5738160  74.4447040   4.3067310   9.3510140
  73.4949750   4.2730850   9.4655130  74.6260050   5.2167420   9.1159910
  73.7557290   3.4800790   1.7683000  74.2516410   3.2471660   2.5531880
  73.5573360   2.6412630   1.3520640  73.0891630  14.7571870   4.1621920
  73.6850700  14.4356440   3.4856340  73.3469780  14.2843690   4.9535190
  60.9954200  11.1889780  14.3112550  60.9523830  10.8182690  15.1927010
  61.1265210  12.1267350  14.4514370  64.6960230  12.7449370   9.9122270
  64.4551590  13.0123930   9.0252790  65.6362870  12.9155100   9.9673130
  60.8342230  14.1352030  11.4310330  60.2402550  14.0036730  12.1700370
  60.8266070  13.2990170  10.9652430  73.6403840  15.4067170   7.9919650
  73.1806810  16.1582980   7.6177670  73.0116300  14.6873640   7.9334450
  60.4654460  11.5010410  10.3818370  59.7388520  10.8815700  10.3144320
  60.5263610  11.8951020   9.5116450  64.0699560  13.7155410   7.1667780
  64.5864580  13.1042770   6.6416040  64.7196940  14.2184190   7.6578790
  66.8095060  14.6063900   7.9936760  67.0972870  14.3518200   7.1169770
  67.3218280  14.0541260   8.5842330  58.7484460  14.8184800   3.5915130
  58.5806500  14.1855480   4.2897020  57.8818970  15.0244200   3.2409320
  66.8767420  15.5280000  15.3604960  67.8034730  15.2924270  15.4040920
  66.8617850  16.3552000  14.8790990  75.1112480  15.0705570   2.3579210
  75.2864670  14.3843310   1.7140130  74.4134050  15.5952620   1.9655880
  73.4444980  14.7549860  15.1846000  74.2370300  14.2599090  14.9771960
  73.7378130  15.4340000  15.7921610  50.7961150  61.9501270  61.1636010
  50.7155200  61.0355880  60.8927720  50.3825570  62.4468340  60.4575720
  48.9279190  63.7280290  63.0445280  48.1521290  63.2480730  63.3343850
  49.5792120  63.0485940  62.8701440  42.9445020  64.0400100  63.9221040
  42.1129900  63.7848810  64.3217550  43.5526000  64.1110870  64.6578960
  41.3536970  59.0001990  57.7063430  40.4653670  59.3417960  57.6043310
  41.6378160  58.8002310  56.8144260  39.3169980  61.6007640  63.5903130
  39.8886090  60.8329840  63.5906770  39.3171520  61.8996400  62.6809740
  48.3688180  66.4037480  63.0515440  48.2996460  65.4627420  62.8904570
  49.1308040  66.4938890  63.6238010  40.5594850  57.0092000  65.3772060
  40.3797690  56.1117750  65.6574820  40.1574930  57.5563870  66.0519010
  49.3993350  59.2107860  63.2784370  49.7758170  58.3379740  63.1658040
  49.3012860  59.5466560  62.3874810  43.5298360  57.5833490  58.7401810
  43.6365110  58.4837220  59.0470570  42.6190720  57.5351460  58.4496460
  53.1817470  56.7058300  60.2112710  54.0027090  56.2154870  60.2538190
  53.2151550  57.2955960  60.9644550  41.1781520  59.5052500  63.9854400
  41.8591630  59.7690870  64.6041800  40.8629570  58.6653370  64.3192410
  45.3706090  60.5519860  63.0726990  45.8784310  61.0500830  63.7132010
  45.9019330  59.7755060  62.8966350  57.4717020  58.7225050  66.7756340
  56.7669190  59.1106760  66.2571450  57.7374940  59.4175340  67.3777270
  43.6542190  55.1918420  67.3390410  43.6560630  55.7090810  66.5336310
  42.8246500  54.7148600  67.3160340  50.0413280  65.3037730  58.8380310
  49.4230550  65.7687180  58.2743030  50.5536530  65.9965210  59.2549820
  44.9045040  64.8313600  65.5163910  44.5714420  65.4582520  66.1584980
  45.0811720  65.3575480  64.7365580  53.4178950  58.6458680  62.9840250
  52.7134520  58.9343570  63.5643360  53.7791110  59.4558790  62.6239810
  43.3357520  56.9028380  65.3460860  43.6774330  57.7470430  65.0514730
  42.3973330  57.0512120  65.4626200  44.1164140  66.7994400  67.3313090
  44.7338140  67.4745480  67.0497540  43.2557260  67.2082380  67.2400590
  39.4096480  65.9894260  56.2119940  39.0324460  66.4781360  55.4804840
  39.6669550  66.6619540  56.8426470  56.4865870  58.0913470  63.3749460
  55.5390780  58.1252450  63.5064890  56.8115860  58.9052420  63.7598820
  47.0185410  54.3910650  61.6705450  47.3260390  53.8357540  60.9540950
  46.0886110  54.5255110  61.4878440  53.8645890  66.8294160  59.0503080
  53.7542220  65.8868490  59.1752500  53.8614140  67.1909800  59.9365840
  51.9685910  65.0107780  65.2895520  52.3854700  64.7967890  64.4548980
  52.6925730  65.2680570  65.8604140  49.4066170  62.4559480  58.4065570
  48.4795450  62.3896860  58.6354040  49.5590990  63.3939610  58.2920810
  49.3935250  58.7276480  55.4032730  48.4538920  58.8890440  55.4885190
  49.7118510  59.4462160  54.8568720  55.9148010  63.4095000  65.3811760
  55.0866640  63.4788090  64.9061890  56.5098490  63.9949310  64.9127590
  53.4363460  64.0179780  58.9100820  52.8175880  63.6799330  58.2627120
  53.4187910  63.3739540  59.6180010  52.8790020  60.1964320  66.3266630
  52.4661200  61.0218030  66.5806620  52.1465970  59.6109360  66.1342990
  45.0122810  62.9824220  61.1885300  44.6079810  62.2701470  60.6931200
  45.0985930  62.6377460  62.0773340  45.4804510  66.6691780  63.3524510
  45.1832800  66.0637250  62.6732290  46.4304330  66.7069090  63.2413870
  43.7251430  59.7567430  64.9684340  44.2766020  59.8662770  64.1937590
  44.2394940  60.1305030  65.6839570  51.6128160  63.2566590  55.9173570
  52.0521440  62.4189020  55.7711390  52.3256580  63.8895990  56.0037710
  55.1945300  54.5109400  54.2314610  54.8817960  54.6036230  55.1313680
  55.9557770  55.0890430  54.1812040  41.7127440  61.8769200  58.6891950
  41.5925040  62.6031290  58.0773220  41.4028330  61.1072110  58.2119860
  39.3512810  65.0484340  64.4960590  39.4293230  65.1833110  63.5516310
  39.9654490  64.3400230  64.6888710  40.5960440  66.7484530  60.9066770
  40.1888520  66.8899120  60.0520370  41.4873450  66.4644690  60.7037980
  39.4072330  66.0898510  67.0355050  39.5703370  65.6203870  66.2174420
  39.8724780  65.5822070  67.7003890  44.1791100  55.2204270  62.0715620
  43.7359250  56.0013810  61.7400140  44.7376090  55.5434160  62.7786560
  47.2949920  54.8414970  56.9521450  46.6704100  54.8374840  57.6774760
  47.2080040  53.9745930  56.5557420  46.2167000  55.7651600  63.9305220
  46.5139330  56.6714430  63.8497240  46.7652560  55.2770380  63.3164790
  43.9705320  60.3437840  59.7996870  43.7446240  60.1275010  60.7043490
  43.1897850  60.7766300  59.4542840  51.2003080  60.3501210  58.3987520
  50.6011970  61.0737010  58.2151140  51.7482690  60.2877990  57.6163970
  49.8067950  58.9864750  60.4290800  50.1997520  59.3036950  59.6159490
  50.1684800  58.1076630  60.5435320  38.8432120  55.5765550  62.6521000
  38.5545170  56.1468410  63.3645980  39.5877880  55.0970000  63.0152230
  39.0302350  59.5185670  53.8623720  38.9477020  60.4616430  54.0038710
  38.6785410  59.3760580  52.9836070  50.3923090  61.5770500  64.5241580
  49.6604210  62.0857310  64.8731680  49.9947430  60.7600480  64.2230360
  46.8300480  58.2524700  62.9294070  46.8336540  57.8114650  62.0798610
  47.7251600  58.5742030  63.0365890  42.6802860  58.1351190  61.8888280
  42.3402910  58.6126420  62.6455330  41.9180180  57.6816310  61.5289380
  46.8920630  59.2536780  55.9200830  47.0133450  59.2123260  56.8686650
  46.5069140  60.1160930  55.7647560  50.8549000  57.0304180  63.9364520
  50.8721740  57.4812830  64.7806370  50.6064580  56.1309820  64.1497960
  45.9042130  61.5637920  55.3184130  45.3359030  61.1156170  54.6920040
  46.6131130  61.9230700  54.7849280  47.1308450  62.3126480  64.6759480
  47.4978580  61.8385050  65.4220820  46.9413510  63.1868050  65.0167820
  39.9948940  57.0570170  60.8052950  39.7095860  56.6925840  61.6431570
  39.9327800  56.3250630  60.1916090  44.9207820  61.3535120  66.9943690
  44.6164890  62.2327100  67.2194050  45.8754280  61.4134910  67.0301130
  43.4489610  65.5596110  57.5910540  42.6751870  65.0193730  57.4309260
  44.1784240  65.0402720  57.2528300  54.2077590  64.5561470  63.3836930
  54.9276710  65.0516760  62.9933040  54.0059410  63.8779360  62.7390800
  49.6687530  55.9499430  57.5266320  48.8552140  55.4512600  57.4511630
  49.4749480  56.7897680  57.1102670  52.3835920  60.3219080  55.8228480
  53.2715540  60.6336310  55.6479820  52.3541010  59.4491330  55.4309060
  43.4927010  65.2276490  61.2289350  44.0105680  64.4244750  61.1746240
  43.0411030  65.1655630  62.0706180  48.3796510  66.4942770  56.5016650
  48.7212210  67.2385000  56.0059970  47.5509220  66.8073890  56.8641480
  54.6550190  61.6330920  55.2908340  54.5713910  62.0645140  54.4404780
  55.3744380  62.0929270  55.7235160  51.2623920  65.8158610  61.8662160
  51.6147740  65.2186740  61.2063530  50.3786250  65.4902840  62.0370410
  47.3487200  66.5756300  59.2732570  48.0358330  67.1225510  59.6540160
  46.5619620  67.1197030  59.3082180  39.4879600  62.1929120  54.7649650
  40.3574450  62.4753920  55.0485570  38.9969920  63.0064990  54.6498460
  46.6514410  63.5802330  58.8857930  47.1077190  64.3907580  59.1118120
  46.3002620  63.2625470  59.7176420  42.5526190  53.9239980  59.3580450
  42.4240820  53.9157880  60.3065370  41.7288210  54.2623070  59.0071460
  54.0734820  67.3789640  54.5566820  53.8472400  66.6620080  55.1491460
  53.6831020  67.1302080  53.7188570  53.6551070  65.2961580  56.2180980
  53.3672770  65.7574270  57.0058860  54.4503240  64.8359350  56.4865200
  41.4726110  64.0102590  56.8931710  40.8654060  64.7501490  56.9027010
  41.9475460  64.1001950  56.0669910  51.0458900  58.1753410  66.5688600
  51.4139720  57.3548620  66.8968170  50.1857100  58.2355300  66.9844250
  54.4120930  57.1310350  57.3776160  53.7834090  57.2356020  56.6634390
  53.9172850  57.3507130  58.1670040  46.3804960  59.4096300  58.7934040
  45.6721110  59.8782640  59.2347650  46.6649440  58.7518310  59.4279230
  48.0060890  60.8293000  66.7926570  48.5046140  61.3038820  67.4578420
  48.1483840  59.9056520  66.9996600  50.4120390  56.1346960  60.2329830
  50.2888170  56.1533090  59.2839340  51.3604950  56.1825900  60.3528230
  44.5839980  57.7181380  56.1684750  45.4330510  58.1551530  56.1024940
  44.2171250  58.0301640  56.9956810  55.2127750  57.0460960  67.6354960
  54.7101350  57.7866360  67.9748770  56.0284410  57.4344960  67.3191750
  53.5049760  62.2894140  61.0816320  52.5639900  62.3044370  61.2564010
  53.8193830  61.5030100  61.5276620  43.4831400  63.9713740  54.6420280
  44.2494670  63.8595100  55.2045710  43.5606090  63.2751710  53.9897050
  42.1778160  61.4038810  55.3253170  42.2581750  60.4566320  55.4370570
  43.0697910  61.7345690  55.4313830  46.6072580  65.9467920  54.1155630
  46.5023220  65.3320270  54.8417010  46.4396800  65.4233810  53.3318640
  49.8475310  65.0087950  54.7197620  49.2985410  65.4557250  55.3640360
  50.4694570  64.5037200  55.2435290  45.5150430  63.9678870  56.6162920
  45.9366850  63.8018740  57.4594310  45.6401270  63.1579100  56.1218060
  48.0278070  62.9916480  53.8640020  48.5483730  62.2765500  53.4981170
  48.6746470  63.6302350  54.1640530  46.9311590  55.4711030  66.5358580
  46.4828890  55.4935290  65.6904130  46.2976790  55.0730050  67.1328880
  47.3371140  64.3665360  67.1571020  47.7559250  65.2098090  66.9847260
  46.4179770  64.5037400  66.9277800  52.0122940  62.6518730  67.1171370
  51.4858160  63.1761350  66.5136510  52.3554280  63.2846120  67.7481100
  44.4109330  60.0412100  53.5621080  44.2098390  59.1779460  53.9234420
  44.2401380  59.9545460  52.6242680  51.8897640  54.8520330  56.0907960
  52.1699930  54.0088230  56.4467380  51.1163370  55.0843440  56.6046710
  43.2092130  57.1412720  53.5498960  43.5118030  57.1480150  52.6418110
  43.9486720  56.7910580  54.0466620  46.4277060  56.0847340  54.5355160
  46.0799060  55.4071330  53.9557610  46.6289830  55.6236850  55.3498550
  42.2322260  66.4455140  54.3828760  42.6697130  66.9884810  55.0386340
  42.7169990  65.6202090  54.3925100  44.0429980  67.5653180  59.4950990
  43.7425520  67.4418150  60.3954900  43.9367470  66.7061770  59.0866720
  56.2678360  64.0897060  56.7011870  57.0297270  64.6593710  56.8071560
  56.2832730  63.5224260  57.4720180  39.7682700  62.6134990  60.9319530
  39.1131540  62.3446630  60.2879230  40.6060650  62.5039470  60.4821510
  57.2738330  64.9447160  61.5453800  57.6447160  64.1614480  61.1389770
  57.9140260  65.6336260  61.3671100  54.2572090  66.3283740  66.9584120
  53.4431930  66.7580900  67.2209910  54.6646290  66.9402150  66.3453170
  56.3197530  64.3831430  53.8584390  56.5946370  65.2910310  53.7303610
  56.1308270  64.3193960  54.7946380  52.7173140  57.4076280  55.1538020
  53.1358020  57.2207260  54.3134680  52.4109200  56.5555330  55.4640950
  56.2162870  62.3200420  58.8513820  55.8406470  61.5528350  58.4195110
  55.4865990  62.7023120  59.3388750  40.8058630  62.9987560  65.4722870
  41.1731670  62.9114960  66.3518890  40.2369450  62.2354110  65.3729730
  38.9820780  59.8233920  56.8744860  38.0784860  60.0864120  56.6996520
  39.4661400  60.0945090  56.0944820  55.4913830  60.5457910  62.1521060
  56.0151310  60.0520560  61.5211230  56.0773250  60.6808270  62.8968630
  55.6703550  60.6297780  65.6740610  54.7206260  60.5961320  65.7885600
  55.8516560  61.5397890  65.4390380  41.5247990  58.8799460  54.7839240
  42.2339690  58.4582680  54.2986520  40.8087930  58.9474690  54.1522590
  41.1722150  54.9338790  53.8241890  41.8950280  55.4747730  54.1423110
  41.4446670  54.6602210  52.9483430  54.9813800  59.8031260  58.0913470
  55.4772920  59.5702130  58.8762350  54.7829870  58.9643100  57.6751110
  40.8614340  54.1844980  63.7264510  41.5090530  53.6342360  63.2859670
  41.2816180  54.4388130  64.5480320  56.4100960  58.4392210  60.6251150
  56.3000240  58.2848250  61.5633420  57.1708550  57.9113150  60.3826560
  54.7566680  54.3786340  67.0834150  55.3938900  54.9920480  67.4493340
  54.9041570  54.4147000  66.1383380  57.2991230  56.2700130  53.8657290
  58.2240540  56.1381310  53.6575580  57.2767020  56.3492950  54.8193740
  57.3729720  57.0410790  56.4914000  56.5781220  56.9755910  57.0206910
  57.5773000  57.9761430  56.4799350  40.6146340  54.3400650  66.4689830
  40.2661160  54.7964470  67.2348010  40.2834040  53.4457780  66.5512260
  51.5053760  53.7514730  65.9570830  50.6313600  54.0849840  65.7543760
  51.3964510  53.2787910  66.7822700  52.4125740  55.9585600  67.3412550
  52.0839100  55.1437360  66.9614280  53.3608040  55.9155410  67.2178240
  49.2528580  54.6684570  64.8963740  48.4700370  55.1430070  65.1760500
  48.9591510  53.7639400  64.7876920  53.8049650  55.3707670  62.9412830
  54.2457740  55.3152770  62.0934430  53.5357240  56.2865680  63.0123010
  55.6688220  55.0022910  60.9521650  55.6076620  54.0584130  60.8052670
  56.4480250  55.1103000  61.4975110  40.5968990  54.9732050  57.4177460
  41.3548350  55.0860930  56.8441490  40.1346160  55.8101250  57.3720890
  47.1382800  57.0871320  60.4079770  46.3257310  56.7128210  60.0675650
  47.6424440  56.3316400  60.7100960  51.6407780  53.7513770  61.6462840
  52.2437150  54.3233980  62.1211360  50.9000770  54.3153210  61.4236740
  54.7842380  54.1535330  56.9203120  54.9793010  55.0518780  57.1870550
  53.9972250  53.9222410  57.4136070  42.9694140  55.4996100  55.9579430
  43.4986900  54.7125900  55.8287380  43.6022460  56.1787290  56.1914960
  45.1631980  55.2371240  59.0124820  44.5334720  54.5358550  59.1794950
  44.6237120  55.9975370  58.7957980  50.7961150  61.9501270  42.3892520
  50.7155200  61.0355880  42.1184230  50.3825570  62.4468340  41.6832230
  48.9279190  63.7280290  44.2701790  48.1521290  63.2480730  44.5600360
  49.5792120  63.0485940  44.0957950  42.9445020  64.0400100  45.1477550
  42.1129900  63.7848810  45.5474060  43.5526000  64.1110870  45.8835470
  41.3536970  59.0001990  38.9319940  40.4653670  59.3417960  38.8299820
  41.6378160  58.8002310  38.0400770  39.3169980  61.6007640  44.8159640
  39.8886090  60.8329840  44.8163280  39.3171520  61.8996400  43.9066250
  48.3688180  66.4037480  44.2771950  48.2996460  65.4627420  44.1161080
  49.1308040  66.4938890  44.8494520  40.5594850  57.0092000  46.6028570
  40.3797690  56.1117750  46.8831330  40.1574930  57.5563870  47.2775520
  49.3993350  59.2107860  44.5040880  49.7758170  58.3379740  44.3914550
  49.3012860  59.5466560  43.6131320  43.5298360  57.5833490  39.9658320
  43.6365110  58.4837220  40.2727080  42.6190720  57.5351460  39.6752970
  53.1817470  56.7058300  41.4369220  54.0027090  56.2154870  41.4794700
  53.2151550  57.2955960  42.1901060  41.1781520  59.5052500  45.2110910
  41.8591630  59.7690870  45.8298310  40.8629570  58.6653370  45.5448920
  45.3706090  60.5519860  44.2983500  45.8784310  61.0500830  44.9388520
  45.9019330  59.7755060  44.1222860  57.4717020  58.7225050  48.0012850
  56.7669190  59.1106760  47.4827960  57.7374940  59.4175340  48.6033780
  43.6542190  55.1918420  48.5646920  43.6560630  55.7090810  47.7592820
  42.8246500  54.7148600  48.5416850  50.0413280  65.3037730  40.0636820
  49.4230550  65.7687180  39.4999540  50.5536530  65.9965210  40.4806330
  44.9045040  64.8313600  46.7420420  44.5714420  65.4582520  47.3841490
  45.0811720  65.3575480  45.9622090  53.4178950  58.6458680  44.2096760
  52.7134520  58.9343570  44.7899870  53.7791110  59.4558790  43.8496320
  43.3357520  56.9028380  46.5717370  43.6774330  57.7470430  46.2771240
  42.3973330  57.0512120  46.6882710  44.1164140  66.7994400  48.5569600
  44.7338140  67.4745480  48.2754050  43.2557260  67.2082380  48.4657100
  39.4096480  65.9894260  37.4376450  39.0324460  66.4781360  36.7061350
  39.6669550  66.6619540  38.0682980  56.4865870  58.0913470  44.6005970
  55.5390780  58.1252450  44.7321400  56.8115860  58.9052420  44.9855330
  47.0185410  54.3910650  42.8961960  47.3260390  53.8357540  42.1797460
  46.0886110  54.5255110  42.7134950  53.8645890  66.8294160  40.2759590
  53.7542220  65.8868490  40.4009010  53.8614140  67.1909800  41.1622350
  51.9685910  65.0107780  46.5152030  52.3854700  64.7967890  45.6805490
  52.6925730  65.2680570  47.0860650  49.4066170  62.4559480  39.6322080
  48.4795450  62.3896860  39.8610550  49.5590990  63.3939610  39.5177320
  49.3935250  58.7276480  36.6289240  48.4538920  58.8890440  36.7141700
  49.7118510  59.4462160  36.0825230  55.9148010  63.4095000  46.6068270
  55.0866640  63.4788090  46.1318400  56.5098490  63.9949310  46.1384100
  53.4363460  64.0179780  40.1357330  52.8175880  63.6799330  39.4883630
  53.4187910  63.3739540  40.8436520  52.8790020  60.1964320  47.5523140
  52.4661200  61.0218030  47.8063130  52.1465970  59.6109360  47.3599500
  45.0122810  62.9824220  42.4141810  44.6079810  62.2701470  41.9187710
  45.0985930  62.6377460  43.3029850  45.4804510  66.6691780  44.5781020
  45.1832800  66.0637250  43.8988800  46.4304330  66.7069090  44.4670380
  43.7251430  59.7567430  46.1940850  44.2766020  59.8662770  45.4194100
  44.2394940  60.1305030  46.9096080  44.5722940  66.4073470  51.2288820
  43.6751470  66.6313440  51.4762220  44.5975810  66.5308410  50.2800220
  51.6128160  63.2566590  37.1430080  52.0521440  62.4189020  36.9967900
  52.3256580  63.8895990  37.2294220  43.3994160  63.2786790  49.8046190
  43.2601930  64.1509590  50.1733590  42.5175520  62.9359600  49.6594130
  55.1945300  54.5109400  35.4571120  54.8817960  54.6036230  36.3570190
  55.9557770  55.0890430  35.4068550  41.7127440  61.8769200  39.9148460
  41.5925040  62.6031290  39.3029730  41.4028330  61.1072110  39.4376370
  39.3512810  65.0484340  45.7217100  39.4293230  65.1833110  44.7772820
  39.9654490  64.3400230  45.9145220  40.5960440  66.7484530  42.1323280
  40.1888520  66.8899120  41.2776880  41.4873450  66.4644690  41.9294490
  56.5522580  67.1948440  50.4695520  56.6785640  66.9560320  49.5512700
  56.5943960  66.3632980  50.9417600  56.4046590  59.2480900  51.4345260
  55.7890860  59.7560570  50.9060720  56.0843010  58.3479230  51.3771200
  39.4072330  66.0898510  48.2611560  39.5703370  65.6203870  47.4430930
  39.8724780  65.5822070  48.9260400  44.1791100  55.2204270  43.2972130
  43.7359250  56.0013810  42.9656650  44.7376090  55.5434160  44.0043070
  48.4660910  58.0872790  48.9007450  48.0040280  58.2955810  49.7127390
  48.0639020  57.2732140  48.5978120  53.4665420  59.3081740  50.0304110
  52.6159010  59.0087490  50.3513180  53.3067210  59.5523750  49.1187930
  50.5615130  60.8083490  52.1302900  50.8868540  59.9747240  51.7905130
  51.3495460  61.3312010  52.2781230  47.2949920  54.8414970  38.1777960
  46.6704100  54.8374840  38.9031270  47.2080040  53.9745930  37.7813930
  46.2167000  55.7651600  45.1561730  46.5139330  56.6714430  45.0753750
  46.7652560  55.2770380  44.5421300  43.9705320  60.3437840  41.0253380
  43.7446240  60.1275010  41.9300000  43.1897850  60.7766300  40.6799350
  51.2003080  60.3501210  39.6244030  50.6011970  61.0737010  39.4407650
  51.7482690  60.2877990  38.8420480  46.4104530  61.2423420  51.6913650
  46.3148130  60.3018150  51.5414050  47.2536510  61.4638490  51.2961720
  49.8067950  58.9864750  41.6547310  50.1997520  59.3036950  40.8416000
  50.1684800  58.1076630  41.7691830  41.5415070  57.6537090  49.8447430
  41.1478460  58.5012300  50.0520210  40.8533470  57.0163460  50.0356070
  48.1160120  57.7372060  52.9144170  47.4258440  57.5444260  53.5490260
  48.8592420  58.0206700  53.4468470  38.8432120  55.5765550  43.8777510
  38.5545170  56.1468410  44.5902490  39.5877880  55.0970000  44.2408740
  39.0302350  59.5185670  35.0880230  38.9477020  60.4616430  35.2295220
  38.6785410  59.3760580  34.2092580  50.3923090  61.5770500  45.7498090
  49.6604210  62.0857310  46.0988190  49.9947430  60.7600480  45.4486870
  46.8300480  58.2524700  44.1550580  46.8336540  57.8114650  43.3055120
  47.7251600  58.5742030  44.2622400  42.6802860  58.1351190  43.1144790
  42.3402910  58.6126420  43.8711840  41.9180180  57.6816310  42.7545890
  46.8920630  59.2536780  37.1457340  47.0133450  59.2123260  38.0943160
  46.5069140  60.1160930  36.9904070  50.8549000  57.0304180  45.1621030
  50.8721740  57.4812830  46.0062880  50.6064580  56.1309820  45.3754470
  45.9042130  61.5637920  36.5440640  45.3359030  61.1156170  35.9176550
  46.6131130  61.9230700  36.0105790  54.2819750  54.4436360  51.0007410
  54.6065520  53.7126020  51.5265390  54.3176260  54.1250000  50.0988400
  40.9811310  65.4649940  50.4207370  40.5966100  64.8243610  51.0190330
  41.2923500  66.1686060  50.9902100  47.1308450  62.3126480  45.9015990
  47.4978580  61.8385050  46.6477330  46.9413510  63.1868050  46.2424330
  39.9948940  57.0570170  42.0309460  39.7095860  56.6925840  42.8688080
  39.9327800  56.3250630  41.4172600  44.9207820  61.3535120  48.2200200
  44.6164890  62.2327100  48.4450560  45.8754280  61.4134910  48.2557640
  43.4489610  65.5596110  38.8167050  42.6751870  65.0193730  38.6565770
  44.1784240  65.0402720  38.4784810  54.2077590  64.5561470  44.6093440
  54.9276710  65.0516760  44.2189550  54.0059410  63.8779360  43.9647310
  49.6687530  55.9499430  38.7522830  48.8552140  55.4512600  38.6768140
  49.4749480  56.7897680  38.3359180  49.5896390  64.6270530  50.4962440
  49.5233700  63.7066200  50.2420030  48.9601530  64.7245970  51.2107080
  52.3835920  60.3219080  37.0484990  53.2715540  60.6336310  36.8736330
  52.3541010  59.4491330  36.6565570  43.4927010  65.2276490  42.4545860
  44.0105680  64.4244750  42.4002750  43.0411030  65.1655630  43.2962690
  48.3796510  66.4942770  37.7273160  48.7212210  67.2385000  37.2316480
  47.5509220  66.8073890  38.0897990  40.9771550  62.1937860  49.3671560
  40.6186490  62.8591710  49.9544900  40.6826110  61.3621410  49.7384180
  44.1784670  62.6522100  52.2511110  43.8784810  62.7979280  51.3538930
  44.9495910  62.0927390  52.1584500  49.5213120  67.4491100  50.2466240
  49.5357660  66.5172060  50.0285150  48.8138220  67.5350860  50.8856010
  54.6550190  61.6330920  36.5164850  54.5713910  62.0645140  35.6661290
  55.3744380  62.0929270  36.9491670  55.7324330  64.0898440  49.5934820
  55.0072520  64.6827220  49.3964210  56.2599790  64.0821980  48.7948190
  51.2623920  65.8158610  43.0918670  51.6147740  65.2186740  42.4320040
  50.3786250  65.4902840  43.2626920  47.3487200  66.5756300  40.4989080
  48.0358330  67.1225510  40.8796670  46.5619620  67.1197030  40.5338690
  39.4879600  62.1929120  35.9906160  40.3574450  62.4753920  36.2742080
  38.9969920  63.0064990  35.8754970  46.6514410  63.5802330  40.1114440
  47.1077190  64.3907580  40.3374630  46.3002620  63.2625470  40.9432930
  42.5526190  53.9239980  40.5836960  42.4240820  53.9157880  41.5321880
  41.7288210  54.2623070  40.2327970  54.0734820  67.3789640  35.7823330
  53.8472400  66.6620080  36.3747970  53.6831020  67.1302080  34.9445080
  39.5520120  55.6831100  50.0443660  38.8378640  55.8828020  50.6496270
  39.9715160  54.9070670  50.4158460  53.6551070  65.2961580  37.4437490
  53.3672770  65.7574270  38.2315370  54.4503240  64.8359350  37.7121710
  41.4726110  64.0102590  38.1188220  40.8654060  64.7501490  38.1283520
  41.9475460  64.1001950  37.2926420  51.0458900  58.1753410  47.7945110
  51.4139720  57.3548620  48.1224680  50.1857100  58.2355300  48.2100760
  54.4120930  57.1310350  38.6032670  53.7834090  57.2356020  37.8890900
  53.9172850  57.3507130  39.3926550  46.3804960  59.4096300  40.0190550
  45.6721110  59.8782640  40.4604160  46.6649440  58.7518310  40.6535740
  48.0060890  60.8293000  48.0183080  48.5046140  61.3038820  48.6834930
  48.1483840  59.9056520  48.2253110  50.4120390  56.1346960  41.4586340
  50.2888170  56.1533090  40.5095850  51.3604950  56.1825900  41.5784740
  44.5839980  57.7181380  37.3941260  45.4330510  58.1551530  37.3281450
  44.2171250  58.0301640  38.2213320  55.2127750  57.0460960  48.8611470
  54.7101350  57.7866360  49.2005280  56.0284410  57.4344960  48.5448260
  53.5049760  62.2894140  42.3072830  52.5639900  62.3044370  42.4820520
  53.8193830  61.5030100  42.7533130  43.4831400  63.9713740  35.8676790
  44.2494670  63.8595100  36.4302220  43.5606090  63.2751710  35.2153560
  42.1778160  61.4038810  36.5509680  42.2581750  60.4566320  36.6627080
  43.0697910  61.7345690  36.6570340  50.8215780  66.8460140  52.7905210
  50.2153940  66.8691740  52.0500960  50.5169890  66.1143180  53.3272460
  39.7048960  63.2253730  51.7865850  40.2087980  62.6461010  52.3582080
  38.9656380  63.5093960  52.3242220  46.6072580  65.9467920  35.3412140
  46.5023220  65.3320270  36.0673520  46.4396800  65.4233810  34.5575150
  46.7586900  64.6324720  51.3201370  45.9932570  65.2009720  51.2356040
  46.9402860  64.3400930  50.4269600  49.8475310  65.0087950  35.9454130
  49.2985410  65.4557250  36.5896870  50.4694570  64.5037200  36.4691800
  53.9010250  66.3630050  51.8776390  54.6419720  66.7005810  51.3743850
  53.1382930  66.5322110  51.3246160  41.7372040  61.3683320  52.6815920
  41.7777380  61.0697190  53.5901150  42.5917540  61.7690930  52.5223440
  45.5150430  63.9678870  37.8419430  45.9366850  63.8018740  38.6850820
  45.6401270  63.1579100  37.3474570  43.6777850  59.9475420  50.6490410
  43.1474310  59.4566370  50.0213750  44.3465920  60.3759620  50.1148340
  48.0278070  62.9916480  35.0896530  48.5483730  62.2765500  34.7237680
  48.6746470  63.6302350  35.3897040  52.5755910  64.4144880  50.4131600
  52.9896930  64.5689960  51.2622020  51.6406910  64.5400100  50.5757380
  53.0478080  61.7541040  52.4170750  53.6298850  60.9993360  52.3291230
  53.2239850  62.2848480  51.6402230  44.1650150  56.9137790  50.7287700
  44.0707020  56.2958540  50.0038570  43.5847540  57.6404080  50.5017610
  46.9311590  55.4711030  47.7615090  46.4828890  55.4935290  46.9160640
  46.2976790  55.0730050  48.3585390  47.3371140  64.3665360  48.3827530
  47.7559250  65.2098090  48.2103770  46.4179770  64.5037400  48.1534310
  49.6735040  62.0981540  49.7665370  49.7931250  61.5022680  50.5060210
  50.5329040  62.1351230  49.3466670  52.0122940  62.6518730  48.3427880
  51.4858160  63.1761350  47.7393020  52.3554280  63.2846120  48.9737610
  44.4109330  60.0412100  34.7877590  44.2098390  59.1779460  35.1490930
  44.2401380  59.9545460  33.8499190  46.4403810  58.6402890  51.0241190
  47.0303500  58.3318740  51.7119010  45.6224050  58.1682640  51.1801090
  51.2597240  58.2568700  51.2574210  50.5712760  57.5950240  51.1924200
  51.9803260  57.8106970  51.7022670  51.8897640  54.8520330  37.3164470
  52.1699930  54.0088230  37.6723890  51.1163370  55.0843440  37.8303220
  43.2092130  57.1412720  34.7755470  43.5118030  57.1480150  33.8674620
  43.9486720  56.7910580  35.2723130  46.4277060  56.0847340  35.7611670
  46.0799060  55.4071330  35.1814120  46.6289830  55.6236850  36.5755060
  42.2322260  66.4455140  35.6085270  42.6697130  66.9884810  36.2642850
  42.7169990  65.6202090  35.6181610  44.0429980  67.5653180  40.7207500
  43.7425520  67.4418150  41.6211410  43.9367470  66.7061770  40.3123230
  56.2678360  64.0897060  37.9268380  57.0297270  64.6593710  38.0328070
  56.2832730  63.5224260  38.6976690  39.7682700  62.6134990  42.1576040
  39.1131540  62.3446630  41.5135740  40.6060650  62.5039470  41.7078020
  57.2738330  64.9447160  42.7710310  57.6447160  64.1614480  42.3646280
  57.9140260  65.6336260  42.5927610  54.2572090  66.3283740  48.1840630
  53.4431930  66.7580900  48.4466420  54.6646290  66.9402150  47.5709680
  56.3197530  64.3831430  35.0840900  56.5946370  65.2910310  34.9560120
  56.1308270  64.3193960  36.0202890  52.7173140  57.4076280  36.3794530
  53.1358020  57.2207260  35.5391190  52.4109200  56.5555330  36.6897460
  56.2162870  62.3200420  40.0770330  55.8406470  61.5528350  39.6451620
  55.4865990  62.7023120  40.5645260  40.8058630  62.9987560  46.6979380
  41.1731670  62.9114960  47.5775400  40.2369450  62.2354110  46.5986240
  55.6062490  61.4671940  49.7109850  55.3748580  61.2384690  48.8107800
  55.8667040  62.3871490  49.6654740  40.3574630  59.9096650  50.6037800
  39.4630680  59.8763410  50.9431510  40.8972180  60.1083440  51.3689050
  54.0450560  56.6928370  52.4889550  54.9220740  56.7011770  52.8723550
  54.0571400  55.9559210  51.8781900  38.9820780  59.8233920  38.1001370
  38.0784860  60.0864120  37.9253030  39.4661400  60.0945090  37.3201330
  55.4913830  60.5457910  43.3777570  56.0151310  60.0520560  42.7467740
  56.0773250  60.6808270  44.1225140  55.6703550  60.6297780  46.8997120
  54.7206260  60.5961320  47.0142110  55.8516560  61.5397890  46.6646890
  41.5247990  58.8799460  36.0095750  42.2339690  58.4582680  35.5243030
  40.8087930  58.9474690  35.3779100  41.1722150  54.9338790  35.0498400
  41.8950280  55.4747730  35.3679620  41.4446670  54.6602210  34.1739940
  54.9813800  59.8031260  39.3169980  55.4772920  59.5702130  40.1018860
  54.7829870  58.9643100  38.9007620  40.8614340  54.1844980  44.9521020
  41.5090530  53.6342360  44.5116180  41.2816180  54.4388130  45.7736830
  56.4100960  58.4392210  41.8507660  56.3000240  58.2848250  42.7889930
  57.1708550  57.9113150  41.6083070  54.7566680  54.3786340  48.3090660
  55.3938900  54.9920480  48.6749850  54.9041570  54.4147000  47.3639890
  57.2991230  56.2700130  35.0913800  58.2240540  56.1381310  34.8832090
  57.2767020  56.3492950  36.0450250  57.3729720  57.0410790  37.7170510
  56.5781220  56.9755910  38.2463420  57.5773000  57.9761430  37.7055860
  40.6146340  54.3400650  47.6946340  40.2661160  54.7964470  48.4604520
  40.2834040  53.4457780  47.7768770  48.1271160  55.5312530  51.2165760
  48.0660050  56.1234360  51.9661170  49.0671540  55.4238490  51.0716020
  50.7645720  55.1882590  50.8558050  51.3786130  55.5061880  50.1939130
  51.3095280  54.7031180  51.4753910  41.2866980  53.8676850  50.9697110
  41.8349970  53.6864900  50.2063220  41.3522290  53.0770960  51.5053420
  51.5053760  53.7514730  47.1827340  50.6313600  54.0849840  46.9800270
  51.3964510  53.2787910  48.0079210  52.4125740  55.9585600  48.5669060
  52.0839100  55.1437360  48.1870790  53.3608040  55.9155410  48.4434750
  49.2528580  54.6684570  46.1220250  48.4700370  55.1430070  46.4017010
  48.9591510  53.7639400  46.0133430  53.8049650  55.3707670  44.1669340
  54.2457740  55.3152770  43.3190940  53.5357240  56.2865680  44.2379520
  55.6688220  55.0022910  42.1778160  55.6076620  54.0584130  42.0309180
  56.4480250  55.1103000  42.7231620  40.5968990  54.9732050  38.6433970
  41.3548350  55.0860930  38.0698000  40.1346160  55.8101250  38.5977400
  47.1382800  57.0871320  41.6336280  46.3257310  56.7128210  41.2932160
  47.6424440  56.3316400  41.9357470  51.6407780  53.7513770  42.8719350
  52.2437150  54.3233980  43.3467870  50.9000770  54.3153210  42.6493250
  54.7842380  54.1535330  38.1459630  54.9793010  55.0518780  38.4127060
  53.9972250  53.9222410  38.6392580  42.9694140  55.4996100  37.1835940
  43.4986900  54.7125900  37.0543890  43.6022460  56.1787290  37.4171470
  45.1631980  55.2371240  40.2381330  44.5334720  54.5358550  40.4051460
  44.6237120  55.9975370  40.0214490  45.2887540  54.5155220  52.6733820
  45.0071810  55.0188820  51.9094640  45.6707240  53.7176970  52.3075950
  51.8903000  53.9308800  53.2514290  51.7768450  54.2503410  54.1465810
  52.7072740  54.3321310  52.9551570  50.7961150  61.9501270  23.6149030
  50.7155200  61.0355880  23.3440740  50.3825570  62.4468340  22.9088740
  48.9279190  63.7280290  25.4958300  48.1521290  63.2480730  25.7856870
  49.5792120  63.0485940  25.3214460  42.9445020  64.0400100  26.3734060
  42.1129900  63.7848810  26.7730570  43.5526000  64.1110870  27.1091980
  41.3536970  59.0001990  20.1576450  40.4653670  59.3417960  20.0556330
  41.6378160  58.8002310  19.2657280  39.3169980  61.6007640  26.0416150
  39.8886090  60.8329840  26.0419790  39.3171520  61.8996400  25.1322760
  48.3688180  66.4037480  25.5028460  48.2996460  65.4627420  25.3417590
  49.1308040  66.4938890  26.0751030  40.5594850  57.0092000  27.8285080
  40.3797690  56.1117750  28.1087840  40.1574930  57.5563870  28.5032030
  49.3993350  59.2107860  25.7297390  49.7758170  58.3379740  25.6171060
  49.3012860  59.5466560  24.8387830  43.5298360  57.5833490  21.1914830
  43.6365110  58.4837220  21.4983590  42.6190720  57.5351460  20.9009480
  53.1817470  56.7058300  22.6625730  54.0027090  56.2154870  22.7051210
  53.2151550  57.2955960  23.4157570  41.1781520  59.5052500  26.4367420
  41.8591630  59.7690870  27.0554820  40.8629570  58.6653370  26.7705430
  45.3706090  60.5519860  25.5240010  45.8784310  61.0500830  26.1645030
  45.9019330  59.7755060  25.3479370  57.4717020  58.7225050  29.2269360
  56.7669190  59.1106760  28.7084470  57.7374940  59.4175340  29.8290290
  43.6542190  55.1918420  29.7903430  43.6560630  55.7090810  28.9849330
  42.8246500  54.7148600  29.7673360  50.0413280  65.3037730  21.2893330
  49.4230550  65.7687180  20.7256050  50.5536530  65.9965210  21.7062840
  44.9045040  64.8313600  27.9676930  44.5714420  65.4582520  28.6098000
  45.0811720  65.3575480  27.1878600  53.4178950  58.6458680  25.4353270
  52.7134520  58.9343570  26.0156380  53.7791110  59.4558790  25.0752830
  43.3357520  56.9028380  27.7973880  43.6774330  57.7470430  27.5027750
  42.3973330  57.0512120  27.9139220  44.1164140  66.7994400  29.7826110
  44.7338140  67.4745480  29.5010560  43.2557260  67.2082380  29.6913610
  39.4096480  65.9894260  18.6632960  39.0324460  66.4781360  17.9317860
  39.6669550  66.6619540  19.2939490  56.4865870  58.0913470  25.8262480
  55.5390780  58.1252450  25.9577910  56.8115860  58.9052420  26.2111840
  47.0185410  54.3910650  24.1218470  47.3260390  53.8357540  23.4053970
  46.0886110  54.5255110  23.9391460  53.8645890  66.8294160  21.5016100
  53.7542220  65.8868490  21.6265520  53.8614140  67.1909800  22.3878860
  51.9685910  65.0107780  27.7408540  52.3854700  64.7967890  26.9062000
  52.6925730  65.2680570  28.3117160  49.4066170  62.4559480  20.8578590
  48.4795450  62.3896860  21.0867060  49.5590990  63.3939610  20.7433830
  49.3935250  58.7276480  17.8545750  48.4538920  58.8890440  17.9398210
  49.7118510  59.4462160  17.3081740  55.9148010  63.4095000  27.8324780
  55.0866640  63.4788090  27.3574910  56.5098490  63.9949310  27.3640610
  53.4363460  64.0179780  21.3613840  52.8175880  63.6799330  20.7140140
  53.4187910  63.3739540  22.0693030  52.8790020  60.1964320  28.7779650
  52.4661200  61.0218030  29.0319640  52.1465970  59.6109360  28.5856010
  45.0122810  62.9824220  23.6398320  44.6079810  62.2701470  23.1444220
  45.0985930  62.6377460  24.5286360  45.4804510  66.6691780  25.8037530
  45.1832800  66.0637250  25.1245310  46.4304330  66.7069090  25.6926890
  43.7251430  59.7567430  27.4197360  44.2766020  59.8662770  26.6450610
  44.2394940  60.1305030  28.1352590  44.5722940  66.4073470  32.4545330
  43.6751470  66.6313440  32.7018730  44.5975810  66.5308410  31.5056730
  51.6128160  63.2566590  18.3686590  52.0521440  62.4189020  18.2224410
  52.3256580  63.8895990  18.4550730  43.3994160  63.2786790  31.0302700
  43.2601930  64.1509590  31.3990100  42.5175520  62.9359600  30.8850640
  55.1945300  54.5109400  16.6827630  54.8817960  54.6036230  17.5826700
  55.9557770  55.0890430  16.6325060  41.7127440  61.8769200  21.1404970
  41.5925040  62.6031290  20.5286240  41.4028330  61.1072110  20.6632880
  39.3512810  65.0484340  26.9473610  39.4293230  65.1833110  26.0029330
  39.9654490  64.3400230  27.1401730  40.5960440  66.7484530  23.3579790
  40.1888520  66.8899120  22.5033390  41.4873450  66.4644690  23.1551000
  56.5522580  67.1948440  31.6952030  56.6785640  66.9560320  30.7769210
  56.5943960  66.3632980  32.1674110  56.4046590  59.2480900  32.6601770
  55.7890860  59.7560570  32.1317230  56.0843010  58.3479230  32.6027710
  39.4072330  66.0898510  29.4868070  39.5703370  65.6203870  28.6687440
  39.8724780  65.5822070  30.1516910  44.1791100  55.2204270  24.5228640
  43.7359250  56.0013810  24.1913160  44.7376090  55.5434160  25.2299580
  48.4660910  58.0872790  30.1263960  48.0040280  58.2955810  30.9383900
  48.0639020  57.2732140  29.8234630  53.4665420  59.3081740  31.2560620
  52.6159010  59.0087490  31.5769690  53.3067210  59.5523750  30.3444440
  50.5615130  60.8083490  33.3559410  50.8868540  59.9747240  33.0161640
  51.3495460  61.3312010  33.5037740  47.2949920  54.8414970  19.4034470
  46.6704100  54.8374840  20.1287780  47.2080040  53.9745930  19.0070440
  46.2167000  55.7651600  26.3818240  46.5139330  56.6714430  26.3010260
  46.7652560  55.2770380  25.7677810  43.9705320  60.3437840  22.2509890
  43.7446240  60.1275010  23.1556510  43.1897850  60.7766300  21.9055860
  51.2003080  60.3501210  20.8500540  50.6011970  61.0737010  20.6664160
  51.7482690  60.2877990  20.0676990  46.4104530  61.2423420  32.9170160
  46.3148130  60.3018150  32.7670560  47.2536510  61.4638490  32.5218230
  49.8067950  58.9864750  22.8803820  50.1997520  59.3036950  22.0672510
  50.1684800  58.1076630  22.9948340  41.5415070  57.6537090  31.0703940
  41.1478460  58.5012300  31.2776720  40.8533470  57.0163460  31.2612580
  48.1160120  57.7372060  34.1400680  47.4258440  57.5444260  34.7746770
  48.8592420  58.0206700  34.6724980  38.8432120  55.5765550  25.1034020
  38.5545170  56.1468410  25.8159000  39.5877880  55.0970000  25.4665250
  39.0302350  59.5185670  16.3136740  38.9477020  60.4616430  16.4551730
  38.6785410  59.3760580  15.4349090  50.3923090  61.5770500  26.9754600
  49.6604210  62.0857310  27.3244700  49.9947430  60.7600480  26.6743380
  46.8300480  58.2524700  25.3807090  46.8336540  57.8114650  24.5311630
  47.7251600  58.5742030  25.4878910  42.6802860  58.1351190  24.3401300
  42.3402910  58.6126420  25.0968350  41.9180180  57.6816310  23.9802400
  46.8920630  59.2536780  18.3713850  47.0133450  59.2123260  19.3199670
  46.5069140  60.1160930  18.2160580  50.8549000  57.0304180  26.3877540
  50.8721740  57.4812830  27.2319390  50.6064580  56.1309820  26.6010980
  45.9042130  61.5637920  17.7697150  45.3359030  61.1156170  17.1433060
  46.6131130  61.9230700  17.2362300  54.2819750  54.4436360  32.2263920
  54.6065520  53.7126020  32.7521900  54.3176260  54.1250000  31.3244910
  40.9811310  65.4649940  31.6463880  40.5966100  64.8243610  32.2446840
  41.2923500  66.1686060  32.2158610  47.1308450  62.3126480  27.1272500
  47.4978580  61.8385050  27.8733840  46.9413510  63.1868050  27.4680840
  39.9948940  57.0570170  23.2565970  39.7095860  56.6925840  24.0944590
  39.9327800  56.3250630  22.6429110  44.9207820  61.3535120  29.4456710
  44.6164890  62.2327100  29.6707070  45.8754280  61.4134910  29.4814150
  43.4489610  65.5596110  20.0423560  42.6751870  65.0193730  19.8822280
  44.1784240  65.0402720  19.7041320  54.2077590  64.5561470  25.8349950
  54.9276710  65.0516760  25.4446060  54.0059410  63.8779360  25.1903820
  49.6687530  55.9499430  19.9779340  48.8552140  55.4512600  19.9024650
  49.4749480  56.7897680  19.5615690  49.5896390  64.6270530  31.7218950
  49.5233700  63.7066200  31.4676540  48.9601530  64.7245970  32.4363590
  52.3835920  60.3219080  18.2741500  53.2715540  60.6336310  18.0992840
  52.3541010  59.4491330  17.8822080  43.4927010  65.2276490  23.6802370
  44.0105680  64.4244750  23.6259260  43.0411030  65.1655630  24.5219200
  48.3796510  66.4942770  18.9529670  48.7212210  67.2385000  18.4572990
  47.5509220  66.8073890  19.3154500  40.9771550  62.1937860  30.5928070
  40.6186490  62.8591710  31.1801410  40.6826110  61.3621410  30.9640690
  44.1784670  62.6522100  33.4767620  43.8784810  62.7979280  32.5795440
  44.9495910  62.0927390  33.3841010  49.5213120  67.4491100  31.4722750
  49.5357660  66.5172060  31.2541660  48.8138220  67.5350860  32.1112520
  54.6550190  61.6330920  17.7421360  54.5713910  62.0645140  16.8917800
  55.3744380  62.0929270  18.1748180  55.7324330  64.0898440  30.8191330
  55.0072520  64.6827220  30.6220720  56.2599790  64.0821980  30.0204700
  51.2623920  65.8158610  24.3175180  51.6147740  65.2186740  23.6576550
  50.3786250  65.4902840  24.4883430  47.3487200  66.5756300  21.7245590
  48.0358330  67.1225510  22.1053180  46.5619620  67.1197030  21.7595200
  39.4879600  62.1929120  17.2162670  40.3574450  62.4753920  17.4998590
  38.9969920  63.0064990  17.1011480  46.6514410  63.5802330  21.3370950
  47.1077190  64.3907580  21.5631140  46.3002620  63.2625470  22.1689440
  42.5526190  53.9239980  21.8093470  42.4240820  53.9157880  22.7578390
  41.7288210  54.2623070  21.4584480  54.0734820  67.3789640  17.0079840
  53.8472400  66.6620080  17.6004480  53.6831020  67.1302080  16.1701590
  39.5520120  55.6831100  31.2700170  38.8378640  55.8828020  31.8752780
  39.9715160  54.9070670  31.6414970  53.6551070  65.2961580  18.6694000
  53.3672770  65.7574270  19.4571880  54.4503240  64.8359350  18.9378220
  41.4726110  64.0102590  19.3444730  40.8654060  64.7501490  19.3540030
  41.9475460  64.1001950  18.5182930  51.0458900  58.1753410  29.0201620
  51.4139720  57.3548620  29.3481190  50.1857100  58.2355300  29.4357270
  54.4120930  57.1310350  19.8289180  53.7834090  57.2356020  19.1147410
  53.9172850  57.3507130  20.6183060  46.3804960  59.4096300  21.2447060
  45.6721110  59.8782640  21.6860670  46.6649440  58.7518310  21.8792250
  48.0060890  60.8293000  29.2439590  48.5046140  61.3038820  29.9091440
  48.1483840  59.9056520  29.4509620  50.4120390  56.1346960  22.6842850
  50.2888170  56.1533090  21.7352360  51.3604950  56.1825900  22.8041250
  44.5839980  57.7181380  18.6197770  45.4330510  58.1551530  18.5537960
  44.2171250  58.0301640  19.4469830  55.2127750  57.0460960  30.0867980
  54.7101350  57.7866360  30.4261790  56.0284410  57.4344960  29.7704770
  53.5049760  62.2894140  23.5329340  52.5639900  62.3044370  23.7077030
  53.8193830  61.5030100  23.9789640  43.4831400  63.9713740  17.0933300
  44.2494670  63.8595100  17.6558730  43.5606090  63.2751710  16.4410070
  42.1778160  61.4038810  17.7766190  42.2581750  60.4566320  17.8883590
  43.0697910  61.7345690  17.8826850  50.8215780  66.8460140  34.0161720
  50.2153940  66.8691740  33.2757470  50.5169890  66.1143180  34.5528970
  39.7048960  63.2253730  33.0122360  40.2087980  62.6461010  33.5838590
  38.9656380  63.5093960  33.5498730  46.6072580  65.9467920  16.5668650
  46.5023220  65.3320270  17.2930030  46.4396800  65.4233810  15.7831660
  46.7586900  64.6324720  32.5457880  45.9932570  65.2009720  32.4612550
  46.9402860  64.3400930  31.6526110  49.8475310  65.0087950  17.1710640
  49.2985410  65.4557250  17.8153380  50.4694570  64.5037200  17.6948310
  53.9010250  66.3630050  33.1032900  54.6419720  66.7005810  32.6000360
  53.1382930  66.5322110  32.5502670  41.7372040  61.3683320  33.9072430
  41.7777380  61.0697190  34.8157660  42.5917540  61.7690930  33.7479950
  45.5150430  63.9678870  19.0675940  45.9366850  63.8018740  19.9107330
  45.6401270  63.1579100  18.5731080  43.6777850  59.9475420  31.8746920
  43.1474310  59.4566370  31.2470260  44.3465920  60.3759620  31.3404850
  48.0278070  62.9916480  16.3153040  48.5483730  62.2765500  15.9494190
  48.6746470  63.6302350  16.6153550  52.5755910  64.4144880  31.6388110
  52.9896930  64.5689960  32.4878530  51.6406910  64.5400100  31.8013890
  53.0478080  61.7541040  33.6427260  53.6298850  60.9993360  33.5547740
  53.2239850  62.2848480  32.8658740  44.1650150  56.9137790  31.9544210
  44.0707020  56.2958540  31.2295080  43.5847540  57.6404080  31.7274120
  46.9311590  55.4711030  28.9871600  46.4828890  55.4935290  28.1417150
  46.2976790  55.0730050  29.5841900  47.3371140  64.3665360  29.6084040
  47.7559250  65.2098090  29.4360280  46.4179770  64.5037400  29.3790820
  49.6735040  62.0981540  30.9921880  49.7931250  61.5022680  31.7316720
  50.5329040  62.1351230  30.5723180  52.0122940  62.6518730  29.5684390
  51.4858160  63.1761350  28.9649530  52.3554280  63.2846120  30.1994120
  44.4109330  60.0412100  16.0134100  44.2098390  59.1779460  16.3747440
  44.2401380  59.9545460  15.0755700  46.4403810  58.6402890  32.2497700
  47.0303500  58.3318740  32.9375520  45.6224050  58.1682640  32.4057600
  51.2597240  58.2568700  32.4830720  50.5712760  57.5950240  32.4180710
  51.9803260  57.8106970  32.9279180  51.8897640  54.8520330  18.5420980
  52.1699930  54.0088230  18.8980400  51.1163370  55.0843440  19.0559730
  43.2092130  57.1412720  16.0011980  43.5118030  57.1480150  15.0931130
  43.9486720  56.7910580  16.4979640  46.4277060  56.0847340  16.9868180
  46.0799060  55.4071330  16.4070630  46.6289830  55.6236850  17.8011570
  42.2322260  66.4455140  16.8341780  42.6697130  66.9884810  17.4899360
  42.7169990  65.6202090  16.8438120  44.0429980  67.5653180  21.9464010
  43.7425520  67.4418150  22.8467920  43.9367470  66.7061770  21.5379740
  56.2678360  64.0897060  19.1524890  57.0297270  64.6593710  19.2584580
  56.2832730  63.5224260  19.9233200  39.7682700  62.6134990  23.3832550
  39.1131540  62.3446630  22.7392250  40.6060650  62.5039470  22.9334530
  57.2738330  64.9447160  23.9966820  57.6447160  64.1614480  23.5902790
  57.9140260  65.6336260  23.8184120  54.2572090  66.3283740  29.4097140
  53.4431930  66.7580900  29.6722930  54.6646290  66.9402150  28.7966190
  56.3197530  64.3831430  16.3097410  56.5946370  65.2910310  16.1816630
  56.1308270  64.3193960  17.2459400  52.7173140  57.4076280  17.6051040
  53.1358020  57.2207260  16.7647700  52.4109200  56.5555330  17.9153970
  56.2162870  62.3200420  21.3026840  55.8406470  61.5528350  20.8708130
  55.4865990  62.7023120  21.7901770  40.8058630  62.9987560  27.9235890
  41.1731670  62.9114960  28.8031910  40.2369450  62.2354110  27.8242750
  55.6062490  61.4671940  30.9366360  55.3748580  61.2384690  30.0364310
  55.8667040  62.3871490  30.8911250  40.3574630  59.9096650  31.8294310
  39.4630680  59.8763410  32.1688020  40.8972180  60.1083440  32.5945560
  54.0450560  56.6928370  33.7146060  54.9220740  56.7011770  34.0980060
  54.0571400  55.9559210  33.1038410  38.9820780  59.8233920  19.3257880
  38.0784860  60.0864120  19.1509540  39.4661400  60.0945090  18.5457840
  55.4913830  60.5457910  24.6034080  56.0151310  60.0520560  23.9724250
  56.0773250  60.6808270  25.3481650  55.6703550  60.6297780  28.1253630
  54.7206260  60.5961320  28.2398620  55.8516560  61.5397890  27.8903400
  41.5247990  58.8799460  17.2352260  42.2339690  58.4582680  16.7499540
  40.8087930  58.9474690  16.6035610  41.1722150  54.9338790  16.2754910
  41.8950280  55.4747730  16.5936130  41.4446670  54.6602210  15.3996450
  54.9813800  59.8031260  20.5426490  55.4772920  59.5702130  21.3275370
  54.7829870  58.9643100  20.1264130  40.8614340  54.1844980  26.1777530
  41.5090530  53.6342360  25.7372690  41.2816180  54.4388130  26.9993340
  56.4100960  58.4392210  23.0764170  56.3000240  58.2848250  24.0146440
  57.1708550  57.9113150  22.8339580  54.7566680  54.3786340  29.5347170
  55.3938900  54.9920480  29.9006360  54.9041570  54.4147000  28.5896400
  57.2991230  56.2700130  16.3170310  58.2240540  56.1381310  16.1088600
  57.2767020  56.3492950  17.2706760  57.3729720  57.0410790  18.9427020
  56.5781220  56.9755910  19.4719930  57.5773000  57.9761430  18.9312370
  40.6146340  54.3400650  28.9202850  40.2661160  54.7964470  29.6861030
  40.2834040  53.4457780  29.0025280  48.1271160  55.5312530  32.4422270
  48.0660050  56.1234360  33.1917680  49.0671540  55.4238490  32.2972530
  50.7645720  55.1882590  32.0814560  51.3786130  55.5061880  31.4195640
  51.3095280  54.7031180  32.7010420  41.2866980  53.8676850  32.1953620
  41.8349970  53.6864900  31.4319730  41.3522290  53.0770960  32.7309930
  51.5053760  53.7514730  28.4083850  50.6313600  54.0849840  28.2056780
  51.3964510  53.2787910  29.2335720  52.4125740  55.9585600  29.7925570
  52.0839100  55.1437360  29.4127300  53.3608040  55.9155410  29.6691260
  49.2528580  54.6684570  27.3476760  48.4700370  55.1430070  27.6273520
  48.9591510  53.7639400  27.2389940  53.8049650  55.3707670  25.3925850
  54.2457740  55.3152770  24.5447450  53.5357240  56.2865680  25.4636030
  55.6688220  55.0022910  23.4034670  55.6076620  54.0584130  23.2565690
  56.4480250  55.1103000  23.9488130  40.5968990  54.9732050  19.8690480
  41.3548350  55.0860930  19.2954510  40.1346160  55.8101250  19.8233910
  47.1382800  57.0871320  22.8592790  46.3257310  56.7128210  22.5188670
  47.6424440  56.3316400  23.1613980  51.6407780  53.7513770  24.0975860
  52.2437150  54.3233980  24.5724380  50.9000770  54.3153210  23.8749760
  54.7842380  54.1535330  19.3716140  54.9793010  55.0518780  19.6383570
  53.9972250  53.9222410  19.8649090  42.9694140  55.4996100  18.4092450
  43.4986900  54.7125900  18.2800400  43.6022460  56.1787290  18.6427980
  45.1631980  55.2371240  21.4637840  44.5334720  54.5358550  21.6307970
  44.6237120  55.9975370  21.2471000  45.2887540  54.5155220  33.8990330
  45.0071810  55.0188820  33.1351150  45.6707240  53.7176970  33.5332460
  51.8903000  53.9308800  34.4770800  51.7768450  54.2503410  35.3722320
  52.7072740  54.3321310  34.1808080  50.7961150  61.9501270   4.8405540
  50.7155200  61.0355880   4.5697250  50.3825570  62.4468340   4.1345250
  48.9279190  63.7280290   6.7214810  48.1521290  63.2480730   7.0113380
  49.5792120  63.0485940   6.5470970  42.9445020  64.0400100   7.5990570
  42.1129900  63.7848810   7.9987080  43.5526000  64.1110870   8.3348490
  39.3169980  61.6007640   7.2672660  39.8886090  60.8329840   7.2676300
  39.3171520  61.8996400   6.3579270  48.3688180  66.4037480   6.7284970
  48.2996460  65.4627420   6.5674100  49.1308040  66.4938890   7.3007540
  40.5594850  57.0092000   9.0541590  40.3797690  56.1117750   9.3344350
  40.1574930  57.5563870   9.7288540  49.3993350  59.2107860   6.9553900
  49.7758170  58.3379740   6.8427570  49.3012860  59.5466560   6.0644340
  43.5298360  57.5833490   2.4171340  43.6365110  58.4837220   2.7240100
  42.6190720  57.5351460   2.1265990  53.1817470  56.7058300   3.8882240
  54.0027090  56.2154870   3.9307720  53.2151550  57.2955960   4.6414080
  41.1781520  59.5052500   7.6623930  41.8591630  59.7690870   8.2811330
  40.8629570  58.6653370   7.9961940  45.3706090  60.5519860   6.7496520
  45.8784310  61.0500830   7.3901540  45.9019330  59.7755060   6.5735880
  57.4717020  58.7225050  10.4525870  56.7669190  59.1106760   9.9340980
  57.7374940  59.4175340  11.0546800  43.6542190  55.1918420  11.0159940
  43.6560630  55.7090810  10.2105840  42.8246500  54.7148600  10.9929870
  50.0413280  65.3037730   2.5149840  49.4230550  65.7687180   1.9512560
  50.5536530  65.9965210   2.9319350  44.9045040  64.8313600   9.1933440
  44.5714420  65.4582520   9.8354510  45.0811720  65.3575480   8.4135110
  53.4178950  58.6458680   6.6609780  52.7134520  58.9343570   7.2412890
  53.7791110  59.4558790   6.3009340  43.3357520  56.9028380   9.0230390
  43.6774330  57.7470430   8.7284260  42.3973330  57.0512120   9.1395730
  44.1164140  66.7994400  11.0082620  44.7338140  67.4745480  10.7267070
  43.2557260  67.2082380  10.9170120  56.4865870  58.0913470   7.0518990
  55.5390780  58.1252450   7.1834420  56.8115860  58.9052420   7.4368350
  47.0185410  54.3910650   5.3474980  47.3260390  53.8357540   4.6310480
  46.0886110  54.5255110   5.1647970  53.8645890  66.8294160   2.7272610
  53.7542220  65.8868490   2.8522030  53.8614140  67.1909800   3.6135370
  51.9685910  65.0107780   8.9665050  52.3854700  64.7967890   8.1318510
  52.6925730  65.2680570   9.5373670  49.4066170  62.4559480   2.0835100
  48.4795450  62.3896860   2.3123570  49.5590990  63.3939610   1.9690340
  55.9148010  63.4095000   9.0581290  55.0866640  63.4788090   8.5831420
  56.5098490  63.9949310   8.5897120  53.4363460  64.0179780   2.5870350
  52.8175880  63.6799330   1.9396650  53.4187910  63.3739540   3.2949540
  52.8790020  60.1964320  10.0036160  52.4661200  61.0218030  10.2576150
  52.1465970  59.6109360   9.8112520  45.0122810  62.9824220   4.8654830
  44.6079810  62.2701470   4.3700730  45.0985930  62.6377460   5.7542870
  45.4804510  66.6691780   7.0294040  45.1832800  66.0637250   6.3501820
  46.4304330  66.7069090   6.9183400  43.7251430  59.7567430   8.6453870
  44.2766020  59.8662770   7.8707120  44.2394940  60.1305030   9.3609100
  44.5722940  66.4073470  13.6801840  43.6751470  66.6313440  13.9275240
  44.5975810  66.5308410  12.7313240  43.3994160  63.2786790  12.2559210
  43.2601930  64.1509590  12.6246610  42.5175520  62.9359600  12.1107150
  41.7127440  61.8769200   2.3661480  41.5925040  62.6031290   1.7542750
  41.4028330  61.1072110   1.8889390  39.3512810  65.0484340   8.1730120
  39.4293230  65.1833110   7.2285840  39.9654490  64.3400230   8.3658240
  40.5960440  66.7484530   4.5836300  40.1888520  66.8899120   3.7289900
  41.4873450  66.4644690   4.3807510  56.5522580  67.1948440  12.9208540
  56.6785640  66.9560320  12.0025720  56.5943960  66.3632980  13.3930620
  56.4046590  59.2480900  13.8858280  55.7890860  59.7560570  13.3573740
  56.0843010  58.3479230  13.8284220  39.4072330  66.0898510  10.7124580
  39.5703370  65.6203870   9.8943950  39.8724780  65.5822070  11.3773420
  44.1791100  55.2204270   5.7485150  43.7359250  56.0013810   5.4169670
  44.7376090  55.5434160   6.4556090  48.4660910  58.0872790  11.3520470
  48.0040280  58.2955810  12.1640410  48.0639020  57.2732140  11.0491140
  53.4665420  59.3081740  12.4817130  52.6159010  59.0087490  12.8026200
  53.3067210  59.5523750  11.5700950  50.5615130  60.8083490  14.5815920
  50.8868540  59.9747240  14.2418150  51.3495460  61.3312010  14.7294250
  46.2167000  55.7651600   7.6074750  46.5139330  56.6714430   7.5266770
  46.7652560  55.2770380   6.9934320  43.9705320  60.3437840   3.4766400
  43.7446240  60.1275010   4.3813020  43.1897850  60.7766300   3.1312370
  51.2003080  60.3501210   2.0757050  50.6011970  61.0737010   1.8920670
  51.7482690  60.2877990   1.2933500  46.4104530  61.2423420  14.1426670
  46.3148130  60.3018150  13.9927070  47.2536510  61.4638490  13.7474740
  49.8067950  58.9864750   4.1060330  50.1997520  59.3036950   3.2929020
  50.1684800  58.1076630   4.2204850  41.5415070  57.6537090  12.2960450
  41.1478460  58.5012300  12.5033230  40.8533470  57.0163460  12.4869090
  48.1160120  57.7372060  15.3657190  47.4258440  57.5444260  16.0003280
  48.8592420  58.0206700  15.8981490  38.8432120  55.5765550   6.3290530
  38.5545170  56.1468410   7.0415510  39.5877880  55.0970000   6.6921760
  50.3923090  61.5770500   8.2011110  49.6604210  62.0857310   8.5501210
  49.9947430  60.7600480   7.8999890  46.8300480  58.2524700   6.6063600
  46.8336540  57.8114650   5.7568140  47.7251600  58.5742030   6.7135420
  42.6802860  58.1351190   5.5657810  42.3402910  58.6126420   6.3224860
  41.9180180  57.6816310   5.2058910  50.8549000  57.0304180   7.6134050
  50.8721740  57.4812830   8.4575900  50.6064580  56.1309820   7.8267490
  54.2819750  54.4436360  13.4520430  54.6065520  53.7126020  13.9778410
  54.3176260  54.1250000  12.5501420  40.9811310  65.4649940  12.8720390
  40.5966100  64.8243610  13.4703350  41.2923500  66.1686060  13.4415120
  47.1308450  62.3126480   8.3529010  47.4978580  61.8385050   9.0990350
  46.9413510  63.1868050   8.6937350  39.9948940  57.0570170   4.4822480
  39.7095860  56.6925840   5.3201100  39.9327800  56.3250630   3.8685620
  44.9207820  61.3535120  10.6713220  44.6164890  62.2327100  10.8963580
  45.8754280  61.4134910  10.7070660  54.2077590  64.5561470   7.0606460
  54.9276710  65.0516760   6.6702570  54.0059410  63.8779360   6.4160330
  49.5896390  64.6270530  12.9475460  49.5233700  63.7066200  12.6933050
  48.9601530  64.7245970  13.6620100  43.4927010  65.2276490   4.9058880
  44.0105680  64.4244750   4.8515770  43.0411030  65.1655630   5.7475710
  40.9771550  62.1937860  11.8184580  40.6186490  62.8591710  12.4057920
  40.6826110  61.3621410  12.1897200  44.1784670  62.6522100  14.7024130
  43.8784810  62.7979280  13.8051950  44.9495910  62.0927390  14.6097520
  49.5213120  67.4491100  12.6979260  49.5357660  66.5172060  12.4798170
  48.8138220  67.5350860  13.3369030  55.7324330  64.0898440  12.0447840
  55.0072520  64.6827220  11.8477230  56.2599790  64.0821980  11.2461210
  51.2623920  65.8158610   5.5431690  51.6147740  65.2186740   4.8833060
  50.3786250  65.4902840   5.7139940  47.3487200  66.5756300   2.9502100
  48.0358330  67.1225510   3.3309690  46.5619620  67.1197030   2.9851710
  46.6514410  63.5802330   2.5627460  47.1077190  64.3907580   2.7887650
  46.3002620  63.2625470   3.3945950  42.5526190  53.9239980   3.0349980
  42.4240820  53.9157880   3.9834900  41.7288210  54.2623070   2.6840990
  39.5520120  55.6831100  12.4956680  38.8378640  55.8828020  13.1009290
  39.9715160  54.9070670  12.8671480  51.0458900  58.1753410  10.2458130
  51.4139720  57.3548620  10.5737700  50.1857100  58.2355300  10.6613780
  46.3804960  59.4096300   2.4703570  45.6721110  59.8782640   2.9117180
  46.6649440  58.7518310   3.1048760  48.0060890  60.8293000  10.4696100
  48.5046140  61.3038820  11.1347950  48.1483840  59.9056520  10.6766130
  50.4120390  56.1346960   3.9099360  50.2888170  56.1533090   2.9608870
  51.3604950  56.1825900   4.0297760  55.2127750  57.0460960  11.3124490
  54.7101350  57.7866360  11.6518300  56.0284410  57.4344960  10.9961280
  53.5049760  62.2894140   4.7585850  52.5639900  62.3044370   4.9333540
  53.8193830  61.5030100   5.2046150  50.8215780  66.8460140  15.2418230
  50.2153940  66.8691740  14.5013980  50.5169890  66.1143180  15.7785480
  39.7048960  63.2253730  14.2378870  40.2087980  62.6461010  14.8095100
  38.9656380  63.5093960  14.7755240  46.7586900  64.6324720  13.7714390
  45.9932570  65.2009720  13.6869060  46.9402860  64.3400930  12.8782620
  53.9010250  66.3630050  14.3289410  54.6419720  66.7005810  13.8256870
  53.1382930  66.5322110  13.7759180  41.7372040  61.3683320  15.1328940
  41.7777380  61.0697190  16.0414170  42.5917540  61.7690930  14.9736460
  43.6777850  59.9475420  13.1003430  43.1474310  59.4566370  12.4726770
  44.3465920  60.3759620  12.5661360  52.5755910  64.4144880  12.8644620
  52.9896930  64.5689960  13.7135040  51.6406910  64.5400100  13.0270400
  53.0478080  61.7541040  14.8683770  53.6298850  60.9993360  14.7804250
  53.2239850  62.2848480  14.0915250  44.1650150  56.9137790  13.1800720
  44.0707020  56.2958540  12.4551590  43.5847540  57.6404080  12.9530630
  46.9311590  55.4711030  10.2128110  46.4828890  55.4935290   9.3673660
  46.2976790  55.0730050  10.8098410  47.3371140  64.3665360  10.8340550
  47.7559250  65.2098090  10.6616790  46.4179770  64.5037400  10.6047330
  49.6735040  62.0981540  12.2178390  49.7931250  61.5022680  12.9573230
  50.5329040  62.1351230  11.7979690  52.0122940  62.6518730  10.7940900
  51.4858160  63.1761350  10.1906040  52.3554280  63.2846120  11.4250630
  46.4403810  58.6402890  13.4754210  47.0303500  58.3318740  14.1632030
  45.6224050  58.1682640  13.6314110  51.2597240  58.2568700  13.7087230
  50.5712760  57.5950240  13.6437220  51.9803260  57.8106970  14.1535690
  44.0429980  67.5653180   3.1720520  43.7425520  67.4418150   4.0724430
  43.9367470  66.7061770   2.7636250  39.7682700  62.6134990   4.6089060
  39.1131540  62.3446630   3.9648760  40.6060650  62.5039470   4.1591040
  57.2738330  64.9447160   5.2223330  57.6447160  64.1614480   4.8159300
  57.9140260  65.6336260   5.0440630  54.2572090  66.3283740  10.6353650
  53.4431930  66.7580900  10.8979440  54.6646290  66.9402150  10.0222700
  56.2162870  62.3200420   2.5283350  55.8406470  61.5528350   2.0964640
  55.4865990  62.7023120   3.0158280  40.8058630  62.9987560   9.1492400
  41.1731670  62.9114960  10.0288420  40.2369450  62.2354110   9.0499260
  55.6062490  61.4671940  12.1622870  55.3748580  61.2384690  11.2620820
  55.8667040  62.3871490  12.1167760  40.3574630  59.9096650  13.0550820
  39.4630680  59.8763410  13.3944530  40.8972180  60.1083440  13.8202070
  54.0450560  56.6928370  14.9402570  54.9220740  56.7011770  15.3236570
  54.0571400  55.9559210  14.3294920  55.4913830  60.5457910   5.8290590
  56.0151310  60.0520560   5.1980760  56.0773250  60.6808270   6.5738160
  55.6703550  60.6297780   9.3510140  54.7206260  60.5961320   9.4655130
  55.8516560  61.5397890   9.1159910  54.9813800  59.8031260   1.7683000
  55.4772920  59.5702130   2.5531880  54.7829870  58.9643100   1.3520640
  40.8614340  54.1844980   7.4034040  41.5090530  53.6342360   6.9629200
  41.2816180  54.4388130   8.2249850  56.4100960  58.4392210   4.3020680
  56.3000240  58.2848250   5.2402950  57.1708550  57.9113150   4.0596090
  54.7566680  54.3786340  10.7603680  55.3938900  54.9920480  11.1262870
  54.9041570  54.4147000   9.8152910  40.6146340  54.3400650  10.1459360
  40.2661160  54.7964470  10.9117540  40.2834040  53.4457780  10.2281790
  48.1271160  55.5312530  13.6678780  48.0660050  56.1234360  14.4174190
  49.0671540  55.4238490  13.5229040  50.7645720  55.1882590  13.3071070
  51.3786130  55.5061880  12.6452150  51.3095280  54.7031180  13.9266930
  41.2866980  53.8676850  13.4210130  41.8349970  53.6864900  12.6576240
  41.3522290  53.0770960  13.9566440  51.5053760  53.7514730   9.6340360
  50.6313600  54.0849840   9.4313290  51.3964510  53.2787910  10.4592230
  52.4125740  55.9585600  11.0182080  52.0839100  55.1437360  10.6383810
  53.3608040  55.9155410  10.8947770  49.2528580  54.6684570   8.5733270
  48.4700370  55.1430070   8.8530030  48.9591510  53.7639400   8.4646450
  53.8049650  55.3707670   6.6182360  54.2457740  55.3152770   5.7703960
  53.5357240  56.2865680   6.6892540  55.6688220  55.0022910   4.6291180
  55.6076620  54.0584130   4.4822200  56.4480250  55.1103000   5.1744640
  47.1382800  57.0871320   4.0849300  46.3257310  56.7128210   3.7445180
  47.6424440  56.3316400   4.3870490  51.6407780  53.7513770   5.3232370
  52.2437150  54.3233980   5.7980890  50.9000770  54.3153210   5.1006270
  45.1631980  55.2371240   2.6894350  44.5334720  54.5358550   2.8564480
  44.6237120  55.9975370   2.4727510  45.2887540  54.5155220  15.1246840
  45.0071810  55.0188820  14.3607660  45.6707240  53.7176970  14.7588970
  51.8903000  53.9308800  15.7027310  51.7768450  54.2503410  16.5978830
  52.7072740  54.3321310  15.4064590  50.7961150  43.1757780  61.1636010
  50.7155200  42.2612390  60.8927720  50.3825570  43.6724850  60.4575720
  48.9279190  44.9536800  63.0445280  48.1521290  44.4737240  63.3343850
  49.5792120  44.2742450  62.8701440  42.9445020  45.2656610  63.9221040
  42.1129900  45.0105320  64.3217550  43.5526000  45.3367380  64.6578960
  52.9486620  49.3596990  61.8244410  52.4868150  48.5884230  62.1531580
  53.7612170  49.3863060  62.3296860  42.9246280  49.2996700  64.1179060
  43.2274320  48.4094440  63.9389280  43.6689870  49.8566920  63.8901310
  41.3536970  40.2258500  57.7063430  40.4653670  40.5674470  57.6043310
  41.6378160  40.0258820  56.8144260  39.3169980  42.8264150  63.5903130
  39.8886090  42.0586350  63.5906770  39.3171520  43.1252910  62.6809740
  49.1749930  51.6455000  61.4448400  48.5561370  52.1012500  60.8742840
  50.0301710  51.8006460  61.0438100  48.3688180  47.6293990  63.0515440
  48.2996460  46.6883930  62.8904570  49.1308040  47.7195400  63.6238010
  40.5594850  38.2348510  65.3772060  40.3797690  37.3374260  65.6574820
  40.1574930  38.7820380  66.0519010  49.3993350  40.4364370  63.2784370
  49.7758170  39.5636250  63.1658040  49.3012860  40.7723070  62.3874810
  43.5298360  38.8090000  58.7401810  43.6365110  39.7093730  59.0470570
  42.6190720  38.7607970  58.4496460  53.1817470  37.9314810  60.2112710
  54.0027090  37.4411380  60.2538190  53.2151550  38.5212470  60.9644550
  41.1781520  40.7309010  63.9854400  41.8591630  40.9947380  64.6041800
  40.8629570  39.8909880  64.3192410  45.3706090  41.7776370  63.0726990
  45.8784310  42.2757340  63.7132010  45.9019330  41.0011570  62.8966350
  57.4717020  39.9481560  66.7756340  56.7669190  40.3363270  66.2571450
  57.7374940  40.6431850  67.3777270  43.6542190  36.4174930  67.3390410
  43.6560630  36.9347320  66.5336310  42.8246500  35.9405110  67.3160340
  50.0413280  46.5294240  58.8380310  49.4230550  46.9943690  58.2743030
  50.5536530  47.2221720  59.2549820  44.9045040  46.0570110  65.5163910
  44.5714420  46.6839030  66.1584980  45.0811720  46.5831990  64.7365580
  53.4178950  39.8715190  62.9840250  52.7134520  40.1600080  63.5643360
  53.7791110  40.6815300  62.6239810  43.3357520  38.1284890  65.3460860
  43.6774330  38.9726940  65.0514730  42.3973330  38.2768630  65.4626200
  44.1164140  48.0250910  67.3313090  44.7338140  48.7001990  67.0497540
  43.2557260  48.4338890  67.2400590  39.4096480  47.2150770  56.2119940
  39.0324460  47.7037870  55.4804840  39.6669550  47.8876050  56.8426470
  55.0341730  49.4890320  65.2467730  54.3505250  50.1589430  65.2384400
  55.5736020  49.6870970  64.4812590  56.4865870  39.3169980  63.3749460
  55.5390780  39.3508960  63.5064890  56.8115860  40.1308930  63.7598820
  47.0185410  35.6167160  61.6705450  47.3260390  35.0614050  60.9540950
  46.0886110  35.7511620  61.4878440  52.5700470  51.3334450  63.9612910
  52.5827630  50.9296740  63.0935170  52.0175690  52.1081740  63.8574340
  53.8645890  48.0550670  59.0503080  53.7542220  47.1125000  59.1752500
  53.8614140  48.4166310  59.9365840  51.9685910  46.2364290  65.2895520
  52.3854700  46.0224400  64.4548980  52.6925730  46.4937080  65.8604140
  49.4066170  43.6815990  58.4065570  48.4795450  43.6153370  58.6354040
  49.5590990  44.6196120  58.2920810  49.3935250  39.9532990  55.4032730
  48.4538920  40.1146950  55.4885190  49.7118510  40.6718670  54.8568720
  55.9148010  44.6351510  65.3811760  55.0866640  44.7044600  64.9061890
  56.5098490  45.2205820  64.9127590  53.4363460  45.2436290  58.9100820
  52.8175880  44.9055840  58.2627120  53.4187910  44.5996050  59.6180010
  52.8790020  41.4220830  66.3266630  52.4661200  42.2474540  66.5806620
  52.1465970  40.8365870  66.1342990  45.0122810  44.2080730  61.1885300
  44.6079810  43.4957980  60.6931200  45.0985930  43.8633970  62.0773340
  45.4804510  47.8948290  63.3524510  45.1832800  47.2893760  62.6732290
  46.4304330  47.9325600  63.2413870  43.7251430  40.9823940  64.9684340
  44.2766020  41.0919280  64.1937590  44.2394940  41.3561540  65.6839570
  53.5690120  51.4680160  67.0147610  53.0920680  52.2752350  66.8220220
  52.8851910  50.8158490  67.1673820  51.6128160  44.4823100  55.9173570
  52.0521440  43.6445530  55.7711390  52.3256580  45.1152500  56.0037710
  49.7223540  49.4219170  59.8854810  50.1619450  50.1643500  59.4710200
  49.6610430  49.6645740  60.8093770  55.1945300  35.7365910  54.2314610
  54.8817960  35.8292740  55.1313680  55.9557770  36.3146940  54.1812040
  41.7127440  43.1025710  58.6891950  41.5925040  43.8287800  58.0773220
  41.4028330  42.3328620  58.2119860  39.3512810  46.2740850  64.4960590
  39.4293230  46.4089620  63.5516310  39.9654490  45.5656740  64.6888710
  40.5960440  47.9741040  60.9066770  40.1888520  48.1155630  60.0520370
  41.4873450  47.6901200  60.7037980  52.3893720  52.4088290  57.2417820
  52.2294860  52.1191230  58.1399650  52.2240430  51.6328420  56.7063050
  44.8682100  52.1886820  59.0189440  44.6924580  51.2722360  58.8057240
  44.0137840  52.5474110  59.2587240  52.0919850  49.9175850  55.8015820
  51.3985010  49.9153140  55.1418100  52.8342710  49.4935170  55.3709990
  51.6569780  51.5438560  59.8764310  52.1126730  50.7627940  60.1902930
  51.9962300  52.2545380  60.4205490  39.4072330  47.3155020  67.0355050
  39.5703370  46.8460380  66.2174420  39.8724780  46.8078580  67.7003890
  44.1791100  36.4460780  62.0715620  43.7359250  37.2270320  61.7400140
  44.7376090  36.7690670  62.7786560  47.2949920  36.0671480  56.9521450
  46.6704100  36.0631350  57.6774760  47.2080040  35.2002440  56.5557420
  46.2167000  36.9908110  63.9305220  46.5139330  37.8970940  63.8497240
  46.7652560  36.5026890  63.3164790  43.9705320  41.5694350  59.7996870
  43.7446240  41.3531520  60.7043490  43.1897850  42.0022810  59.4542840
  51.2003080  41.5757720  58.3987520  50.6011970  42.2993520  58.2151140
  51.7482690  41.5134500  57.6163970  49.8067950  40.2121260  60.4290800
  50.1997520  40.5293460  59.6159490  50.1684800  39.3333140  60.5435320
  38.8432120  36.8022060  62.6521000  38.5545170  37.3724920  63.3645980
  39.5877880  36.3226510  63.0152230  39.0302350  40.7442180  53.8623720
  38.9477020  41.6872940  54.0038710  38.6785410  40.6017090  52.9836070
  50.3923090  42.8027010  64.5241580  49.6604210  43.3113820  64.8731680
  49.9947430  41.9856990  64.2230360  46.8300480  39.4781210  62.9294070
  46.8336540  39.0371160  62.0798610  47.7251600  39.7998540  63.0365890
  42.6802860  39.3607700  61.8888280  42.3402910  39.8382930  62.6455330
  41.9180180  38.9072820  61.5289380  46.8920630  40.4793290  55.9200830
  47.0133450  40.4379770  56.8686650  46.5069140  41.3417440  55.7647560
  50.8549000  38.2560690  63.9364520  50.8721740  38.7069340  64.7806370
  50.6064580  37.3566330  64.1497960  45.9042130  42.7894430  55.3184130
  45.3359030  42.3412680  54.6920040  46.6131130  43.1487210  54.7849280
  47.1308450  43.5382990  64.6759480  47.4978580  43.0641560  65.4220820
  46.9413510  44.4124560  65.0167820  39.9948940  38.2826680  60.8052950
  39.7095860  37.9182350  61.6431570  39.9327800  37.5507140  60.1916090
  44.9207820  42.5791630  66.9943690  44.6164890  43.4583610  67.2194050
  45.8754280  42.6391420  67.0301130  43.4489610  46.7852620  57.5910540
  42.6751870  46.2450240  57.4309260  44.1784240  46.2659230  57.2528300
  54.2077590  45.7817980  63.3836930  54.9276710  46.2773270  62.9933040
  54.0059410  45.1035870  62.7390800  49.6687530  37.1755940  57.5266320
  48.8552140  36.6769110  57.4511630  49.4749480  38.0154190  57.1102670
  52.3835920  41.5475590  55.8228480  53.2715540  41.8592820  55.6479820
  52.3541010  40.6747840  55.4309060  43.4927010  46.4533000  61.2289350
  44.0105680  45.6501260  61.1746240  43.0411030  46.3912140  62.0706180
  48.3796510  47.7199280  56.5016650  48.7212210  48.4641510  56.0059970
  47.5509220  48.0330400  56.8641480  54.6550190  42.8587430  55.2908340
  54.5713910  43.2901650  54.4404780  55.3744380  43.3185780  55.7235160
  55.6837440  49.7129690  58.0190470  55.0413600  49.0585310  58.2934190
  55.2968100  50.1184780  57.2431140  51.2623920  47.0415120  61.8662160
  51.6147740  46.4443250  61.2063530  50.3786250  46.7159350  62.0370410
  47.3487200  47.8012810  59.2732570  48.0358330  48.3482020  59.6540160
  46.5619620  48.3453540  59.3082180  39.4879600  43.4185630  54.7649650
  40.3574450  43.7010430  55.0485570  38.9969920  44.2321500  54.6498460
  46.6514410  44.8058840  58.8857930  47.1077190  45.6164090  59.1118120
  46.3002620  44.4881980  59.7176420  48.9547020  50.3165180  66.1150230
  49.5989240  50.5224560  66.7923650  49.3176460  49.5553580  65.6621080
  42.5526190  35.1496490  59.3580450  42.4240820  35.1414390  60.3065370
  41.7288210  35.4879580  59.0071460  50.2279100  48.3197530  64.8327680
  50.8701330  47.6190690  64.9459850  50.7528450  49.0995970  64.6524570
  54.0734820  48.6046150  54.5566820  53.8472400  47.8876590  55.1491460
  53.6831020  48.3558590  53.7188570  39.8550850  52.6313010  55.3311280
  40.2148490  53.2302350  54.6768550  39.7143190  53.1772900  56.1046310
  53.6551070  46.5218090  56.2180980  53.3672770  46.9830780  57.0058860
  54.4503240  46.0615860  56.4865200  45.8719470  50.0144210  56.1484950
  45.8629570  50.7473900  55.5329460  44.9517830  49.7675790  56.2411910
  41.4726110  45.2359100  56.8931710  40.8654060  45.9758000  56.9027010
  41.9475460  45.3258460  56.0669910  51.0458900  39.4009920  66.5688600
  51.4139720  38.5805130  66.8968170  50.1857100  39.4611810  66.9844250
  54.4120930  38.3566860  57.3776160  53.7834090  38.4612530  56.6634390
  53.9172850  38.5763640  58.1670040  48.8579070  50.0772450  54.8110140
  48.9591050  49.8736440  53.8812120  47.9580810  49.8230730  55.0157920
  46.3804960  40.6352810  58.7934040  45.6721110  41.1039150  59.2347650
  46.6649440  39.9774820  59.4279230  48.0060890  42.0549510  66.7926570
  48.5046140  42.5295330  67.4578420  48.1483840  41.1313030  66.9996600
  50.4120390  37.3603470  60.2329830  50.2888170  37.3789600  59.2839340
  51.3604950  37.4082410  60.3528230  47.4997180  52.5958770  59.5057810
  47.7538680  52.5580160  58.5837180  46.5509660  52.4692100  59.4986060
  44.5839980  38.9437890  56.1684750  45.4330510  39.3808040  56.1024940
  44.2171250  39.2558150  56.9956810  55.2127750  38.2717470  67.6354960
  54.7101350  39.0122870  67.9748770  56.0284410  38.6601470  67.3191750
  53.5049760  43.5150650  61.0816320  52.5639900  43.5300880  61.2564010
  53.8193830  42.7286610  61.5276620  43.4831400  45.1970250  54.6420280
  44.2494670  45.0851610  55.2045710  43.5606090  44.5008220  53.9897050
  42.1778160  42.6295320  55.3253170  42.2581750  41.6822830  55.4370570
  43.0697910  42.9602200  55.4313830  55.5075340  50.6859500  62.7570580
  55.6322760  51.5090670  63.2294390  56.3740900  50.4750230  62.4094730
  42.9792870  52.7790710  62.4287710  43.7155350  52.2306170  62.6996280
  43.3633790  53.6446720  62.2893700  39.8638350  48.8464280  58.3029220
  38.9378130  49.0885420  58.2934630  40.3294780  49.6738540  58.1813970
  46.0895180  51.9521020  54.2513280  46.8823790  52.2409850  53.7995070
  45.5699530  51.5213190  53.5725760  55.1425350  51.1791150  55.6750020
  54.8566860  50.7656290  54.8604200  54.9444900  52.1078860  55.5550540
  46.6072580  47.1724430  54.1155630  46.5023220  46.5576780  54.8417010
  46.4396800  46.6490320  53.3318640  49.8475310  46.2344460  54.7197620
  49.2985410  46.6813760  55.3640360  50.4694570  45.7293710  55.2435290
  45.5150430  45.1935380  56.6162920  45.9366850  45.0275250  57.4594310
  45.6401270  44.3835610  56.1218060  48.0278070  44.2172990  53.8640020
  48.5483730  43.5022010  53.4981170  48.6746470  44.8558860  54.1640530
  46.9311590  36.6967540  66.5358580  46.4828890  36.7191800  65.6904130
  46.2976790  36.2986560  67.1328880  47.3371140  45.5921870  67.1571020
  47.7559250  46.4354600  66.9847260  46.4179770  45.7293910  66.9277800
  52.0122940  43.8775240  67.1171370  51.4858160  44.4017860  66.5136510
  52.3554280  44.5102630  67.7481100  44.4109330  41.2668610  53.5621080
  44.2098390  40.4035970  53.9234420  44.2401380  41.1801970  52.6242680
  51.8897640  36.0776840  56.0907960  52.1699930  35.2344740  56.4467380
  51.1163370  36.3099950  56.6046710  43.2092130  38.3669230  53.5498960
  43.5118030  38.3736660  52.6418110  43.9486720  38.0167090  54.0466620
  46.4277060  37.3103850  54.5355160  46.0799060  36.6327840  53.9557610
  46.6289830  36.8493360  55.3498550  48.5926100  52.2984600  56.1541760
  49.4876890  52.6369570  56.1760520  48.6243730  51.5764010  55.5266040
  42.2322260  47.6711650  54.3828760  42.6697130  48.2141320  55.0386340
  42.7169990  46.8458600  54.3925100  39.4468060  50.4600680  61.8349020
  39.7771070  49.5921740  61.6027660  39.8759060  50.6659200  62.6653980
  44.0429980  48.7909690  59.4950990  43.7425520  48.6674660  60.3954900
  43.9367470  47.9318280  59.0866720  39.9358270  51.3271270  64.5730650
  39.4989260  51.5072070  65.4054800  40.5035950  52.0845890  64.4312370
  56.8121900  48.5706090  54.1977670  55.9814860  48.6382740  54.6684900
  56.9893730  49.4610210  53.8944530  56.2678360  45.3153570  56.7011870
  57.0297270  45.8850220  56.8071560  56.2832730  44.7480770  57.4720180
  39.7682700  43.8391500  60.9319530  39.1131540  43.5703140  60.2879230
  40.6060650  43.7295980  60.4821510  57.2738330  46.1703670  61.5453800
  57.6447160  45.3870990  61.1389770  57.9140260  46.8592770  61.3671100
  54.2572090  47.5540250  66.9584120  53.4431930  47.9837410  67.2209910
  54.6646290  48.1658660  66.3453170  56.3197530  45.6087940  53.8584390
  56.5946370  46.5166820  53.7303610  56.1308270  45.5450470  54.7946380
  52.7173140  38.6332790  55.1538020  53.1358020  38.4463770  54.3134680
  52.4109200  37.7811840  55.4640950  56.2162870  43.5456930  58.8513820
  55.8406470  42.7784860  58.4195110  55.4865990  43.9279630  59.3388750
  40.8058630  44.2244070  65.4722870  41.1731670  44.1371470  66.3518890
  40.2369450  43.4610620  65.3729730  38.9820780  41.0490430  56.8744860
  38.0784860  41.3120630  56.6996520  39.4661400  41.3201600  56.0944820
  55.4913830  41.7714420  62.1521060  56.0151310  41.2777070  61.5211230
  56.0773250  41.9064780  62.8968630  55.6703550  41.8554290  65.6740610
  54.7206260  41.8217830  65.7885600  55.8516560  42.7654400  65.4390380
  41.5247990  40.1055970  54.7839240  42.2339690  39.6839190  54.2986520
  40.8087930  40.1731200  54.1522590  41.1722150  36.1595300  53.8241890
  41.8950280  36.7004240  54.1423110  41.4446670  35.8858720  52.9483430
  54.9813800  41.0287770  58.0913470  55.4772920  40.7958640  58.8762350
  54.7829870  40.1899610  57.6751110  40.8614340  35.4101490  63.7264510
  41.5090530  34.8598870  63.2859670  41.2816180  35.6644640  64.5480320
  56.4100960  39.6648720  60.6251150  56.3000240  39.5104760  61.5633420
  57.1708550  39.1369660  60.3826560  54.7566680  35.6042850  67.0834150
  55.3938900  36.2176990  67.4493340  54.9041570  35.6403510  66.1383380
  57.2991230  37.4956640  53.8657290  58.2240540  37.3637820  53.6575580
  57.2767020  37.5749460  54.8193740  57.3729720  38.2667300  56.4914000
  56.5781220  38.2012420  57.0206910  57.5773000  39.2017940  56.4799350
  54.3148140  52.3058850  60.4852390  54.9107210  51.9843420  59.8086810
  54.5726290  51.8330670  61.2765660  40.6146340  35.5657160  66.4689830
  40.2661160  36.0220980  67.2348010  40.2834040  34.6714290  66.5512260
  45.9216740  50.2936350  66.2352740  45.6808100  50.5610910  65.3483260
  46.8619380  50.4642080  66.2903600  57.1820900  52.3130730  67.0363380
  56.6879180  52.7099600  66.3190510  56.5734190  51.6879940  67.4300660
  51.5053760  34.9771240  65.9570830  50.6313600  35.3106350  65.7543760
  51.3964510  34.5044420  66.7822700  52.4125740  37.1842110  67.3412550
  52.0839100  36.3693870  66.9614280  53.3608040  37.1411920  67.2178240
  54.8660350  52.9554150  64.3150120  54.4063320  53.7069960  63.9408140
  54.2372810  52.2360620  64.2564920  41.6910970  49.0497390  66.7048840
  40.9645030  48.4302680  66.6374790  41.7520120  49.4438000  65.8346920
  45.2956070  51.2642390  63.4898250  45.8121090  50.6529750  62.9646510
  45.9453450  51.7671170  63.9809260  48.0351570  52.1550880  64.3167230
  48.3229380  51.9005180  63.4400240  48.5474790  51.6028240  64.9072800
  49.2528580  35.8941080  64.8963740  48.4700370  36.3686580  65.1760500
  48.9591510  34.9895910  64.7876920  53.8049650  36.5964180  62.9412830
  54.2457740  36.5409280  62.0934430  53.5357240  37.5122190  63.0123010
  55.6688220  36.2279420  60.9521650  55.6076620  35.2840640  60.8052670
  56.4480250  36.3359510  61.4975110  39.9740970  52.3671780  59.9145600
  39.8063010  51.7342460  60.6127490  39.1075480  52.5731180  59.5639790
  40.5968990  36.1988560  57.4177460  41.3548350  36.3117440  56.8441490
  40.1346160  37.0357760  57.3720890  47.1382800  38.3127830  60.4079770
  46.3257310  37.9384720  60.0675650  47.6424440  37.5572910  60.7100960
  51.6407780  34.9770280  61.6462840  52.2437150  35.5490490  62.1211360
  50.9000770  35.5409720  61.4236740  54.7842380  35.3791840  56.9203120
  54.9793010  36.2775290  57.1870550  53.9972250  35.1478920  57.4136070
  41.5803670  51.0605010  57.3595740  41.0551290  51.4413040  56.6557700
  41.5048250  51.6855780  58.0805450  42.9694140  36.7252610  55.9579430
  43.4986900  35.9382410  55.8287380  43.6022460  37.4043800  56.1914960
  45.1631980  36.4627750  59.0124820  44.5334720  35.7615060  59.1794950
  44.6237120  37.2231880  58.7957980  56.3368990  52.6192550  58.6809680
  56.5121180  51.9330290  58.0370600  55.6390560  53.1439600  58.2886350
  44.1796640  53.0087390  56.2344990  44.9115460  52.7246670  55.6868880
  44.4390310  52.7700670  57.1244370  43.3411430  49.1252120  56.2391320
  42.7120310  49.5937220  56.7877150  43.4559260  48.2801340  56.6737510
  48.9279190  44.9536800  44.2701790  48.1521290  44.4737240  44.5600360
  49.5792120  44.2742450  44.0957950  52.9486620  49.3596990  43.0500920
  52.4868150  48.5884230  43.3788090  53.7612170  49.3863060  43.5553370
  42.9246280  49.2996700  45.3435570  43.2274320  48.4094440  45.1645790
  43.6689870  49.8566920  45.1157820  49.1749930  51.6455000  42.6704910
  48.5561370  52.1012500  42.0999350  50.0301710  51.8006460  42.2694610
  48.3688180  47.6293990  44.2771950  48.2996460  46.6883930  44.1161080
  49.1308040  47.7195400  44.8494520  40.5594850  38.2348510  46.6028570
  40.3797690  37.3374260  46.8831330  40.1574930  38.7820380  47.2775520
  57.4717020  39.9481560  48.0012850  56.7669190  40.3363270  47.4827960
  57.7374940  40.6431850  48.6033780  43.6542190  36.4174930  48.5646920
  43.6560630  36.9347320  47.7592820  42.8246500  35.9405110  48.5416850
  50.0413280  46.5294240  40.0636820  49.4230550  46.9943690  39.4999540
  50.5536530  47.2221720  40.4806330  44.9045040  46.0570110  46.7420420
  44.5714420  46.6839030  47.3841490  45.0811720  46.5831990  45.9622090
  44.1164140  48.0250910  48.5569600  44.7338140  48.7001990  48.2754050
  43.2557260  48.4338890  48.4657100  55.0341730  49.4890320  46.4724240
  54.3505250  50.1589430  46.4640910  55.5736020  49.6870970  45.7069100
  52.5700470  51.3334450  45.1869420  52.5827630  50.9296740  44.3191680
  52.0175690  52.1081740  45.0830850  53.8645890  48.0550670  40.2759590
  53.7542220  47.1125000  40.4009010  53.8614140  48.4166310  41.1622350
  51.9685910  46.2364290  46.5152030  52.3854700  46.0224400  45.6805490
  52.6925730  46.4937080  47.0860650  55.9148010  44.6351510  46.6068270
  55.0866640  44.7044600  46.1318400  56.5098490  45.2205820  46.1384100
  53.4363460  45.2436290  40.1357330  52.8175880  44.9055840  39.4883630
  53.4187910  44.5996050  40.8436520  52.8790020  41.4220830  47.5523140
  52.4661200  42.2474540  47.8063130  52.1465970  40.8365870  47.3599500
  45.4804510  47.8948290  44.5781020  45.1832800  47.2893760  43.8988800
  46.4304330  47.9325600  44.4670380  53.5690120  51.4680160  48.2404120
  53.0920680  52.2752350  48.0476730  52.8851910  50.8158490  48.3930330
  44.5722940  47.6329980  51.2288820  43.6751470  47.8569950  51.4762220
  44.5975810  47.7564920  50.2800220  51.6128160  44.4823100  37.1430080
  52.0521440  43.6445530  36.9967900  52.3256580  45.1152500  37.2294220
  43.3994160  44.5043300  49.8046190  43.2601930  45.3766100  50.1733590
  42.5175520  44.1616110  49.6594130  49.7223540  49.4219170  41.1111320
  50.1619450  50.1643500  40.6966710  49.6610430  49.6645740  42.0350280
  45.1974510  50.4465000  52.0131340  45.1689940  50.8507950  51.1459770
  45.0339480  49.5175360  51.8502940  55.1945300  35.7365910  35.4571120
  54.8817960  35.8292740  36.3570190  55.9557770  36.3146940  35.4068550
  57.1489330  51.2292100  53.3095510  57.6249050  51.7074990  53.9884590
  57.7696490  51.1609590  52.5841010  39.3512810  46.2740850  45.7217100
  39.4293230  46.4089620  44.7772820  39.9654490  45.5656740  45.9145220
  40.5960440  47.9741040  42.1323280  40.1888520  48.1155630  41.2776880
  41.4873450  47.6901200  41.9294490  56.5522580  48.4204950  50.4695520
  56.6785640  48.1816830  49.5512700  56.5943960  47.5889490  50.9417600
  50.4139320  52.1232950  49.0390330  50.9283990  52.0340960  49.8412760
  49.5708400  52.4692650  49.3318240  52.3893720  52.4088290  38.4674330
  52.2294860  52.1191230  39.3656160  52.2240430  51.6328420  37.9319560
  44.8682100  52.1886820  40.2445950  44.6924580  51.2722360  40.0313750
  44.0137840  52.5474110  40.4843750  52.0919850  49.9175850  37.0272330
  51.3985010  49.9153140  36.3674610  52.8342710  49.4935170  36.5966500
  51.6569780  51.5438560  41.1020820  52.1126730  50.7627940  41.4159440
  51.9962300  52.2545380  41.6462000  56.4046590  40.4737410  51.4345260
  55.7890860  40.9817080  50.9060720  56.0843010  39.5735740  51.3771200
  39.4072330  47.3155020  48.2611560  39.5703370  46.8460380  47.4430930
  39.8724780  46.8078580  48.9260400  53.4665420  40.5338250  50.0304110
  52.6159010  40.2344000  50.3513180  53.3067210  40.7780260  49.1187930
  50.5615130  42.0340000  52.1302900  50.8868540  41.2003750  51.7905130
  51.3495460  42.5568520  52.2781230  46.4104530  42.4679930  51.6913650
  46.3148130  41.5274660  51.5414050  47.2536510  42.6895000  51.2961720
  41.5415070  38.8793600  49.8447430  41.1478460  39.7268810  50.0520210
  40.8533470  38.2419970  50.0356070  48.1160120  38.9628570  52.9144170
  47.4258440  38.7700770  53.5490260  48.8592420  39.2463210  53.4468470
  54.2819750  35.6692870  51.0007410  54.6065520  34.9382530  51.5265390
  54.3176260  35.3506510  50.0988400  40.9811310  46.6906450  50.4207370
  40.5966100  46.0500120  51.0190330  41.2923500  47.3942570  50.9902100
  44.9207820  42.5791630  48.2200200  44.6164890  43.4583610  48.4450560
  45.8754280  42.6391420  48.2557640  54.2077590  45.7817980  44.6093440
  54.9276710  46.2773270  44.2189550  54.0059410  45.1035870  43.9647310
  49.5896390  45.8527040  50.4962440  49.5233700  44.9322710  50.2420030
  48.9601530  45.9502480  51.2107080  52.3835920  41.5475590  37.0484990
  53.2715540  41.8592820  36.8736330  52.3541010  40.6747840  36.6565570
  48.3796510  47.7199280  37.7273160  48.7212210  48.4641510  37.2316480
  47.5509220  48.0330400  38.0897990  40.9771550  43.4194370  49.3671560
  40.6186490  44.0848220  49.9544900  40.6826110  42.5877920  49.7384180
  44.1784670  43.8778610  52.2511110  43.8784810  44.0235790  51.3538930
  44.9495910  43.3183900  52.1584500  49.5213120  48.6747610  50.2466240
  49.5357660  47.7428570  50.0285150  48.8138220  48.7607370  50.8856010
  54.6550190  42.8587430  36.5164850  54.5713910  43.2901650  35.6661290
  55.3744380  43.3185780  36.9491670  55.7324330  45.3154950  49.5934820
  55.0072520  45.9083730  49.3964210  56.2599790  45.3078490  48.7948190
  55.6837440  49.7129690  39.2446980  55.0413600  49.0585310  39.5190700
  55.2968100  50.1184780  38.4687650  51.2623920  47.0415120  43.0918670
  51.6147740  46.4443250  42.4320040  50.3786250  46.7159350  43.2626920
  48.9547020  50.3165180  47.3406740  49.5989240  50.5224560  48.0180160
  49.3176460  49.5553580  46.8877590  50.2279100  48.3197530  46.0584190
  50.8701330  47.6190690  46.1716360  50.7528450  49.0995970  45.8781080
  54.0734820  48.6046150  35.7823330  53.8472400  47.8876590  36.3747970
  53.6831020  48.3558590  34.9445080  52.0016720  49.1192430  49.2620250
  52.3372960  49.7059120  49.9398170  51.0817060  48.9885140  49.4918040
  39.8550850  52.6313010  36.5567790  40.2148490  53.2302350  35.9025060
  39.7143190  53.1772900  37.3302820  39.5520120  36.9087610  50.0443660
  38.8378640  37.1084530  50.6496270  39.9715160  36.1327180  50.4158460
  53.6551070  46.5218090  37.4437490  53.3672770  46.9830780  38.2315370
  54.4503240  46.0615860  37.7121710  39.8392710  50.8967870  51.0310190
  39.9483830  49.9562610  50.8905580  39.1873270  51.1622620  50.3823920
  47.8305300  49.1683760  52.4308310  47.5102170  48.4493000  52.9754000
  47.1563660  49.8438830  52.5044370  45.8719470  50.0144210  37.3741460
  45.8629570  50.7473900  36.7585970  44.9517830  49.7675790  37.4668420
  54.4120930  38.3566860  38.6032670  53.7834090  38.4612530  37.8890900
  53.9172850  38.5763640  39.3926550  48.8579070  50.0772450  36.0366650
  48.9591050  49.8736440  35.1068630  47.9580810  49.8230730  36.2414430
  47.4997180  52.5958770  40.7314320  47.7538680  52.5580160  39.8093690
  46.5509660  52.4692100  40.7242570  53.5049760  43.5150650  42.3072830
  52.5639900  43.5300880  42.4820520  53.8193830  42.7286610  42.7533130
  55.5075340  50.6859500  43.9827090  55.6322760  51.5090670  44.4550900
  56.3740900  50.4750230  43.6351240  42.9792870  52.7790710  43.6544220
  43.7155350  52.2306170  43.9252790  43.3633790  53.6446720  43.5150210
  39.8638350  48.8464280  39.5285730  38.9378130  49.0885420  39.5191140
  40.3294780  49.6738540  39.4070480  41.9851150  51.9636780  52.8429800
  42.7863880  52.2848830  53.2565200  41.4702970  51.6032360  53.5649710
  46.0895180  51.9521020  35.4769790  46.8823790  52.2409850  35.0251580
  45.5699530  51.5213190  34.7982270  50.8215780  48.0716650  52.7905210
  50.2153940  48.0948250  52.0500960  50.5169890  47.3399690  53.3272460
  52.2516150  51.7996940  51.4014620  53.2037900  51.7154960  51.3514860
  52.1044370  52.4638650  52.0748410  55.1425350  51.1791150  36.9006530
  54.8566860  50.7656290  36.0860710  54.9444900  52.1078860  36.7807050
  39.7048960  44.4510240  51.7865850  40.2087980  43.8717520  52.3582080
  38.9656380  44.7350470  52.3242220  46.6072580  47.1724430  35.3412140
  46.5023220  46.5576780  36.0673520  46.4396800  46.6490320  34.5575150
  46.7586900  45.8581230  51.3201370  45.9932570  46.4266230  51.2356040
  46.9402860  45.5657440  50.4269600  49.8475310  46.2344460  35.9454130
  49.2985410  46.6813760  36.5896870  50.4694570  45.7293710  36.4691800
  53.9010250  47.5886560  51.8776390  54.6419720  47.9262320  51.3743850
  53.1382930  47.7578620  51.3246160  41.7372040  42.5939830  52.6815920
  41.7777380  42.2953700  53.5901150  42.5917540  42.9947440  52.5223440
  43.6777850  41.1731930  50.6490410  43.1474310  40.6822880  50.0213750
  44.3465920  41.6016130  50.1148340  48.0278070  44.2172990  35.0896530
  48.5483730  43.5022010  34.7237680  48.6746470  44.8558860  35.3897040
  52.5755910  45.6401390  50.4131600  52.9896930  45.7946470  51.2622020
  51.6406910  45.7656610  50.5757380  53.0478080  42.9797550  52.4170750
  53.6298850  42.2249870  52.3291230  53.2239850  43.5104990  51.6402230
  44.1650150  38.1394300  50.7287700  44.0707020  37.5215050  50.0038570
  43.5847540  38.8660590  50.5017610  47.3371140  45.5921870  48.3827530
  47.7559250  46.4354600  48.2103770  46.4179770  45.7293910  48.1534310
  49.6735040  43.3238050  49.7665370  49.7931250  42.7279190  50.5060210
  50.5329040  43.3607740  49.3466670  52.0122940  43.8775240  48.3427880
  51.4858160  44.4017860  47.7393020  52.3554280  44.5102630  48.9737610
  45.1878560  51.8974880  49.4985260  44.6499650  52.6220940  49.1793960
  45.4412520  51.4205220  48.7082600  46.4403810  39.8659400  51.0241190
  47.0303500  39.5575250  51.7119010  45.6224050  39.3939150  51.1801090
  51.2597240  39.4825210  51.2574210  50.5712760  38.8206750  51.1924200
  51.9803260  39.0363480  51.7022670  51.8897640  36.0776840  37.3164470
  52.1699930  35.2344740  37.6723890  51.1163370  36.3099950  37.8303220
  48.0440770  53.1326090  49.7571910  47.9699470  54.0361230  50.0644280
  47.1419610  52.8137990  49.7293980  48.5926100  52.2984600  37.3798270
  49.4876890  52.6369570  37.4017030  48.6243730  51.5764010  36.7522550
  42.2322260  47.6711650  35.6085270  42.6697130  48.2141320  36.2642850
  42.7169990  46.8458600  35.6181610  39.4468060  50.4600680  43.0605530
  39.7771070  49.5921740  42.8284170  39.8759060  50.6659200  43.8910490
  44.0429980  48.7909690  40.7207500  43.7425520  48.6674660  41.6211410
  43.9367470  47.9318280  40.3123230  39.9358270  51.3271270  45.7987160
  39.4989260  51.5072070  46.6311310  40.5035950  52.0845890  45.6568880
  55.5720450  50.8288270  50.0864470  54.9722440  50.8880830  49.3428390
  55.7014350  49.8893250  50.2161320  56.8121900  48.5706090  35.4234180
  55.9814860  48.6382740  35.8941410  56.9893730  49.4610210  35.1201040
  56.2678360  45.3153570  37.9268380  57.0297270  45.8850220  38.0328070
  56.2832730  44.7480770  38.6976690  57.2738330  46.1703670  42.7710310
  57.6447160  45.3870990  42.3646280  57.9140260  46.8592770  42.5927610
  54.2572090  47.5540250  48.1840630  53.4431930  47.9837410  48.4466420
  54.6646290  48.1658660  47.5709680  56.3197530  45.6087940  35.0840900
  56.5946370  46.5166820  34.9560120  56.1308270  45.5450470  36.0202890
  52.7173140  38.6332790  36.3794530  53.1358020  38.4463770  35.5391190
  52.4109200  37.7811840  36.6897460  56.2162870  43.5456930  40.0770330
  55.8406470  42.7784860  39.6451620  55.4865990  43.9279630  40.5645260
  55.6062490  42.6928450  49.7109850  55.3748580  42.4641200  48.8107800
  55.8667040  43.6128000  49.6654740  40.3574630  41.1353160  50.6037800
  39.4630680  41.1019920  50.9431510  40.8972180  41.3339950  51.3689050
  54.0450560  37.9184880  52.4889550  54.9220740  37.9268280  52.8723550
  54.0571400  37.1815720  51.8781900  55.4913830  41.7714420  43.3777570
  56.0151310  41.2777070  42.7467740  56.0773250  41.9064780  44.1225140
  55.6703550  41.8554290  46.8997120  54.7206260  41.8217830  47.0142110
  55.8516560  42.7654400  46.6646890  54.9813800  41.0287770  39.3169980
  55.4772920  40.7958640  40.1018860  54.7829870  40.1899610  38.9007620
  56.4100960  39.6648720  41.8507660  56.3000240  39.5104760  42.7889930
  57.1708550  39.1369660  41.6083070  57.2991230  37.4956640  35.0913800
  58.2240540  37.3637820  34.8832090  57.2767020  37.5749460  36.0450250
  57.3729720  38.2667300  37.7170510  56.5781220  38.2012420  38.2463420
  57.5773000  39.2017940  37.7055860  54.3148140  52.3058850  41.7108900
  54.9107210  51.9843420  41.0343320  54.5726290  51.8330670  42.5022170
  40.6146340  35.5657160  47.6946340  40.2661160  36.0220980  48.4604520
  40.2834040  34.6714290  47.7768770  42.2210710  48.7376760  51.8599530
  42.1780340  48.3669670  52.7413990  42.3521720  49.6754330  52.0001350
  45.9216740  50.2936350  47.4609250  45.6808100  50.5610910  46.5739770
  46.8619380  50.4642080  47.5160110  48.1271160  36.7569040  51.2165760
  48.0660050  37.3490870  51.9661170  49.0671540  36.6495000  51.0716020
  50.7645720  36.4139100  50.8558050  51.3786130  36.7318390  50.1939130
  51.3095280  35.9287690  51.4753910  57.1820900  52.3130730  48.2619890
  56.6879180  52.7099600  47.5447020  56.5734190  51.6879940  48.6557170
  41.2866980  35.0933360  50.9697110  41.8349970  34.9121410  50.2063220
  41.3522290  34.3027470  51.5053420  42.0598740  51.6839010  48.9797310
  41.4659060  51.5523710  49.7187350  42.0522580  50.8477150  48.5139410
  54.8660350  52.9554150  45.5406630  54.4063320  53.7069960  45.1664650
  54.2372810  52.2360620  45.4821430  41.6910970  49.0497390  47.9305350
  40.9645030  48.4302680  47.8631300  41.7520120  49.4438000  47.0603430
  45.2956070  51.2642390  44.7154760  45.8121090  50.6529750  44.1903020
  45.9453450  51.7671170  45.2065770  48.0351570  52.1550880  45.5423740
  48.3229380  51.9005180  44.6656750  48.5474790  51.6028240  46.1329310
  55.6688220  36.2279420  42.1778160  55.6076620  35.2840640  42.0309180
  56.4480250  36.3359510  42.7231620  39.9740970  52.3671780  41.1402110
  39.8063010  51.7342460  41.8384000  39.1075480  52.5731180  40.7896300
  54.7842380  35.3791840  38.1459630  54.9793010  36.2775290  38.4127060
  53.9972250  35.1478920  38.6392580  41.5803670  51.0605010  38.5852250
  41.0551290  51.4413040  37.8814210  41.5048250  51.6855780  39.3061960
  48.1023930  53.0766980  52.9091940  49.0291240  52.8411250  52.9527900
  48.0874360  53.9038980  52.4277970  56.3368990  52.6192550  39.9066190
  56.5121180  51.9330290  39.2627110  55.6390560  53.1439600  39.5142860
  45.2887540  35.7411730  52.6733820  45.0071810  36.2445330  51.9094640
  45.6707240  34.9433480  52.3075950  44.1796640  53.0087390  37.4601500
  44.9115460  52.7246670  36.9125390  44.4390310  52.7700670  38.3500880
  43.3411430  49.1252120  37.4647830  42.7120310  49.5937220  38.0133660
  43.4559260  48.2801340  37.8994020  51.8903000  35.1565310  53.2514290
  51.7768450  35.4759920  54.1465810  52.7072740  35.5577820  52.9551570
  54.6701490  52.3036840  52.7332980  55.4626810  51.8086070  52.5258940
  54.9634640  52.9826980  53.3408590  50.7961150  43.1757780  23.6149030
  50.7155200  42.2612390  23.3440740  50.3825570  43.6724850  22.9088740
  48.9279190  44.9536800  25.4958300  48.1521290  44.4737240  25.7856870
  49.5792120  44.2742450  25.3214460  52.9486620  49.3596990  24.2757430
  52.4868150  48.5884230  24.6044600  53.7612170  49.3863060  24.7809880
  42.9246280  49.2996700  26.5692080  43.2274320  48.4094440  26.3902300
  43.6689870  49.8566920  26.3414330  41.3536970  40.2258500  20.1576450
  40.4653670  40.5674470  20.0556330  41.6378160  40.0258820  19.2657280
  49.1749930  51.6455000  23.8961420  48.5561370  52.1012500  23.3255860
  50.0301710  51.8006460  23.4951120  48.3688180  47.6293990  25.5028460
  48.2996460  46.6883930  25.3417590  49.1308040  47.7195400  26.0751030
  49.3993350  40.4364370  25.7297390  49.7758170  39.5636250  25.6171060
  49.3012860  40.7723070  24.8387830  43.5298360  38.8090000  21.1914830
  43.6365110  39.7093730  21.4983590  42.6190720  38.7607970  20.9009480
  53.1817470  37.9314810  22.6625730  54.0027090  37.4411380  22.7051210
  53.2151550  38.5212470  23.4157570  57.4717020  39.9481560  29.2269360
  56.7669190  40.3363270  28.7084470  57.7374940  40.6431850  29.8290290
  50.0413280  46.5294240  21.2893330  49.4230550  46.9943690  20.7256050
  50.5536530  47.2221720  21.7062840  53.4178950  39.8715190  25.4353270
  52.7134520  40.1600080  26.0156380  53.7791110  40.6815300  25.0752830
  44.1164140  48.0250910  29.7826110  44.7338140  48.7001990  29.5010560
  43.2557260  48.4338890  29.6913610  39.4096480  47.2150770  18.6632960
  39.0324460  47.7037870  17.9317860  39.6669550  47.8876050  19.2939490
  55.0341730  49.4890320  27.6980750  54.3505250  50.1589430  27.6897420
  55.5736020  49.6870970  26.9325610  56.4865870  39.3169980  25.8262480
  55.5390780  39.3508960  25.9577910  56.8115860  40.1308930  26.2111840
  47.0185410  35.6167160  24.1218470  47.3260390  35.0614050  23.4053970
  46.0886110  35.7511620  23.9391460  52.5700470  51.3334450  26.4125930
  52.5827630  50.9296740  25.5448190  52.0175690  52.1081740  26.3087360
  53.8645890  48.0550670  21.5016100  53.7542220  47.1125000  21.6265520
  53.8614140  48.4166310  22.3878860  51.9685910  46.2364290  27.7408540
  52.3854700  46.0224400  26.9062000  52.6925730  46.4937080  28.3117160
  49.4066170  43.6815990  20.8578590  48.4795450  43.6153370  21.0867060
  49.5590990  44.6196120  20.7433830  49.3935250  39.9532990  17.8545750
  48.4538920  40.1146950  17.9398210  49.7118510  40.6718670  17.3081740
  55.9148010  44.6351510  27.8324780  55.0866640  44.7044600  27.3574910
  56.5098490  45.2205820  27.3640610  53.4363460  45.2436290  21.3613840
  52.8175880  44.9055840  20.7140140  53.4187910  44.5996050  22.0693030
  52.8790020  41.4220830  28.7779650  52.4661200  42.2474540  29.0319640
  52.1465970  40.8365870  28.5856010  45.4804510  47.8948290  25.8037530
  45.1832800  47.2893760  25.1245310  46.4304330  47.9325600  25.6926890
  53.5690120  51.4680160  29.4660630  53.0920680  52.2752350  29.2733240
  52.8851910  50.8158490  29.6186840  44.5722940  47.6329980  32.4545330
  43.6751470  47.8569950  32.7018730  44.5975810  47.7564920  31.5056730
  51.6128160  44.4823100  18.3686590  52.0521440  43.6445530  18.2224410
  52.3256580  45.1152500  18.4550730  49.7223540  49.4219170  22.3367830
  50.1619450  50.1643500  21.9223220  49.6610430  49.6645740  23.2606790
  45.1974510  50.4465000  33.2387850  45.1689940  50.8507950  32.3716280
  45.0339480  49.5175360  33.0759450  55.1945300  35.7365910  16.6827630
  54.8817960  35.8292740  17.5826700  55.9557770  36.3146940  16.6325060
  41.7127440  43.1025710  21.1404970  41.5925040  43.8287800  20.5286240
  41.4028330  42.3328620  20.6632880  57.1489330  51.2292100  34.5352020
  57.6249050  51.7074990  35.2141100  57.7696490  51.1609590  33.8097520
  39.3512810  46.2740850  26.9473610  39.4293230  46.4089620  26.0029330
  39.9654490  45.5656740  27.1401730  40.5960440  47.9741040  23.3579790
  40.1888520  48.1155630  22.5033390  41.4873450  47.6901200  23.1551000
  56.5522580  48.4204950  31.6952030  56.6785640  48.1816830  30.7769210
  56.5943960  47.5889490  32.1674110  50.4139320  52.1232950  30.2646840
  50.9283990  52.0340960  31.0669270  49.5708400  52.4692650  30.5574750
  52.3893720  52.4088290  19.6930840  52.2294860  52.1191230  20.5912670
  52.2240430  51.6328420  19.1576070  44.8682100  52.1886820  21.4702460
  44.6924580  51.2722360  21.2570260  44.0137840  52.5474110  21.7100260
  52.0919850  49.9175850  18.2528840  51.3985010  49.9153140  17.5931120
  52.8342710  49.4935170  17.8223010  51.6569780  51.5438560  22.3277330
  52.1126730  50.7627940  22.6415950  51.9962300  52.2545380  22.8718510
  56.4046590  40.4737410  32.6601770  55.7890860  40.9817080  32.1317230
  56.0843010  39.5735740  32.6027710  39.4072330  47.3155020  29.4868070
  39.5703370  46.8460380  28.6687440  39.8724780  46.8078580  30.1516910
  53.4665420  40.5338250  31.2560620  52.6159010  40.2344000  31.5769690
  53.3067210  40.7780260  30.3444440  50.5615130  42.0340000  33.3559410
  50.8868540  41.2003750  33.0161640  51.3495460  42.5568520  33.5037740
  47.2949920  36.0671480  19.4034470  46.6704100  36.0631350  20.1287780
  47.2080040  35.2002440  19.0070440  43.9705320  41.5694350  22.2509890
  43.7446240  41.3531520  23.1556510  43.1897850  42.0022810  21.9055860
  51.2003080  41.5757720  20.8500540  50.6011970  42.2993520  20.6664160
  51.7482690  41.5134500  20.0676990  49.8067950  40.2121260  22.8803820
  50.1997520  40.5293460  22.0672510  50.1684800  39.3333140  22.9948340
  39.0302350  40.7442180  16.3136740  38.9477020  41.6872940  16.4551730
  38.6785410  40.6017090  15.4349090  50.3923090  42.8027010  26.9754600
  49.6604210  43.3113820  27.3244700  49.9947430  41.9856990  26.6743380
  46.8920630  40.4793290  18.3713850  47.0133450  40.4379770  19.3199670
  46.5069140  41.3417440  18.2160580  50.8549000  38.2560690  26.3877540
  50.8721740  38.7069340  27.2319390  50.6064580  37.3566330  26.6010980
  45.9042130  42.7894430  17.7697150  45.3359030  42.3412680  17.1433060
  46.6131130  43.1487210  17.2362300  54.2819750  35.6692870  32.2263920
  54.6065520  34.9382530  32.7521900  54.3176260  35.3506510  31.3244910
  39.9948940  38.2826680  23.2565970  39.7095860  37.9182350  24.0944590
  39.9327800  37.5507140  22.6429110  43.4489610  46.7852620  20.0423560
  42.6751870  46.2450240  19.8822280  44.1784240  46.2659230  19.7041320
  54.2077590  45.7817980  25.8349950  54.9276710  46.2773270  25.4446060
  54.0059410  45.1035870  25.1903820  49.6687530  37.1755940  19.9779340
  48.8552140  36.6769110  19.9024650  49.4749480  38.0154190  19.5615690
  49.5896390  45.8527040  31.7218950  49.5233700  44.9322710  31.4676540
  48.9601530  45.9502480  32.4363590  52.3835920  41.5475590  18.2741500
  53.2715540  41.8592820  18.0992840  52.3541010  40.6747840  17.8822080
  48.3796510  47.7199280  18.9529670  48.7212210  48.4641510  18.4572990
  47.5509220  48.0330400  19.3154500  49.5213120  48.6747610  31.4722750
  49.5357660  47.7428570  31.2541660  48.8138220  48.7607370  32.1112520
  54.6550190  42.8587430  17.7421360  54.5713910  43.2901650  16.8917800
  55.3744380  43.3185780  18.1748180  55.7324330  45.3154950  30.8191330
  55.0072520  45.9083730  30.6220720  56.2599790  45.3078490  30.0204700
  55.6837440  49.7129690  20.4703490  55.0413600  49.0585310  20.7447210
  55.2968100  50.1184780  19.6944160  51.2623920  47.0415120  24.3175180
  51.6147740  46.4443250  23.6576550  50.3786250  46.7159350  24.4883430
  47.3487200  47.8012810  21.7245590  48.0358330  48.3482020  22.1053180
  46.5619620  48.3453540  21.7595200  39.4879600  43.4185630  17.2162670
  40.3574450  43.7010430  17.4998590  38.9969920  44.2321500  17.1011480
  46.6514410  44.8058840  21.3370950  47.1077190  45.6164090  21.5631140
  46.3002620  44.4881980  22.1689440  48.9547020  50.3165180  28.5663250
  49.5989240  50.5224560  29.2436670  49.3176460  49.5553580  28.1134100
  42.5526190  35.1496490  21.8093470  42.4240820  35.1414390  22.7578390
  41.7288210  35.4879580  21.4584480  50.2279100  48.3197530  27.2840700
  50.8701330  47.6190690  27.3972870  50.7528450  49.0995970  27.1037590
  54.0734820  48.6046150  17.0079840  53.8472400  47.8876590  17.6004480
  53.6831020  48.3558590  16.1701590  52.0016720  49.1192430  30.4876760
  52.3372960  49.7059120  31.1654680  51.0817060  48.9885140  30.7174550
  39.8550850  52.6313010  17.7824300  40.2148490  53.2302350  17.1281570
  39.7143190  53.1772900  18.5559330  53.6551070  46.5218090  18.6694000
  53.3672770  46.9830780  19.4571880  54.4503240  46.0615860  18.9378220
  39.8392710  50.8967870  32.2566700  39.9483830  49.9562610  32.1162090
  39.1873270  51.1622620  31.6080430  47.8305300  49.1683760  33.6564820
  47.5102170  48.4493000  34.2010510  47.1563660  49.8438830  33.7300880
  45.8719470  50.0144210  18.5997970  45.8629570  50.7473900  17.9842480
  44.9517830  49.7675790  18.6924930  41.4726110  45.2359100  19.3444730
  40.8654060  45.9758000  19.3540030  41.9475460  45.3258460  18.5182930
  51.0458900  39.4009920  29.0201620  51.4139720  38.5805130  29.3481190
  50.1857100  39.4611810  29.4357270  54.4120930  38.3566860  19.8289180
  53.7834090  38.4612530  19.1147410  53.9172850  38.5763640  20.6183060
  48.8579070  50.0772450  17.2623160  48.9591050  49.8736440  16.3325140
  47.9580810  49.8230730  17.4670940  46.3804960  40.6352810  21.2447060
  45.6721110  41.1039150  21.6860670  46.6649440  39.9774820  21.8792250
  48.0060890  42.0549510  29.2439590  48.5046140  42.5295330  29.9091440
  48.1483840  41.1313030  29.4509620  50.4120390  37.3603470  22.6842850
  50.2888170  37.3789600  21.7352360  51.3604950  37.4082410  22.8041250
  47.4997180  52.5958770  21.9570830  47.7538680  52.5580160  21.0350200
  46.5509660  52.4692100  21.9499080  44.5839980  38.9437890  18.6197770
  45.4330510  39.3808040  18.5537960  44.2171250  39.2558150  19.4469830
  55.2127750  38.2717470  30.0867980  54.7101350  39.0122870  30.4261790
  56.0284410  38.6601470  29.7704770  53.5049760  43.5150650  23.5329340
  52.5639900  43.5300880  23.7077030  53.8193830  42.7286610  23.9789640
  43.4831400  45.1970250  17.0933300  44.2494670  45.0851610  17.6558730
  43.5606090  44.5008220  16.4410070  42.1778160  42.6295320  17.7766190
  42.2581750  41.6822830  17.8883590  43.0697910  42.9602200  17.8826850
  55.5075340  50.6859500  25.2083600  55.6322760  51.5090670  25.6807410
  56.3740900  50.4750230  24.8607750  42.9792870  52.7790710  24.8800730
  43.7155350  52.2306170  25.1509300  43.3633790  53.6446720  24.7406720
  39.8638350  48.8464280  20.7542240  38.9378130  49.0885420  20.7447650
  40.3294780  49.6738540  20.6326990  41.9851150  51.9636780  34.0686310
  42.7863880  52.2848830  34.4821710  41.4702970  51.6032360  34.7906220
  46.0895180  51.9521020  16.7026300  46.8823790  52.2409850  16.2508090
  45.5699530  51.5213190  16.0238780  50.8215780  48.0716650  34.0161720
  50.2153940  48.0948250  33.2757470  50.5169890  47.3399690  34.5528970
  52.2516150  51.7996940  32.6271130  53.2037900  51.7154960  32.5771370
  52.1044370  52.4638650  33.3004920  55.1425350  51.1791150  18.1263040
  54.8566860  50.7656290  17.3117220  54.9444900  52.1078860  18.0063560
  46.6072580  47.1724430  16.5668650  46.5023220  46.5576780  17.2930030
  46.4396800  46.6490320  15.7831660  46.7586900  45.8581230  32.5457880
  45.9932570  46.4266230  32.4612550  46.9402860  45.5657440  31.6526110
  49.8475310  46.2344460  17.1710640  49.2985410  46.6813760  17.8153380
  50.4694570  45.7293710  17.6948310  53.9010250  47.5886560  33.1032900
  54.6419720  47.9262320  32.6000360  53.1382930  47.7578620  32.5502670
  45.5150430  45.1935380  19.0675940  45.9366850  45.0275250  19.9107330
  45.6401270  44.3835610  18.5731080  48.0278070  44.2172990  16.3153040
  48.5483730  43.5022010  15.9494190  48.6746470  44.8558860  16.6153550
  52.5755910  45.6401390  31.6388110  52.9896930  45.7946470  32.4878530
  51.6406910  45.7656610  31.8013890  53.0478080  42.9797550  33.6427260
  53.6298850  42.2249870  33.5547740  53.2239850  43.5104990  32.8658740
  47.3371140  45.5921870  29.6084040  47.7559250  46.4354600  29.4360280
  46.4179770  45.7293910  29.3790820  49.6735040  43.3238050  30.9921880
  49.7931250  42.7279190  31.7316720  50.5329040  43.3607740  30.5723180
  52.0122940  43.8775240  29.5684390  51.4858160  44.4017860  28.9649530
  52.3554280  44.5102630  30.1994120  44.4109330  41.2668610  16.0134100
  44.2098390  40.4035970  16.3747440  44.2401380  41.1801970  15.0755700
  45.1878560  51.8974880  30.7241770  44.6499650  52.6220940  30.4050470
  45.4412520  51.4205220  29.9339110  51.2597240  39.4825210  32.4830720
  50.5712760  38.8206750  32.4180710  51.9803260  39.0363480  32.9279180
  51.8897640  36.0776840  18.5420980  52.1699930  35.2344740  18.8980400
  51.1163370  36.3099950  19.0559730  43.2092130  38.3669230  16.0011980
  43.5118030  38.3736660  15.0931130  43.9486720  38.0167090  16.4979640
  48.0440770  53.1326090  30.9828420  47.9699470  54.0361230  31.2900790
  47.1419610  52.8137990  30.9550490  46.4277060  37.3103850  16.9868180
  46.0799060  36.6327840  16.4070630  46.6289830  36.8493360  17.8011570
  48.5926100  52.2984600  18.6054780  49.4876890  52.6369570  18.6273540
  48.6243730  51.5764010  17.9779060  42.2322260  47.6711650  16.8341780
  42.6697130  48.2141320  17.4899360  42.7169990  46.8458600  16.8438120
  39.4468060  50.4600680  24.2862040  39.7771070  49.5921740  24.0540680
  39.8759060  50.6659200  25.1167000  44.0429980  48.7909690  21.9464010
  43.7425520  48.6674660  22.8467920  43.9367470  47.9318280  21.5379740
  39.9358270  51.3271270  27.0243670  39.4989260  51.5072070  27.8567820
  40.5035950  52.0845890  26.8825390  55.5720450  50.8288270  31.3120980
  54.9722440  50.8880830  30.5684900  55.7014350  49.8893250  31.4417830
  56.8121900  48.5706090  16.6490690  55.9814860  48.6382740  17.1197920
  56.9893730  49.4610210  16.3457550  56.2678360  45.3153570  19.1524890
  57.0297270  45.8850220  19.2584580  56.2832730  44.7480770  19.9233200
  39.7682700  43.8391500  23.3832550  39.1131540  43.5703140  22.7392250
  40.6060650  43.7295980  22.9334530  57.2738330  46.1703670  23.9966820
  57.6447160  45.3870990  23.5902790  57.9140260  46.8592770  23.8184120
  54.2572090  47.5540250  29.4097140  53.4431930  47.9837410  29.6722930
  54.6646290  48.1658660  28.7966190  56.3197530  45.6087940  16.3097410
  56.5946370  46.5166820  16.1816630  56.1308270  45.5450470  17.2459400
  52.7173140  38.6332790  17.6051040  53.1358020  38.4463770  16.7647700
  52.4109200  37.7811840  17.9153970  56.2162870  43.5456930  21.3026840
  55.8406470  42.7784860  20.8708130  55.4865990  43.9279630  21.7901770
  55.6062490  42.6928450  30.9366360  55.3748580  42.4641200  30.0364310
  55.8667040  43.6128000  30.8911250  54.0450560  37.9184880  33.7146060
  54.9220740  37.9268280  34.0980060  54.0571400  37.1815720  33.1038410
  38.9820780  41.0490430  19.3257880  38.0784860  41.3120630  19.1509540
  39.4661400  41.3201600  18.5457840  55.4913830  41.7714420  24.6034080
  56.0151310  41.2777070  23.9724250  56.0773250  41.9064780  25.3481650
  55.6703550  41.8554290  28.1253630  54.7206260  41.8217830  28.2398620
  55.8516560  42.7654400  27.8903400  41.5247990  40.1055970  17.2352260
  42.2339690  39.6839190  16.7499540  40.8087930  40.1731200  16.6035610
  41.1722150  36.1595300  16.2754910  41.8950280  36.7004240  16.5936130
  41.4446670  35.8858720  15.3996450  54.9813800  41.0287770  20.5426490
  55.4772920  40.7958640  21.3275370  54.7829870  40.1899610  20.1264130
  56.4100960  39.6648720  23.0764170  56.3000240  39.5104760  24.0146440
  57.1708550  39.1369660  22.8339580  54.7566680  35.6042850  29.5347170
  55.3938900  36.2176990  29.9006360  54.9041570  35.6403510  28.5896400
  57.2991230  37.4956640  16.3170310  58.2240540  37.3637820  16.1088600
  57.2767020  37.5749460  17.2706760  57.3729720  38.2667300  18.9427020
  56.5781220  38.2012420  19.4719930  57.5773000  39.2017940  18.9312370
  54.3148140  52.3058850  22.9365410  54.9107210  51.9843420  22.2599830
  54.5726290  51.8330670  23.7278680  42.2210710  48.7376760  33.0856040
  42.1780340  48.3669670  33.9670500  42.3521720  49.6754330  33.2257860
  45.9216740  50.2936350  28.6865760  45.6808100  50.5610910  27.7996280
  46.8619380  50.4642080  28.7416620  50.7645720  36.4139100  32.0814560
  51.3786130  36.7318390  31.4195640  51.3095280  35.9287690  32.7010420
  57.1820900  52.3130730  29.4876400  56.6879180  52.7099600  28.7703530
  56.5734190  51.6879940  29.8813680  42.0598740  51.6839010  30.2053820
  41.4659060  51.5523710  30.9443860  42.0522580  50.8477150  29.7395920
  51.5053760  34.9771240  28.4083850  50.6313600  35.3106350  28.2056780
  51.3964510  34.5044420  29.2335720  52.4125740  37.1842110  29.7925570
  52.0839100  36.3693870  29.4127300  53.3608040  37.1411920  29.6691260
  54.8660350  52.9554150  26.7663140  54.4063320  53.7069960  26.3921160
  54.2372810  52.2360620  26.7077940  41.6910970  49.0497390  29.1561860
  40.9645030  48.4302680  29.0887810  41.7520120  49.4438000  28.2859940
  45.2956070  51.2642390  25.9411270  45.8121090  50.6529750  25.4159530
  45.9453450  51.7671170  26.4322280  48.0351570  52.1550880  26.7680250
  48.3229380  51.9005180  25.8913260  48.5474790  51.6028240  27.3585820
  53.8049650  36.5964180  25.3925850  54.2457740  36.5409280  24.5447450
  53.5357240  37.5122190  25.4636030  55.6688220  36.2279420  23.4034670
  55.6076620  35.2840640  23.2565690  56.4480250  36.3359510  23.9488130
  39.9740970  52.3671780  22.3658620  39.8063010  51.7342460  23.0640510
  39.1075480  52.5731180  22.0152810  40.5968990  36.1988560  19.8690480
  41.3548350  36.3117440  19.2954510  40.1346160  37.0357760  19.8233910
  47.1382800  38.3127830  22.8592790  46.3257310  37.9384720  22.5188670
  47.6424440  37.5572910  23.1613980  51.6407780  34.9770280  24.0975860
  52.2437150  35.5490490  24.5724380  50.9000770  35.5409720  23.8749760
  54.7842380  35.3791840  19.3716140  54.9793010  36.2775290  19.6383570
  53.9972250  35.1478920  19.8649090  41.5803670  51.0605010  19.8108760
  41.0551290  51.4413040  19.1070720  41.5048250  51.6855780  20.5318470
  42.9694140  36.7252610  18.4092450  43.4986900  35.9382410  18.2800400
  43.6022460  37.4043800  18.6427980  45.1631980  36.4627750  21.4637840
  44.5334720  35.7615060  21.6307970  44.6237120  37.2231880  21.2471000
  48.1023930  53.0766980  34.1348450  49.0291240  52.8411250  34.1784410
  48.0874360  53.9038980  33.6534480  56.3368990  52.6192550  21.1322700
  56.5121180  51.9330290  20.4883620  55.6390560  53.1439600  20.7399370
  44.1796640  53.0087390  18.6858010  44.9115460  52.7246670  18.1381900
  44.4390310  52.7700670  19.5757390  43.3411430  49.1252120  18.6904340
  42.7120310  49.5937220  19.2390170  43.4559260  48.2801340  19.1250530
  51.8903000  35.1565310  34.4770800  51.7768450  35.4759920  35.3722320
  52.7072740  35.5577820  34.1808080  54.6701490  52.3036840  33.9589490
  55.4626810  51.8086070  33.7515450  54.9634640  52.9826980  34.5665100
  50.7961150  43.1757780   4.8405540  50.7155200  42.2612390   4.5697250
  50.3825570  43.6724850   4.1345250  48.9279190  44.9536800   6.7214810
  48.1521290  44.4737240   7.0113380  49.5792120  44.2742450   6.5470970
  42.9445020  45.2656610   7.5990570  42.1129900  45.0105320   7.9987080
  43.5526000  45.3367380   8.3348490  52.9486620  49.3596990   5.5013940
  52.4868150  48.5884230   5.8301110  53.7612170  49.3863060   6.0066390
  42.9246280  49.2996700   7.7948590  43.2274320  48.4094440   7.6158810
  43.6689870  49.8566920   7.5670840  39.3169980  42.8264150   7.2672660
  39.8886090  42.0586350   7.2676300  39.3171520  43.1252910   6.3579270
  49.1749930  51.6455000   5.1217930  48.5561370  52.1012500   4.5512370
  50.0301710  51.8006460   4.7207630  48.3688180  47.6293990   6.7284970
  48.2996460  46.6883930   6.5674100  49.1308040  47.7195400   7.3007540
  40.5594850  38.2348510   9.0541590  40.3797690  37.3374260   9.3344350
  40.1574930  38.7820380   9.7288540  49.3993350  40.4364370   6.9553900
  49.7758170  39.5636250   6.8427570  49.3012860  40.7723070   6.0644340
  43.5298360  38.8090000   2.4171340  43.6365110  39.7093730   2.7240100
  42.6190720  38.7607970   2.1265990  53.1817470  37.9314810   3.8882240
  54.0027090  37.4411380   3.9307720  53.2151550  38.5212470   4.6414080
  41.1781520  40.7309010   7.6623930  41.8591630  40.9947380   8.2811330
  40.8629570  39.8909880   7.9961940  45.3706090  41.7776370   6.7496520
  45.8784310  42.2757340   7.3901540  45.9019330  41.0011570   6.5735880
  57.4717020  39.9481560  10.4525870  56.7669190  40.3363270   9.9340980
  57.7374940  40.6431850  11.0546800  43.6542190  36.4174930  11.0159940
  43.6560630  36.9347320  10.2105840  42.8246500  35.9405110  10.9929870
  50.0413280  46.5294240   2.5149840  49.4230550  46.9943690   1.9512560
  50.5536530  47.2221720   2.9319350  44.9045040  46.0570110   9.1933440
  44.5714420  46.6839030   9.8354510  45.0811720  46.5831990   8.4135110
  53.4178950  39.8715190   6.6609780  52.7134520  40.1600080   7.2412890
  53.7791110  40.6815300   6.3009340  43.3357520  38.1284890   9.0230390
  43.6774330  38.9726940   8.7284260  42.3973330  38.2768630   9.1395730
  44.1164140  48.0250910  11.0082620  44.7338140  48.7001990  10.7267070
  43.2557260  48.4338890  10.9170120  55.0341730  49.4890320   8.9237260
  54.3505250  50.1589430   8.9153930  55.5736020  49.6870970   8.1582120
  56.4865870  39.3169980   7.0518990  55.5390780  39.3508960   7.1834420
  56.8115860  40.1308930   7.4368350  47.0185410  35.6167160   5.3474980
  47.3260390  35.0614050   4.6310480  46.0886110  35.7511620   5.1647970
  52.5700470  51.3334450   7.6382440  52.5827630  50.9296740   6.7704700
  52.0175690  52.1081740   7.5343870  53.8645890  48.0550670   2.7272610
  53.7542220  47.1125000   2.8522030  53.8614140  48.4166310   3.6135370
  51.9685910  46.2364290   8.9665050  52.3854700  46.0224400   8.1318510
  52.6925730  46.4937080   9.5373670  49.4066170  43.6815990   2.0835100
  48.4795450  43.6153370   2.3123570  49.5590990  44.6196120   1.9690340
  55.9148010  44.6351510   9.0581290  55.0866640  44.7044600   8.5831420
  56.5098490  45.2205820   8.5897120  53.4363460  45.2436290   2.5870350
  52.8175880  44.9055840   1.9396650  53.4187910  44.5996050   3.2949540
  52.8790020  41.4220830  10.0036160  52.4661200  42.2474540  10.2576150
  52.1465970  40.8365870   9.8112520  45.0122810  44.2080730   4.8654830
  44.6079810  43.4957980   4.3700730  45.0985930  43.8633970   5.7542870
  45.4804510  47.8948290   7.0294040  45.1832800  47.2893760   6.3501820
  46.4304330  47.9325600   6.9183400  43.7251430  40.9823940   8.6453870
  44.2766020  41.0919280   7.8707120  44.2394940  41.3561540   9.3609100
  53.5690120  51.4680160  10.6917140  53.0920680  52.2752350  10.4989750
  52.8851910  50.8158490  10.8443350  44.5722940  47.6329980  13.6801840
  43.6751470  47.8569950  13.9275240  44.5975810  47.7564920  12.7313240
  43.3994160  44.5043300  12.2559210  43.2601930  45.3766100  12.6246610
  42.5175520  44.1616110  12.1107150  49.7223540  49.4219170   3.5624340
  50.1619450  50.1643500   3.1479730  49.6610430  49.6645740   4.4863300
  45.1974510  50.4465000  14.4644360  45.1689940  50.8507950  13.5972790
  45.0339480  49.5175360  14.3015960  41.7127440  43.1025710   2.3661480
  41.5925040  43.8287800   1.7542750  41.4028330  42.3328620   1.8889390
  57.1489330  51.2292100  15.7608530  57.6249050  51.7074990  16.4397610
  57.7696490  51.1609590  15.0354030  39.3512810  46.2740850   8.1730120
  39.4293230  46.4089620   7.2285840  39.9654490  45.5656740   8.3658240
  40.5960440  47.9741040   4.5836300  40.1888520  48.1155630   3.7289900
  41.4873450  47.6901200   4.3807510  56.5522580  48.4204950  12.9208540
  56.6785640  48.1816830  12.0025720  56.5943960  47.5889490  13.3930620
  50.4139320  52.1232950  11.4903350  50.9283990  52.0340960  12.2925780
  49.5708400  52.4692650  11.7831260  44.8682100  52.1886820   2.6958970
  44.6924580  51.2722360   2.4826770  44.0137840  52.5474110   2.9356770
  51.6569780  51.5438560   3.5533840  52.1126730  50.7627940   3.8672460
  51.9962300  52.2545380   4.0975020  56.4046590  40.4737410  13.8858280
  55.7890860  40.9817080  13.3573740  56.0843010  39.5735740  13.8284220
  39.4072330  47.3155020  10.7124580  39.5703370  46.8460380   9.8943950
  39.8724780  46.8078580  11.3773420  44.1791100  36.4460780   5.7485150
  43.7359250  37.2270320   5.4169670  44.7376090  36.7690670   6.4556090
  48.4660910  39.3129300  11.3520470  48.0040280  39.5212320  12.1640410
  48.0639020  38.4988650  11.0491140  53.4665420  40.5338250  12.4817130
  52.6159010  40.2344000  12.8026200  53.3067210  40.7780260  11.5700950
  50.5615130  42.0340000  14.5815920  50.8868540  41.2003750  14.2418150
  51.3495460  42.5568520  14.7294250  46.2167000  36.9908110   7.6074750
  46.5139330  37.8970940   7.5266770  46.7652560  36.5026890   6.9934320
  43.9705320  41.5694350   3.4766400  43.7446240  41.3531520   4.3813020
  43.1897850  42.0022810   3.1312370  51.2003080  41.5757720   2.0757050
  50.6011970  42.2993520   1.8920670  51.7482690  41.5134500   1.2933500
  46.4104530  42.4679930  14.1426670  46.3148130  41.5274660  13.9927070
  47.2536510  42.6895000  13.7474740  49.8067950  40.2121260   4.1060330
  50.1997520  40.5293460   3.2929020  50.1684800  39.3333140   4.2204850
  41.5415070  38.8793600  12.2960450  41.1478460  39.7268810  12.5033230
  40.8533470  38.2419970  12.4869090  48.1160120  38.9628570  15.3657190
  47.4258440  38.7700770  16.0003280  48.8592420  39.2463210  15.8981490
  38.8432120  36.8022060   6.3290530  38.5545170  37.3724920   7.0415510
  39.5877880  36.3226510   6.6921760  50.3923090  42.8027010   8.2011110
  49.6604210  43.3113820   8.5501210  49.9947430  41.9856990   7.8999890
  46.8300480  39.4781210   6.6063600  46.8336540  39.0371160   5.7568140
  47.7251600  39.7998540   6.7135420  42.6802860  39.3607700   5.5657810
  42.3402910  39.8382930   6.3224860  41.9180180  38.9072820   5.2058910
  50.8549000  38.2560690   7.6134050  50.8721740  38.7069340   8.4575900
  50.6064580  37.3566330   7.8267490  54.2819750  35.6692870  13.4520430
  54.6065520  34.9382530  13.9778410  54.3176260  35.3506510  12.5501420
  40.9811310  46.6906450  12.8720390  40.5966100  46.0500120  13.4703350
  41.2923500  47.3942570  13.4415120  47.1308450  43.5382990   8.3529010
  47.4978580  43.0641560   9.0990350  46.9413510  44.4124560   8.6937350
  39.9948940  38.2826680   4.4822480  39.7095860  37.9182350   5.3201100
  39.9327800  37.5507140   3.8685620  44.9207820  42.5791630  10.6713220
  44.6164890  43.4583610  10.8963580  45.8754280  42.6391420  10.7070660
  54.2077590  45.7817980   7.0606460  54.9276710  46.2773270   6.6702570
  54.0059410  45.1035870   6.4160330  49.5896390  45.8527040  12.9475460
  49.5233700  44.9322710  12.6933050  48.9601530  45.9502480  13.6620100
  43.4927010  46.4533000   4.9058880  44.0105680  45.6501260   4.8515770
  43.0411030  46.3912140   5.7475710  40.9771550  43.4194370  11.8184580
  40.6186490  44.0848220  12.4057920  40.6826110  42.5877920  12.1897200
  44.1784670  43.8778610  14.7024130  43.8784810  44.0235790  13.8051950
  44.9495910  43.3183900  14.6097520  49.5213120  48.6747610  12.6979260
  49.5357660  47.7428570  12.4798170  48.8138220  48.7607370  13.3369030
  55.7324330  45.3154950  12.0447840  55.0072520  45.9083730  11.8477230
  56.2599790  45.3078490  11.2461210  51.2623920  47.0415120   5.5431690
  51.6147740  46.4443250   4.8833060  50.3786250  46.7159350   5.7139940
  47.3487200  47.8012810   2.9502100  48.0358330  48.3482020   3.3309690
  46.5619620  48.3453540   2.9851710  46.6514410  44.8058840   2.5627460
  47.1077190  45.6164090   2.7887650  46.3002620  44.4881980   3.3945950
  48.9547020  50.3165180   9.7919760  49.5989240  50.5224560  10.4693180
  49.3176460  49.5553580   9.3390610  42.5526190  35.1496490   3.0349980
  42.4240820  35.1414390   3.9834900  41.7288210  35.4879580   2.6840990
  50.2279100  48.3197530   8.5097210  50.8701330  47.6190690   8.6229380
  50.7528450  49.0995970   8.3294100  52.0016720  49.1192430  11.7133270
  52.3372960  49.7059120  12.3911190  51.0817060  48.9885140  11.9431060
  39.5520120  36.9087610  12.4956680  38.8378640  37.1084530  13.1009290
  39.9715160  36.1327180  12.8671480  39.8392710  50.8967870  13.4823210
  39.9483830  49.9562610  13.3418600  39.1873270  51.1622620  12.8336940
  47.8305300  49.1683760  14.8821330  47.5102170  48.4493000  15.4267020
  47.1563660  49.8438830  14.9557390  51.0458900  39.4009920  10.2458130
  51.4139720  38.5805130  10.5737700  50.1857100  39.4611810  10.6613780
  46.3804960  40.6352810   2.4703570  45.6721110  41.1039150   2.9117180
  46.6649440  39.9774820   3.1048760  48.0060890  42.0549510  10.4696100
  48.5046140  42.5295330  11.1347950  48.1483840  41.1313030  10.6766130
  50.4120390  37.3603470   3.9099360  50.2888170  37.3789600   2.9608870
  51.3604950  37.4082410   4.0297760  47.4997180  52.5958770   3.1827340
  47.7538680  52.5580160   2.2606710  46.5509660  52.4692100   3.1755590
  55.2127750  38.2717470  11.3124490  54.7101350  39.0122870  11.6518300
  56.0284410  38.6601470  10.9961280  53.5049760  43.5150650   4.7585850
  52.5639900  43.5300880   4.9333540  53.8193830  42.7286610   5.2046150
  55.5075340  50.6859500   6.4340110  55.6322760  51.5090670   6.9063920
  56.3740900  50.4750230   6.0864260  42.9792870  52.7790710   6.1057240
  43.7155350  52.2306170   6.3765810  43.3633790  53.6446720   5.9663230
  39.8638350  48.8464280   1.9798750  38.9378130  49.0885420   1.9704160
  40.3294780  49.6738540   1.8583500  41.9851150  51.9636780  15.2942820
  42.7863880  52.2848830  15.7078220  41.4702970  51.6032360  16.0162730
  50.8215780  48.0716650  15.2418230  50.2153940  48.0948250  14.5013980
  50.5169890  47.3399690  15.7785480  52.2516150  51.7996940  13.8527640
  53.2037900  51.7154960  13.8027880  52.1044370  52.4638650  14.5261430
  39.7048960  44.4510240  14.2378870  40.2087980  43.8717520  14.8095100
  38.9656380  44.7350470  14.7755240  46.7586900  45.8581230  13.7714390
  45.9932570  46.4266230  13.6869060  46.9402860  45.5657440  12.8782620
  53.9010250  47.5886560  14.3289410  54.6419720  47.9262320  13.8256870
  53.1382930  47.7578620  13.7759180  41.7372040  42.5939830  15.1328940
  41.7777380  42.2953700  16.0414170  42.5917540  42.9947440  14.9736460
  43.6777850  41.1731930  13.1003430  43.1474310  40.6822880  12.4726770
  44.3465920  41.6016130  12.5661360  52.5755910  45.6401390  12.8644620
  52.9896930  45.7946470  13.7135040  51.6406910  45.7656610  13.0270400
  53.0478080  42.9797550  14.8683770  53.6298850  42.2249870  14.7804250
  53.2239850  43.5104990  14.0915250  44.1650150  38.1394300  13.1800720
  44.0707020  37.5215050  12.4551590  43.5847540  38.8660590  12.9530630
  46.9311590  36.6967540  10.2128110  46.4828890  36.7191800   9.3673660
  46.2976790  36.2986560  10.8098410  47.3371140  45.5921870  10.8340550
  47.7559250  46.4354600  10.6616790  46.4179770  45.7293910  10.6047330
  49.6735040  43.3238050  12.2178390  49.7931250  42.7279190  12.9573230
  50.5329040  43.3607740  11.7979690  52.0122940  43.8775240  10.7940900
  51.4858160  44.4017860  10.1906040  52.3554280  44.5102630  11.4250630
  45.1878560  51.8974880  11.9498280  44.6499650  52.6220940  11.6306980
  45.4412520  51.4205220  11.1595620  46.4403810  39.8659400  13.4754210
  47.0303500  39.5575250  14.1632030  45.6224050  39.3939150  13.6314110
  51.2597240  39.4825210  13.7087230  50.5712760  38.8206750  13.6437220
  51.9803260  39.0363480  14.1535690  48.0440770  53.1326090  12.2084930
  47.9699470  54.0361230  12.5157300  47.1419610  52.8137990  12.1807000
  39.4468060  50.4600680   5.5118550  39.7771070  49.5921740   5.2797190
  39.8759060  50.6659200   6.3423510  44.0429980  48.7909690   3.1720520
  43.7425520  48.6674660   4.0724430  43.9367470  47.9318280   2.7636250
  39.9358270  51.3271270   8.2500180  39.4989260  51.5072070   9.0824330
  40.5035950  52.0845890   8.1081900  55.5720450  50.8288270  12.5377490
  54.9722440  50.8880830  11.7941410  55.7014350  49.8893250  12.6674340
  39.7682700  43.8391500   4.6089060  39.1131540  43.5703140   3.9648760
  40.6060650  43.7295980   4.1591040  57.2738330  46.1703670   5.2223330
  57.6447160  45.3870990   4.8159300  57.9140260  46.8592770   5.0440630
  54.2572090  47.5540250  10.6353650  53.4431930  47.9837410  10.8979440
  54.6646290  48.1658660  10.0222700  56.2162870  43.5456930   2.5283350
  55.8406470  42.7784860   2.0964640  55.4865990  43.9279630   3.0158280
  40.8058630  44.2244070   9.1492400  41.1731670  44.1371470  10.0288420
  40.2369450  43.4610620   9.0499260  55.6062490  42.6928450  12.1622870
  55.3748580  42.4641200  11.2620820  55.8667040  43.6128000  12.1167760
  40.3574630  41.1353160  13.0550820  39.4630680  41.1019920  13.3944530
  40.8972180  41.3339950  13.8202070  54.0450560  37.9184880  14.9402570
  54.9220740  37.9268280  15.3236570  54.0571400  37.1815720  14.3294920
  55.4913830  41.7714420   5.8290590  56.0151310  41.2777070   5.1980760
  56.0773250  41.9064780   6.5738160  55.6703550  41.8554290   9.3510140
  54.7206260  41.8217830   9.4655130  55.8516560  42.7654400   9.1159910
  54.9813800  41.0287770   1.7683000  55.4772920  40.7958640   2.5531880
  54.7829870  40.1899610   1.3520640  40.8614340  35.4101490   7.4034040
  41.5090530  34.8598870   6.9629200  41.2816180  35.6644640   8.2249850
  56.4100960  39.6648720   4.3020680  56.3000240  39.5104760   5.2402950
  57.1708550  39.1369660   4.0596090  54.7566680  35.6042850  10.7603680
  55.3938900  36.2176990  11.1262870  54.9041570  35.6403510   9.8152910
  54.3148140  52.3058850   4.1621920  54.9107210  51.9843420   3.4856340
  54.5726290  51.8330670   4.9535190  40.6146340  35.5657160  10.1459360
  40.2661160  36.0220980  10.9117540  40.2834040  34.6714290  10.2281790
  42.2210710  48.7376760  14.3112550  42.1780340  48.3669670  15.1927010
  42.3521720  49.6754330  14.4514370  45.9216740  50.2936350   9.9122270
  45.6808100  50.5610910   9.0252790  46.8619380  50.4642080   9.9673130
  48.1271160  36.7569040  13.6678780  48.0660050  37.3490870  14.4174190
  49.0671540  36.6495000  13.5229040  50.7645720  36.4139100  13.3071070
  51.3786130  36.7318390  12.6452150  51.3095280  35.9287690  13.9266930
  57.1820900  52.3130730  10.7132910  56.6879180  52.7099600   9.9960040
  56.5734190  51.6879940  11.1070190  41.2866980  35.0933360  13.4210130
  41.8349970  34.9121410  12.6576240  41.3522290  34.3027470  13.9566440
  42.0598740  51.6839010  11.4310330  41.4659060  51.5523710  12.1700370
  42.0522580  50.8477150  10.9652430  51.5053760  34.9771240   9.6340360
  50.6313600  35.3106350   9.4313290  51.3964510  34.5044420  10.4592230
  52.4125740  37.1842110  11.0182080  52.0839100  36.3693870  10.6383810
  53.3608040  37.1411920  10.8947770  54.8660350  52.9554150   7.9919650
  54.4063320  53.7069960   7.6177670  54.2372810  52.2360620   7.9334450
  41.6910970  49.0497390  10.3818370  40.9645030  48.4302680  10.3144320
  41.7520120  49.4438000   9.5116450  45.2956070  51.2642390   7.1667780
  45.8121090  50.6529750   6.6416040  45.9453450  51.7671170   7.6578790
  48.0351570  52.1550880   7.9936760  48.3229380  51.9005180   7.1169770
  48.5474790  51.6028240   8.5842330  49.2528580  35.8941080   8.5733270
  48.4700370  36.3686580   8.8530030  48.9591510  34.9895910   8.4646450
  53.8049650  36.5964180   6.6182360  54.2457740  36.5409280   5.7703960
  53.5357240  37.5122190   6.6892540  55.6688220  36.2279420   4.6291180
  55.6076620  35.2840640   4.4822200  56.4480250  36.3359510   5.1744640
  39.9740970  52.3671780   3.5915130  39.8063010  51.7342460   4.2897020
  39.1075480  52.5731180   3.2409320  47.1382800  38.3127830   4.0849300
  46.3257310  37.9384720   3.7445180  47.6424440  37.5572910   4.3870490
  51.6407780  34.9770280   5.3232370  52.2437150  35.5490490   5.7980890
  50.9000770  35.5409720   5.1006270  45.1631980  36.4627750   2.6894350
  44.5334720  35.7615060   2.8564480  44.6237120  37.2231880   2.4727510
  48.1023930  53.0766980  15.3604960  49.0291240  52.8411250  15.4040920
  48.0874360  53.9038980  14.8790990  56.3368990  52.6192550   2.3579210
  56.5121180  51.9330290   1.7140130  55.6390560  53.1439600   1.9655880
  45.2887540  35.7411730  15.1246840  45.0071810  36.2445330  14.3607660
  45.6707240  34.9433480  14.7588970  51.8903000  35.1565310  15.7027310
  51.7768450  35.4759920  16.5978830  52.7072740  35.5577820  15.4064590
  54.6701490  52.3036840  15.1846000  55.4626810  51.8086070  14.9771960
  54.9634640  52.9826980  15.7921610  50.7961150  24.4014290  61.1636010
  50.7155200  23.4868900  60.8927720  50.3825570  24.8981360  60.4575720
  48.9279190  26.1793310  63.0445280  48.1521290  25.6993750  63.3343850
  49.5792120  25.4998960  62.8701440  42.9445020  26.4913120  63.9221040
  42.1129900  26.2361830  64.3217550  43.5526000  26.5623890  64.6578960
  52.9486620  30.5853500  61.8244410  52.4868150  29.8140740  62.1531580
  53.7612170  30.6119570  62.3296860  42.9246280  30.5253210  64.1179060
  43.2274320  29.6350950  63.9389280  43.6689870  31.0823430  63.8901310
  41.3536970  21.4515010  57.7063430  40.4653670  21.7930980  57.6043310
  41.6378160  21.2515330  56.8144260  39.3169980  24.0520660  63.5903130
  39.8886090  23.2842860  63.5906770  39.3171520  24.3509420  62.6809740
  49.1749930  32.8711510  61.4448400  48.5561370  33.3269010  60.8742840
  50.0301710  33.0262970  61.0438100  48.3688180  28.8550500  63.0515440
  48.2996460  27.9140440  62.8904570  49.1308040  28.9451910  63.6238010
  40.5594850  19.4605020  65.3772060  40.3797690  18.5630770  65.6574820
  40.1574930  20.0076890  66.0519010  49.3993350  21.6620880  63.2784370
  49.7758170  20.7892760  63.1658040  49.3012860  21.9979580  62.3874810
  43.5298360  20.0346510  58.7401810  43.6365110  20.9350240  59.0470570
  42.6190720  19.9864480  58.4496460  53.1817470  19.1571320  60.2112710
  54.0027090  18.6667890  60.2538190  53.2151550  19.7468980  60.9644550
  41.1781520  21.9565520  63.9854400  41.8591630  22.2203890  64.6041800
  40.8629570  21.1166390  64.3192410  45.3706090  23.0032880  63.0726990
  45.8784310  23.5013850  63.7132010  45.9019330  22.2268080  62.8966350
  57.4717020  21.1738070  66.7756340  56.7669190  21.5619780  66.2571450
  57.7374940  21.8688360  67.3777270  43.6542190  17.6431440  67.3390410
  43.6560630  18.1603830  66.5336310  42.8246500  17.1661620  67.3160340
  50.0413280  27.7550750  58.8380310  49.4230550  28.2200200  58.2743030
  50.5536530  28.4478230  59.2549820  44.9045040  27.2826620  65.5163910
  44.5714420  27.9095540  66.1584980  45.0811720  27.8088500  64.7365580
  53.4178950  21.0971700  62.9840250  52.7134520  21.3856590  63.5643360
  53.7791110  21.9071810  62.6239810  43.3357520  19.3541400  65.3460860
  43.6774330  20.1983450  65.0514730  42.3973330  19.5025140  65.4626200
  44.1164140  29.2507420  67.3313090  44.7338140  29.9258500  67.0497540
  43.2557260  29.6595400  67.2400590  39.4096480  28.4407280  56.2119940
  39.0324460  28.9294380  55.4804840  39.6669550  29.1132560  56.8426470
  55.0341730  30.7146830  65.2467730  54.3505250  31.3845940  65.2384400
  55.5736020  30.9127480  64.4812590  56.4865870  20.5426490  63.3749460
  55.5390780  20.5765470  63.5064890  56.8115860  21.3565440  63.7598820
  47.0185410  16.8423670  61.6705450  47.3260390  16.2870560  60.9540950
  46.0886110  16.9768130  61.4878440  52.5700470  32.5590960  63.9612910
  52.5827630  32.1553250  63.0935170  52.0175690  33.3338250  63.8574340
  53.8645890  29.2807180  59.0503080  53.7542220  28.3381510  59.1752500
  53.8614140  29.6422820  59.9365840  51.9685910  27.4620800  65.2895520
  52.3854700  27.2480910  64.4548980  52.6925730  27.7193590  65.8604140
  49.4066170  24.9072500  58.4065570  48.4795450  24.8409880  58.6354040
  49.5590990  25.8452630  58.2920810  49.3935250  21.1789500  55.4032730
  48.4538920  21.3403460  55.4885190  49.7118510  21.8975180  54.8568720
  55.9148010  25.8608020  65.3811760  55.0866640  25.9301110  64.9061890
  56.5098490  26.4462330  64.9127590  53.4363460  26.4692800  58.9100820
  52.8175880  26.1312350  58.2627120  53.4187910  25.8252560  59.6180010
  52.8790020  22.6477340  66.3266630  52.4661200  23.4731050  66.5806620
  52.1465970  22.0622380  66.1342990  45.0122810  25.4337240  61.1885300
  44.6079810  24.7214490  60.6931200  45.0985930  25.0890480  62.0773340
  45.4804510  29.1204800  63.3524510  45.1832800  28.5150270  62.6732290
  46.4304330  29.1582110  63.2413870  43.7251430  22.2080450  64.9684340
  44.2766020  22.3175790  64.1937590  44.2394940  22.5818050  65.6839570
  53.5690120  32.6936670  67.0147610  53.0920680  33.5008860  66.8220220
  52.8851910  32.0415000  67.1673820  51.6128160  25.7079610  55.9173570
  52.0521440  24.8702040  55.7711390  52.3256580  26.3409010  56.0037710
  49.7223540  30.6475680  59.8854810  50.1619450  31.3900010  59.4710200
  49.6610430  30.8902250  60.8093770  55.1945300  16.9622420  54.2314610
  54.8817960  17.0549250  55.1313680  55.9557770  17.5403450  54.1812040
  41.7127440  24.3282220  58.6891950  41.5925040  25.0544310  58.0773220
  41.4028330  23.5585130  58.2119860  39.3512810  27.4997360  64.4960590
  39.4293230  27.6346130  63.5516310  39.9654490  26.7913250  64.6888710
  40.5960440  29.1997550  60.9066770  40.1888520  29.3412140  60.0520370
  41.4873450  28.9157710  60.7037980  52.3893720  33.6344800  57.2417820
  52.2294860  33.3447740  58.1399650  52.2240430  32.8584930  56.7063050
  44.8682100  33.4143330  59.0189440  44.6924580  32.4978870  58.8057240
  44.0137840  33.7730620  59.2587240  52.0919850  31.1432360  55.8015820
  51.3985010  31.1409650  55.1418100  52.8342710  30.7191680  55.3709990
  51.6569780  32.7695070  59.8764310  52.1126730  31.9884450  60.1902930
  51.9962300  33.4801890  60.4205490  39.4072330  28.5411530  67.0355050
  39.5703370  28.0716890  66.2174420  39.8724780  28.0335090  67.7003890
  44.1791100  17.6717290  62.0715620  43.7359250  18.4526830  61.7400140
  44.7376090  17.9947180  62.7786560  47.2949920  17.2927990  56.9521450
  46.6704100  17.2887860  57.6774760  47.2080040  16.4258950  56.5557420
  46.2167000  18.2164620  63.9305220  46.5139330  19.1227450  63.8497240
  46.7652560  17.7283400  63.3164790  43.9705320  22.7950860  59.7996870
  43.7446240  22.5788030  60.7043490  43.1897850  23.2279320  59.4542840
  51.2003080  22.8014230  58.3987520  50.6011970  23.5250030  58.2151140
  51.7482690  22.7391010  57.6163970  49.8067950  21.4377770  60.4290800
  50.1997520  21.7549970  59.6159490  50.1684800  20.5589650  60.5435320
  38.8432120  18.0278570  62.6521000  38.5545170  18.5981430  63.3645980
  39.5877880  17.5483020  63.0152230  39.0302350  21.9698690  53.8623720
  38.9477020  22.9129450  54.0038710  38.6785410  21.8273600  52.9836070
  50.3923090  24.0283520  64.5241580  49.6604210  24.5370330  64.8731680
  49.9947430  23.2113500  64.2230360  46.8300480  20.7037720  62.9294070
  46.8336540  20.2627670  62.0798610  47.7251600  21.0255050  63.0365890
  42.6802860  20.5864210  61.8888280  42.3402910  21.0639440  62.6455330
  41.9180180  20.1329330  61.5289380  46.8920630  21.7049800  55.9200830
  47.0133450  21.6636280  56.8686650  46.5069140  22.5673950  55.7647560
  50.8549000  19.4817200  63.9364520  50.8721740  19.9325850  64.7806370
  50.6064580  18.5822840  64.1497960  45.9042130  24.0150940  55.3184130
  45.3359030  23.5669190  54.6920040  46.6131130  24.3743720  54.7849280
  47.1308450  24.7639500  64.6759480  47.4978580  24.2898070  65.4220820
  46.9413510  25.6381070  65.0167820  39.9948940  19.5083190  60.8052950
  39.7095860  19.1438860  61.6431570  39.9327800  18.7763650  60.1916090
  44.9207820  23.8048140  66.9943690  44.6164890  24.6840120  67.2194050
  45.8754280  23.8647930  67.0301130  43.4489610  28.0109130  57.5910540
  42.6751870  27.4706750  57.4309260  44.1784240  27.4915740  57.2528300
  54.2077590  27.0074490  63.3836930  54.9276710  27.5029780  62.9933040
  54.0059410  26.3292380  62.7390800  49.6687530  18.4012450  57.5266320
  48.8552140  17.9025620  57.4511630  49.4749480  19.2410700  57.1102670
  52.3835920  22.7732100  55.8228480  53.2715540  23.0849330  55.6479820
  52.3541010  21.9004350  55.4309060  43.4927010  27.6789510  61.2289350
  44.0105680  26.8757770  61.1746240  43.0411030  27.6168650  62.0706180
  48.3796510  28.9455790  56.5016650  48.7212210  29.6898020  56.0059970
  47.5509220  29.2586910  56.8641480  54.6550190  24.0843940  55.2908340
  54.5713910  24.5158160  54.4404780  55.3744380  24.5442290  55.7235160
  55.6837440  30.9386200  58.0190470  55.0413600  30.2841820  58.2934190
  55.2968100  31.3441290  57.2431140  51.2623920  28.2671630  61.8662160
  51.6147740  27.6699760  61.2063530  50.3786250  27.9415860  62.0370410
  47.3487200  29.0269320  59.2732570  48.0358330  29.5738530  59.6540160
  46.5619620  29.5710050  59.3082180  39.4879600  24.6442140  54.7649650
  40.3574450  24.9266940  55.0485570  38.9969920  25.4578010  54.6498460
  46.6514410  26.0315350  58.8857930  47.1077190  26.8420600  59.1118120
  46.3002620  25.7138490  59.7176420  48.9547020  31.5421690  66.1150230
  49.5989240  31.7481070  66.7923650  49.3176460  30.7810090  65.6621080
  42.5526190  16.3753000  59.3580450  42.4240820  16.3670900  60.3065370
  41.7288210  16.7136090  59.0071460  50.2279100  29.5454040  64.8327680
  50.8701330  28.8447200  64.9459850  50.7528450  30.3252480  64.6524570
  54.0734820  29.8302660  54.5566820  53.8472400  29.1133100  55.1491460
  53.6831020  29.5815100  53.7188570  39.8550850  33.8569520  55.3311280
  40.2148490  34.4558860  54.6768550  39.7143190  34.4029410  56.1046310
  53.6551070  27.7474600  56.2180980  53.3672770  28.2087290  57.0058860
  54.4503240  27.2872370  56.4865200  45.8719470  31.2400720  56.1484950
  45.8629570  31.9730410  55.5329460  44.9517830  30.9932300  56.2411910
  41.4726110  26.4615610  56.8931710  40.8654060  27.2014510  56.9027010
  41.9475460  26.5514970  56.0669910  51.0458900  20.6266430  66.5688600
  51.4139720  19.8061640  66.8968170  50.1857100  20.6868320  66.9844250
  54.4120930  19.5823370  57.3776160  53.7834090  19.6869040  56.6634390
  53.9172850  19.8020150  58.1670040  48.8579070  31.3028960  54.8110140
  48.9591050  31.0992950  53.8812120  47.9580810  31.0487240  55.0157920
  46.3804960  21.8609320  58.7934040  45.6721110  22.3295660  59.2347650
  46.6649440  21.2031330  59.4279230  48.0060890  23.2806020  66.7926570
  48.5046140  23.7551840  67.4578420  48.1483840  22.3569540  66.9996600
  50.4120390  18.5859980  60.2329830  50.2888170  18.6046110  59.2839340
  51.3604950  18.6338920  60.3528230  47.4997180  33.8215280  59.5057810
  47.7538680  33.7836670  58.5837180  46.5509660  33.6948610  59.4986060
  44.5839980  20.1694400  56.1684750  45.4330510  20.6064550  56.1024940
  44.2171250  20.4814660  56.9956810  55.2127750  19.4973980  67.6354960
  54.7101350  20.2379380  67.9748770  56.0284410  19.8857980  67.3191750
  53.5049760  24.7407160  61.0816320  52.5639900  24.7557390  61.2564010
  53.8193830  23.9543120  61.5276620  43.4831400  26.4226760  54.6420280
  44.2494670  26.3108120  55.2045710  43.5606090  25.7264730  53.9897050
  42.1778160  23.8551830  55.3253170  42.2581750  22.9079340  55.4370570
  43.0697910  24.1858710  55.4313830  55.5075340  31.9116010  62.7570580
  55.6322760  32.7347180  63.2294390  56.3740900  31.7006740  62.4094730
  42.9792870  34.0047220  62.4287710  43.7155350  33.4562680  62.6996280
  43.3633790  34.8703230  62.2893700  39.8638350  30.0720790  58.3029220
  38.9378130  30.3141930  58.2934630  40.3294780  30.8995050  58.1813970
  46.0895180  33.1777530  54.2513280  46.8823790  33.4666360  53.7995070
  45.5699530  32.7469700  53.5725760  55.1425350  32.4047660  55.6750020
  54.8566860  31.9912800  54.8604200  54.9444900  33.3335370  55.5550540
  46.6072580  28.3980940  54.1155630  46.5023220  27.7833290  54.8417010
  46.4396800  27.8746830  53.3318640  49.8475310  27.4600970  54.7197620
  49.2985410  27.9070270  55.3640360  50.4694570  26.9550220  55.2435290
  45.5150430  26.4191890  56.6162920  45.9366850  26.2531760  57.4594310
  45.6401270  25.6092120  56.1218060  48.0278070  25.4429500  53.8640020
  48.5483730  24.7278520  53.4981170  48.6746470  26.0815370  54.1640530
  46.9311590  17.9224050  66.5358580  46.4828890  17.9448310  65.6904130
  46.2976790  17.5243070  67.1328880  47.3371140  26.8178380  67.1571020
  47.7559250  27.6611110  66.9847260  46.4179770  26.9550420  66.9277800
  52.0122940  25.1031750  67.1171370  51.4858160  25.6274370  66.5136510
  52.3554280  25.7359140  67.7481100  44.4109330  22.4925120  53.5621080
  44.2098390  21.6292480  53.9234420  44.2401380  22.4058480  52.6242680
  51.8897640  17.3033350  56.0907960  52.1699930  16.4601250  56.4467380
  51.1163370  17.5356460  56.6046710  43.2092130  19.5925740  53.5498960
  43.5118030  19.5993170  52.6418110  43.9486720  19.2423600  54.0466620
  46.4277060  18.5360360  54.5355160  46.0799060  17.8584350  53.9557610
  46.6289830  18.0749870  55.3498550  48.5926100  33.5241110  56.1541760
  49.4876890  33.8626080  56.1760520  48.6243730  32.8020520  55.5266040
  42.2322260  28.8968160  54.3828760  42.6697130  29.4397830  55.0386340
  42.7169990  28.0715110  54.3925100  39.4468060  31.6857190  61.8349020
  39.7771070  30.8178250  61.6027660  39.8759060  31.8915710  62.6653980
  44.0429980  30.0166200  59.4950990  43.7425520  29.8931170  60.3954900
  43.9367470  29.1574790  59.0866720  39.9358270  32.5527780  64.5730650
  39.4989260  32.7328580  65.4054800  40.5035950  33.3102400  64.4312370
  56.8121900  29.7962600  54.1977670  55.9814860  29.8639250  54.6684900
  56.9893730  30.6866720  53.8944530  56.2678360  26.5410080  56.7011870
  57.0297270  27.1106730  56.8071560  56.2832730  25.9737280  57.4720180
  39.7682700  25.0648010  60.9319530  39.1131540  24.7959650  60.2879230
  40.6060650  24.9552490  60.4821510  57.2738330  27.3960180  61.5453800
  57.6447160  26.6127500  61.1389770  57.9140260  28.0849280  61.3671100
  54.2572090  28.7796760  66.9584120  53.4431930  29.2093920  67.2209910
  54.6646290  29.3915170  66.3453170  56.3197530  26.8344450  53.8584390
  56.5946370  27.7423330  53.7303610  56.1308270  26.7706980  54.7946380
  52.7173140  19.8589300  55.1538020  53.1358020  19.6720280  54.3134680
  52.4109200  19.0068350  55.4640950  56.2162870  24.7713440  58.8513820
  55.8406470  24.0041370  58.4195110  55.4865990  25.1536140  59.3388750
  40.8058630  25.4500580  65.4722870  41.1731670  25.3627980  66.3518890
  40.2369450  24.6867130  65.3729730  38.9820780  22.2746940  56.8744860
  38.0784860  22.5377140  56.6996520  39.4661400  22.5458110  56.0944820
  55.4913830  22.9970930  62.1521060  56.0151310  22.5033580  61.5211230
  56.0773250  23.1321290  62.8968630  55.6703550  23.0810800  65.6740610
  54.7206260  23.0474340  65.7885600  55.8516560  23.9910910  65.4390380
  41.5247990  21.3312480  54.7839240  42.2339690  20.9095700  54.2986520
  40.8087930  21.3987710  54.1522590  41.1722150  17.3851810  53.8241890
  41.8950280  17.9260750  54.1423110  41.4446670  17.1115230  52.9483430
  54.9813800  22.2544280  58.0913470  55.4772920  22.0215150  58.8762350
  54.7829870  21.4156120  57.6751110  40.8614340  16.6358000  63.7264510
  41.5090530  16.0855380  63.2859670  41.2816180  16.8901150  64.5480320
  56.4100960  20.8905230  60.6251150  56.3000240  20.7361270  61.5633420
  57.1708550  20.3626170  60.3826560  54.7566680  16.8299360  67.0834150
  55.3938900  17.4433500  67.4493340  54.9041570  16.8660020  66.1383380
  57.2991230  18.7213150  53.8657290  58.2240540  18.5894330  53.6575580
  57.2767020  18.8005970  54.8193740  57.3729720  19.4923810  56.4914000
  56.5781220  19.4268930  57.0206910  57.5773000  20.4274450  56.4799350
  54.3148140  33.5315360  60.4852390  54.9107210  33.2099930  59.8086810
  54.5726290  33.0587180  61.2765660  40.6146340  16.7913670  66.4689830
  40.2661160  17.2477490  67.2348010  40.2834040  15.8970800  66.5512260
  45.9216740  31.5192860  66.2352740  45.6808100  31.7867420  65.3483260
  46.8619380  31.6898590  66.2903600  57.1820900  33.5387240  67.0363380
  56.6879180  33.9356110  66.3190510  56.5734190  32.9136450  67.4300660
  51.5053760  16.2027750  65.9570830  50.6313600  16.5362860  65.7543760
  51.3964510  15.7300930  66.7822700  52.4125740  18.4098620  67.3412550
  52.0839100  17.5950380  66.9614280  53.3608040  18.3668430  67.2178240
  54.8660350  34.1810660  64.3150120  54.4063320  34.9326470  63.9408140
  54.2372810  33.4617130  64.2564920  41.6910970  30.2753900  66.7048840
  40.9645030  29.6559190  66.6374790  41.7520120  30.6694510  65.8346920
  45.2956070  32.4898900  63.4898250  45.8121090  31.8786260  62.9646510
  45.9453450  32.9927680  63.9809260  48.0351570  33.3807390  64.3167230
  48.3229380  33.1261690  63.4400240  48.5474790  32.8284750  64.9072800
  49.2528580  17.1197590  64.8963740  48.4700370  17.5943090  65.1760500
  48.9591510  16.2152420  64.7876920  53.8049650  17.8220690  62.9412830
  54.2457740  17.7665790  62.0934430  53.5357240  18.7378700  63.0123010
  55.6688220  17.4535930  60.9521650  55.6076620  16.5097150  60.8052670
  56.4480250  17.5616020  61.4975110  39.9740970  33.5928290  59.9145600
  39.8063010  32.9598970  60.6127490  39.1075480  33.7987690  59.5639790
  40.5968990  17.4245070  57.4177460  41.3548350  17.5373950  56.8441490
  40.1346160  18.2614270  57.3720890  47.1382800  19.5384340  60.4079770
  46.3257310  19.1641230  60.0675650  47.6424440  18.7829420  60.7100960
  51.6407780  16.2026790  61.6462840  52.2437150  16.7747000  62.1211360
  50.9000770  16.7666230  61.4236740  54.7842380  16.6048350  56.9203120
  54.9793010  17.5031800  57.1870550  53.9972250  16.3735430  57.4136070
  41.5803670  32.2861520  57.3595740  41.0551290  32.6669550  56.6557700
  41.5048250  32.9112290  58.0805450  42.9694140  17.9509120  55.9579430
  43.4986900  17.1638920  55.8287380  43.6022460  18.6300310  56.1914960
  45.1631980  17.6884260  59.0124820  44.5334720  16.9871570  59.1794950
  44.6237120  18.4488390  58.7957980  56.3368990  33.8449060  58.6809680
  56.5121180  33.1586800  58.0370600  55.6390560  34.3696110  58.2886350
  44.1796640  34.2343900  56.2344990  44.9115460  33.9503180  55.6868880
  44.4390310  33.9957180  57.1244370  43.3411430  30.3508630  56.2391320
  42.7120310  30.8193730  56.7877150  43.4559260  29.5057850  56.6737510
  50.7961150  24.4014290  42.3892520  50.7155200  23.4868900  42.1184230
  50.3825570  24.8981360  41.6832230  48.9279190  26.1793310  44.2701790
  48.1521290  25.6993750  44.5600360  49.5792120  25.4998960  44.0957950
  52.9486620  30.5853500  43.0500920  52.4868150  29.8140740  43.3788090
  53.7612170  30.6119570  43.5553370  41.3536970  21.4515010  38.9319940
  40.4653670  21.7930980  38.8299820  41.6378160  21.2515330  38.0400770
  39.3169980  24.0520660  44.8159640  39.8886090  23.2842860  44.8163280
  39.3171520  24.3509420  43.9066250  40.5594850  19.4605020  46.6028570
  40.3797690  18.5630770  46.8831330  40.1574930  20.0076890  47.2775520
  49.3993350  21.6620880  44.5040880  49.7758170  20.7892760  44.3914550
  49.3012860  21.9979580  43.6131320  43.5298360  20.0346510  39.9658320
  43.6365110  20.9350240  40.2727080  42.6190720  19.9864480  39.6752970
  53.1817470  19.1571320  41.4369220  54.0027090  18.6667890  41.4794700
  53.2151550  19.7468980  42.1901060  41.1781520  21.9565520  45.2110910
  41.8591630  22.2203890  45.8298310  40.8629570  21.1166390  45.5448920
  45.3706090  23.0032880  44.2983500  45.8784310  23.5013850  44.9388520
  45.9019330  22.2268080  44.1222860  57.4717020  21.1738070  48.0012850
  56.7669190  21.5619780  47.4827960  57.7374940  21.8688360  48.6033780
  43.6542190  17.6431440  48.5646920  43.6560630  18.1603830  47.7592820
  42.8246500  17.1661620  48.5416850  50.0413280  27.7550750  40.0636820
  49.4230550  28.2200200  39.4999540  50.5536530  28.4478230  40.4806330
  53.4178950  21.0971700  44.2096760  52.7134520  21.3856590  44.7899870
  53.7791110  21.9071810  43.8496320  43.3357520  19.3541400  46.5717370
  43.6774330  20.1983450  46.2771240  42.3973330  19.5025140  46.6882710
  55.0341730  30.7146830  46.4724240  54.3505250  31.3845940  46.4640910
  55.5736020  30.9127480  45.7069100  56.4865870  20.5426490  44.6005970
  55.5390780  20.5765470  44.7321400  56.8115860  21.3565440  44.9855330
  47.0185410  16.8423670  42.8961960  47.3260390  16.2870560  42.1797460
  46.0886110  16.9768130  42.7134950  52.5700470  32.5590960  45.1869420
  52.5827630  32.1553250  44.3191680  52.0175690  33.3338250  45.0830850
  53.8645890  29.2807180  40.2759590  53.7542220  28.3381510  40.4009010
  53.8614140  29.6422820  41.1622350  51.9685910  27.4620800  46.5152030
  52.3854700  27.2480910  45.6805490  52.6925730  27.7193590  47.0860650
  49.4066170  24.9072500  39.6322080  48.4795450  24.8409880  39.8610550
  49.5590990  25.8452630  39.5177320  49.3935250  21.1789500  36.6289240
  48.4538920  21.3403460  36.7141700  49.7118510  21.8975180  36.0825230
  55.9148010  25.8608020  46.6068270  55.0866640  25.9301110  46.1318400
  56.5098490  26.4462330  46.1384100  53.4363460  26.4692800  40.1357330
  52.8175880  26.1312350  39.4883630  53.4187910  25.8252560  40.8436520
  52.8790020  22.6477340  47.5523140  52.4661200  23.4731050  47.8063130
  52.1465970  22.0622380  47.3599500  43.7251430  22.2080450  46.1940850
  44.2766020  22.3175790  45.4194100  44.2394940  22.5818050  46.9096080
  53.5690120  32.6936670  48.2404120  53.0920680  33.5008860  48.0476730
  52.8851910  32.0415000  48.3930330  44.5722940  28.8586490  51.2288820
  43.6751470  29.0826460  51.4762220  44.5975810  28.9821430  50.2800220
  51.6128160  25.7079610  37.1430080  52.0521440  24.8702040  36.9967900
  52.3256580  26.3409010  37.2294220  43.3994160  25.7299810  49.8046190
  43.2601930  26.6022610  50.1733590  42.5175520  25.3872620  49.6594130
  49.7223540  30.6475680  41.1111320  50.1619450  31.3900010  40.6966710
  49.6610430  30.8902250  42.0350280  45.1974510  31.6721510  52.0131340
  45.1689940  32.0764460  51.1459770  45.0339480  30.7431870  51.8502940
  55.1945300  16.9622420  35.4571120  54.8817960  17.0549250  36.3570190
  55.9557770  17.5403450  35.4068550  57.1489330  32.4548610  53.3095510
  57.6249050  32.9331500  53.9884590  57.7696490  32.3866100  52.5841010
  39.3512810  27.4997360  45.7217100  39.4293230  27.6346130  44.7772820
  39.9654490  26.7913250  45.9145220  56.5522580  29.6461460  50.4695520
  56.6785640  29.4073340  49.5512700  56.5943960  28.8146000  50.9417600
  50.4139320  33.3489460  49.0390330  50.9283990  33.2597470  49.8412760
  49.5708400  33.6949160  49.3318240  52.3893720  33.6344800  38.4674330
  52.2294860  33.3447740  39.3656160  52.2240430  32.8584930  37.9319560
  52.0919850  31.1432360  37.0272330  51.3985010  31.1409650  36.3674610
  52.8342710  30.7191680  36.5966500  51.6569780  32.7695070  41.1020820
  52.1126730  31.9884450  41.4159440  51.9962300  33.4801890  41.6462000
  56.4046590  21.6993920  51.4345260  55.7890860  22.2073590  50.9060720
  56.0843010  20.7992250  51.3771200  39.4072330  28.5411530  48.2611560
  39.5703370  28.0716890  47.4430930  39.8724780  28.0335090  48.9260400
  44.1791100  17.6717290  43.2972130  43.7359250  18.4526830  42.9656650
  44.7376090  17.9947180  44.0043070  48.4660910  20.5385810  48.9007450
  48.0040280  20.7468830  49.7127390  48.0639020  19.7245160  48.5978120
  53.4665420  21.7594760  50.0304110  52.6159010  21.4600510  50.3513180
  53.3067210  22.0036770  49.1187930  50.5615130  23.2596510  52.1302900
  50.8868540  22.4260260  51.7905130  51.3495460  23.7825030  52.2781230
  47.2949920  17.2927990  38.1777960  46.6704100  17.2887860  38.9031270
  47.2080040  16.4258950  37.7813930  46.2167000  18.2164620  45.1561730
  46.5139330  19.1227450  45.0753750  46.7652560  17.7283400  44.5421300
  43.9705320  22.7950860  41.0253380  43.7446240  22.5788030  41.9300000
  43.1897850  23.2279320  40.6799350  51.2003080  22.8014230  39.6244030
  50.6011970  23.5250030  39.4407650  51.7482690  22.7391010  38.8420480
  46.4104530  23.6936440  51.6913650  46.3148130  22.7531170  51.5414050
  47.2536510  23.9151510  51.2961720  49.8067950  21.4377770  41.6547310
  50.1997520  21.7549970  40.8416000  50.1684800  20.5589650  41.7691830
  41.5415070  20.1050110  49.8447430  41.1478460  20.9525320  50.0520210
  40.8533470  19.4676480  50.0356070  48.1160120  20.1885080  52.9144170
  47.4258440  19.9957280  53.5490260  48.8592420  20.4719720  53.4468470
  38.8432120  18.0278570  43.8777510  38.5545170  18.5981430  44.5902490
  39.5877880  17.5483020  44.2408740  39.0302350  21.9698690  35.0880230
  38.9477020  22.9129450  35.2295220  38.6785410  21.8273600  34.2092580
  50.3923090  24.0283520  45.7498090  49.6604210  24.5370330  46.0988190
  49.9947430  23.2113500  45.4486870  46.8300480  20.7037720  44.1550580
  46.8336540  20.2627670  43.3055120  47.7251600  21.0255050  44.2622400
  42.6802860  20.5864210  43.1144790  42.3402910  21.0639440  43.8711840
  41.9180180  20.1329330  42.7545890  46.8920630  21.7049800  37.1457340
  47.0133450  21.6636280  38.0943160  46.5069140  22.5673950  36.9904070
  50.8549000  19.4817200  45.1621030  50.8721740  19.9325850  46.0062880
  50.6064580  18.5822840  45.3754470  45.9042130  24.0150940  36.5440640
  45.3359030  23.5669190  35.9176550  46.6131130  24.3743720  36.0105790
  54.2819750  16.8949380  51.0007410  54.6065520  16.1639040  51.5265390
  54.3176260  16.5763020  50.0988400  40.9811310  27.9162960  50.4207370
  40.5966100  27.2756630  51.0190330  41.2923500  28.6199080  50.9902100
  47.1308450  24.7639500  45.9015990  47.4978580  24.2898070  46.6477330
  46.9413510  25.6381070  46.2424330  39.9948940  19.5083190  42.0309460
  39.7095860  19.1438860  42.8688080  39.9327800  18.7763650  41.4172600
  44.9207820  23.8048140  48.2200200  44.6164890  24.6840120  48.4450560
  45.8754280  23.8647930  48.2557640  54.2077590  27.0074490  44.6093440
  54.9276710  27.5029780  44.2189550  54.0059410  26.3292380  43.9647310
  49.6687530  18.4012450  38.7522830  48.8552140  17.9025620  38.6768140
  49.4749480  19.2410700  38.3359180  49.5896390  27.0783550  50.4962440
  49.5233700  26.1579220  50.2420030  48.9601530  27.1758990  51.2107080
  52.3835920  22.7732100  37.0484990  53.2715540  23.0849330  36.8736330
  52.3541010  21.9004350  36.6565570  40.9771550  24.6450880  49.3671560
  40.6186490  25.3104730  49.9544900  40.6826110  23.8134430  49.7384180
  44.1784670  25.1035120  52.2511110  43.8784810  25.2492300  51.3538930
  44.9495910  24.5440410  52.1584500  49.5213120  29.9004120  50.2466240
  49.5357660  28.9685080  50.0285150  48.8138220  29.9863880  50.8856010
  54.6550190  24.0843940  36.5164850  54.5713910  24.5158160  35.6661290
  55.3744380  24.5442290  36.9491670  55.7324330  26.5411460  49.5934820
  55.0072520  27.1340240  49.3964210  56.2599790  26.5335000  48.7948190
  55.6837440  30.9386200  39.2446980  55.0413600  30.2841820  39.5190700
  55.2968100  31.3441290  38.4687650  51.2623920  28.2671630  43.0918670
  51.6147740  27.6699760  42.4320040  50.3786250  27.9415860  43.2626920
  48.9547020  31.5421690  47.3406740  49.5989240  31.7481070  48.0180160
  49.3176460  30.7810090  46.8877590  42.5526190  16.3753000  40.5836960
  42.4240820  16.3670900  41.5321880  41.7288210  16.7136090  40.2327970
  50.2279100  29.5454040  46.0584190  50.8701330  28.8447200  46.1716360
  50.7528450  30.3252480  45.8781080  54.0734820  29.8302660  35.7823330
  53.8472400  29.1133100  36.3747970  53.6831020  29.5815100  34.9445080
  52.0016720  30.3448940  49.2620250  52.3372960  30.9315630  49.9398170
  51.0817060  30.2141650  49.4918040  39.5520120  18.1344120  50.0443660
  38.8378640  18.3341040  50.6496270  39.9715160  17.3583690  50.4158460
  53.6551070  27.7474600  37.4437490  53.3672770  28.2087290  38.2315370
  54.4503240  27.2872370  37.7121710  39.8392710  32.1224380  51.0310190
  39.9483830  31.1819120  50.8905580  39.1873270  32.3879130  50.3823920
  47.8305300  30.3940270  52.4308310  47.5102170  29.6749510  52.9754000
  47.1563660  31.0695340  52.5044370  51.0458900  20.6266430  47.7945110
  51.4139720  19.8061640  48.1224680  50.1857100  20.6868320  48.2100760
  54.4120930  19.5823370  38.6032670  53.7834090  19.6869040  37.8890900
  53.9172850  19.8020150  39.3926550  48.8579070  31.3028960  36.0366650
  48.9591050  31.0992950  35.1068630  47.9580810  31.0487240  36.2414430
  46.3804960  21.8609320  40.0190550  45.6721110  22.3295660  40.4604160
  46.6649440  21.2031330  40.6535740  48.0060890  23.2806020  48.0183080
  48.5046140  23.7551840  48.6834930  48.1483840  22.3569540  48.2253110
  50.4120390  18.5859980  41.4586340  50.2888170  18.6046110  40.5095850
  51.3604950  18.6338920  41.5784740  44.5839980  20.1694400  37.3941260
  45.4330510  20.6064550  37.3281450  44.2171250  20.4814660  38.2213320
  55.2127750  19.4973980  48.8611470  54.7101350  20.2379380  49.2005280
  56.0284410  19.8857980  48.5448260  53.5049760  24.7407160  42.3072830
  52.5639900  24.7557390  42.4820520  53.8193830  23.9543120  42.7533130
  42.1778160  23.8551830  36.5509680  42.2581750  22.9079340  36.6627080
  43.0697910  24.1858710  36.6570340  55.5075340  31.9116010  43.9827090
  55.6322760  32.7347180  44.4550900  56.3740900  31.7006740  43.6351240
  41.9851150  33.1893290  52.8429800  42.7863880  33.5105340  53.2565200
  41.4702970  32.8288870  53.5649710  50.8215780  29.2973160  52.7905210
  50.2153940  29.3204760  52.0500960  50.5169890  28.5656200  53.3272460
  52.2516150  33.0253450  51.4014620  53.2037900  32.9411470  51.3514860
  52.1044370  33.6895160  52.0748410  55.1425350  32.4047660  36.9006530
  54.8566860  31.9912800  36.0860710  54.9444900  33.3335370  36.7807050
  39.7048960  25.6766750  51.7865850  40.2087980  25.0974030  52.3582080
  38.9656380  25.9606980  52.3242220  46.7586900  27.0837740  51.3201370
  45.9932570  27.6522740  51.2356040  46.9402860  26.7913950  50.4269600
  49.8475310  27.4600970  35.9454130  49.2985410  27.9070270  36.5896870
  50.4694570  26.9550220  36.4691800  53.9010250  28.8143070  51.8776390
  54.6419720  29.1518830  51.3743850  53.1382930  28.9835130  51.3246160
  41.7372040  23.8196340  52.6815920  41.7777380  23.5210210  53.5901150
  42.5917540  24.2203950  52.5223440  43.6777850  22.3988440  50.6490410
  43.1474310  21.9079390  50.0213750  44.3465920  22.8272640  50.1148340
  52.5755910  26.8657900  50.4131600  52.9896930  27.0202980  51.2622020
  51.6406910  26.9913120  50.5757380  53.0478080  24.2054060  52.4170750
  53.6298850  23.4506380  52.3291230  53.2239850  24.7361500  51.6402230
  44.1650150  19.3650810  50.7287700  44.0707020  18.7471560  50.0038570
  43.5847540  20.0917100  50.5017610  46.9311590  17.9224050  47.7615090
  46.4828890  17.9448310  46.9160640  46.2976790  17.5243070  48.3585390
  47.3371140  26.8178380  48.3827530  47.7559250  27.6611110  48.2103770
  46.4179770  26.9550420  48.1534310  49.6735040  24.5494560  49.7665370
  49.7931250  23.9535700  50.5060210  50.5329040  24.5864250  49.3466670
  52.0122940  25.1031750  48.3427880  51.4858160  25.6274370  47.7393020
  52.3554280  25.7359140  48.9737610  46.4403810  21.0915910  51.0241190
  47.0303500  20.7831760  51.7119010  45.6224050  20.6195660  51.1801090
  51.2597240  20.7081720  51.2574210  50.5712760  20.0463260  51.1924200
  51.9803260  20.2619990  51.7022670  51.8897640  17.3033350  37.3164470
  52.1699930  16.4601250  37.6723890  51.1163370  17.5356460  37.8303220
  43.2092130  19.5925740  34.7755470  43.5118030  19.5993170  33.8674620
  43.9486720  19.2423600  35.2723130  48.0440770  34.3582600  49.7571910
  47.9699470  35.2617740  50.0644280  47.1419610  34.0394500  49.7293980
  46.4277060  18.5360360  35.7611670  46.0799060  17.8584350  35.1814120
  46.6289830  18.0749870  36.5755060  55.5720450  32.0544780  50.0864470
  54.9722440  32.1137340  49.3428390  55.7014350  31.1149760  50.2161320
  56.8121900  29.7962600  35.4234180  55.9814860  29.8639250  35.8941410
  56.9893730  30.6866720  35.1201040  56.2678360  26.5410080  37.9268380
  57.0297270  27.1106730  38.0328070  56.2832730  25.9737280  38.6976690
  57.2738330  27.3960180  42.7710310  57.6447160  26.6127500  42.3646280
  57.9140260  28.0849280  42.5927610  54.2572090  28.7796760  48.1840630
  53.4431930  29.2093920  48.4466420  54.6646290  29.3915170  47.5709680
  56.3197530  26.8344450  35.0840900  56.5946370  27.7423330  34.9560120
  56.1308270  26.7706980  36.0202890  52.7173140  19.8589300  36.3794530
  53.1358020  19.6720280  35.5391190  52.4109200  19.0068350  36.6897460
  56.2162870  24.7713440  40.0770330  55.8406470  24.0041370  39.6451620
  55.4865990  25.1536140  40.5645260  40.8058630  25.4500580  46.6979380
  41.1731670  25.3627980  47.5775400  40.2369450  24.6867130  46.5986240
  55.6062490  23.9184960  49.7109850  55.3748580  23.6897710  48.8107800
  55.8667040  24.8384510  49.6654740  40.3574630  22.3609670  50.6037800
  39.4630680  22.3276430  50.9431510  40.8972180  22.5596460  51.3689050
  54.0450560  19.1441390  52.4889550  54.9220740  19.1524790  52.8723550
  54.0571400  18.4072230  51.8781900  55.4913830  22.9970930  43.3777570
  56.0151310  22.5033580  42.7467740  56.0773250  23.1321290  44.1225140
  55.6703550  23.0810800  46.8997120  54.7206260  23.0474340  47.0142110
  55.8516560  23.9910910  46.6646890  41.5247990  21.3312480  36.0095750
  42.2339690  20.9095700  35.5243030  40.8087930  21.3987710  35.3779100
  41.1722150  17.3851810  35.0498400  41.8950280  17.9260750  35.3679620
  41.4446670  17.1115230  34.1739940  54.9813800  22.2544280  39.3169980
  55.4772920  22.0215150  40.1018860  54.7829870  21.4156120  38.9007620
  40.8614340  16.6358000  44.9521020  41.5090530  16.0855380  44.5116180
  41.2816180  16.8901150  45.7736830  56.4100960  20.8905230  41.8507660
  56.3000240  20.7361270  42.7889930  57.1708550  20.3626170  41.6083070
  54.7566680  16.8299360  48.3090660  55.3938900  17.4433500  48.6749850
  54.9041570  16.8660020  47.3639890  57.2991230  18.7213150  35.0913800
  58.2240540  18.5894330  34.8832090  57.2767020  18.8005970  36.0450250
  57.3729720  19.4923810  37.7170510  56.5781220  19.4268930  38.2463420
  57.5773000  20.4274450  37.7055860  54.3148140  33.5315360  41.7108900
  54.9107210  33.2099930  41.0343320  54.5726290  33.0587180  42.5022170
  40.6146340  16.7913670  47.6946340  40.2661160  17.2477490  48.4604520
  40.2834040  15.8970800  47.7768770  42.2210710  29.9633270  51.8599530
  42.1780340  29.5926180  52.7413990  42.3521720  30.9010840  52.0001350
  48.1271160  17.9825550  51.2165760  48.0660050  18.5747380  51.9661170
  49.0671540  17.8751510  51.0716020  50.7645720  17.6395610  50.8558050
  51.3786130  17.9574900  50.1939130  51.3095280  17.1544200  51.4753910
  57.1820900  33.5387240  48.2619890  56.6879180  33.9356110  47.5447020
  56.5734190  32.9136450  48.6557170  41.2866980  16.3189870  50.9697110
  41.8349970  16.1377920  50.2063220  41.3522290  15.5283980  51.5053420
  42.0598740  32.9095520  48.9797310  41.4659060  32.7780220  49.7187350
  42.0522580  32.0733660  48.5139410  51.5053760  16.2027750  47.1827340
  50.6313600  16.5362860  46.9800270  51.3964510  15.7300930  48.0079210
  52.4125740  18.4098620  48.5669060  52.0839100  17.5950380  48.1870790
  53.3608040  18.3668430  48.4434750  54.8660350  34.1810660  45.5406630
  54.4063320  34.9326470  45.1664650  54.2372810  33.4617130  45.4821430
  41.6910970  30.2753900  47.9305350  40.9645030  29.6559190  47.8631300
  41.7520120  30.6694510  47.0603430  49.2528580  17.1197590  46.1220250
  48.4700370  17.5943090  46.4017010  48.9591510  16.2152420  46.0133430
  53.8049650  17.8220690  44.1669340  54.2457740  17.7665790  43.3190940
  53.5357240  18.7378700  44.2379520  55.6688220  17.4535930  42.1778160
  55.6076620  16.5097150  42.0309180  56.4480250  17.5616020  42.7231620
  40.5968990  17.4245070  38.6433970  41.3548350  17.5373950  38.0698000
  40.1346160  18.2614270  38.5977400  47.1382800  19.5384340  41.6336280
  46.3257310  19.1641230  41.2932160  47.6424440  18.7829420  41.9357470
  51.6407780  16.2026790  42.8719350  52.2437150  16.7747000  43.3467870
  50.9000770  16.7666230  42.6493250  54.7842380  16.6048350  38.1459630
  54.9793010  17.5031800  38.4127060  53.9972250  16.3735430  38.6392580
  42.9694140  17.9509120  37.1835940  43.4986900  17.1638920  37.0543890
  43.6022460  18.6300310  37.4171470  45.1631980  17.6884260  40.2381330
  44.5334720  16.9871570  40.4051460  44.6237120  18.4488390  40.0214490
  48.1023930  34.3023490  52.9091940  49.0291240  34.0667760  52.9527900
  48.0874360  35.1295490  52.4277970  56.3368990  33.8449060  39.9066190
  56.5121180  33.1586800  39.2627110  55.6390560  34.3696110  39.5142860
  45.2887540  16.9668240  52.6733820  45.0071810  17.4701840  51.9094640
  45.6707240  16.1689990  52.3075950  51.8903000  16.3821820  53.2514290
  51.7768450  16.7016430  54.1465810  52.7072740  16.7834330  52.9551570
  54.6701490  33.5293350  52.7332980  55.4626810  33.0342580  52.5258940
  54.9634640  34.2083490  53.3408590  50.7961150  24.4014290  23.6149030
  50.7155200  23.4868900  23.3440740  50.3825570  24.8981360  22.9088740
  48.9279190  26.1793310  25.4958300  48.1521290  25.6993750  25.7856870
  49.5792120  25.4998960  25.3214460  52.9486620  30.5853500  24.2757430
  52.4868150  29.8140740  24.6044600  53.7612170  30.6119570  24.7809880
  41.3536970  21.4515010  20.1576450  40.4653670  21.7930980  20.0556330
  41.6378160  21.2515330  19.2657280  49.1749930  32.8711510  23.8961420
  48.5561370  33.3269010  23.3255860  50.0301710  33.0262970  23.4951120
  48.3688180  28.8550500  25.5028460  48.2996460  27.9140440  25.3417590
  49.1308040  28.9451910  26.0751030  40.5594850  19.4605020  27.8285080
  40.3797690  18.5630770  28.1087840  40.1574930  20.0076890  28.5032030
  49.3993350  21.6620880  25.7297390  49.7758170  20.7892760  25.6171060
  49.3012860  21.9979580  24.8387830  43.5298360  20.0346510  21.1914830
  43.6365110  20.9350240  21.4983590  42.6190720  19.9864480  20.9009480
  53.1817470  19.1571320  22.6625730  54.0027090  18.6667890  22.7051210
  53.2151550  19.7468980  23.4157570  41.1781520  21.9565520  26.4367420
  41.8591630  22.2203890  27.0554820  40.8629570  21.1166390  26.7705430
  45.3706090  23.0032880  25.5240010  45.8784310  23.5013850  26.1645030
  45.9019330  22.2268080  25.3479370  57.4717020  21.1738070  29.2269360
  56.7669190  21.5619780  28.7084470  57.7374940  21.8688360  29.8290290
  43.6542190  17.6431440  29.7903430  43.6560630  18.1603830  28.9849330
  42.8246500  17.1661620  29.7673360  50.0413280  27.7550750  21.2893330
  49.4230550  28.2200200  20.7256050  50.5536530  28.4478230  21.7062840
  53.4178950  21.0971700  25.4353270  52.7134520  21.3856590  26.0156380
  53.7791110  21.9071810  25.0752830  43.3357520  19.3541400  27.7973880
  43.6774330  20.1983450  27.5027750  42.3973330  19.5025140  27.9139220
  39.4096480  28.4407280  18.6632960  39.0324460  28.9294380  17.9317860
  39.6669550  29.1132560  19.2939490  55.0341730  30.7146830  27.6980750
  54.3505250  31.3845940  27.6897420  55.5736020  30.9127480  26.9325610
  56.4865870  20.5426490  25.8262480  55.5390780  20.5765470  25.9577910
  56.8115860  21.3565440  26.2111840  47.0185410  16.8423670  24.1218470
  47.3260390  16.2870560  23.4053970  46.0886110  16.9768130  23.9391460
  52.5700470  32.5590960  26.4125930  52.5827630  32.1553250  25.5448190
  52.0175690  33.3338250  26.3087360  53.8645890  29.2807180  21.5016100
  53.7542220  28.3381510  21.6265520  53.8614140  29.6422820  22.3878860
  51.9685910  27.4620800  27.7408540  52.3854700  27.2480910  26.9062000
  52.6925730  27.7193590  28.3117160  49.4066170  24.9072500  20.8578590
  48.4795450  24.8409880  21.0867060  49.5590990  25.8452630  20.7433830
  49.3935250  21.1789500  17.8545750  48.4538920  21.3403460  17.9398210
  49.7118510  21.8975180  17.3081740  55.9148010  25.8608020  27.8324780
  55.0866640  25.9301110  27.3574910  56.5098490  26.4462330  27.3640610
  53.4363460  26.4692800  21.3613840  52.8175880  26.1312350  20.7140140
  53.4187910  25.8252560  22.0693030  52.8790020  22.6477340  28.7779650
  52.4661200  23.4731050  29.0319640  52.1465970  22.0622380  28.5856010
  45.0122810  25.4337240  23.6398320  44.6079810  24.7214490  23.1444220
  45.0985930  25.0890480  24.5286360  43.7251430  22.2080450  27.4197360
  44.2766020  22.3175790  26.6450610  44.2394940  22.5818050  28.1352590
  53.5690120  32.6936670  29.4660630  53.0920680  33.5008860  29.2733240
  52.8851910  32.0415000  29.6186840  51.6128160  25.7079610  18.3686590
  52.0521440  24.8702040  18.2224410  52.3256580  26.3409010  18.4550730
  49.7223540  30.6475680  22.3367830  50.1619450  31.3900010  21.9223220
  49.6610430  30.8902250  23.2606790  55.1945300  16.9622420  16.6827630
  54.8817960  17.0549250  17.5826700  55.9557770  17.5403450  16.6325060
  41.7127440  24.3282220  21.1404970  41.5925040  25.0544310  20.5286240
  41.4028330  23.5585130  20.6632880  57.1489330  32.4548610  34.5352020
  57.6249050  32.9331500  35.2141100  57.7696490  32.3866100  33.8097520
  56.5522580  29.6461460  31.6952030  56.6785640  29.4073340  30.7769210
  56.5943960  28.8146000  32.1674110  52.3893720  33.6344800  19.6930840
  52.2294860  33.3447740  20.5912670  52.2240430  32.8584930  19.1576070
  44.8682100  33.4143330  21.4702460  44.6924580  32.4978870  21.2570260
  44.0137840  33.7730620  21.7100260  52.0919850  31.1432360  18.2528840
  51.3985010  31.1409650  17.5931120  52.8342710  30.7191680  17.8223010
  51.6569780  32.7695070  22.3277330  52.1126730  31.9884450  22.6415950
  51.9962300  33.4801890  22.8718510  56.4046590  21.6993920  32.6601770
  55.7890860  22.2073590  32.1317230  56.0843010  20.7992250  32.6027710
  44.1791100  17.6717290  24.5228640  43.7359250  18.4526830  24.1913160
  44.7376090  17.9947180  25.2299580  48.4660910  20.5385810  30.1263960
  48.0040280  20.7468830  30.9383900  48.0639020  19.7245160  29.8234630
  53.4665420  21.7594760  31.2560620  52.6159010  21.4600510  31.5769690
  53.3067210  22.0036770  30.3444440  50.5615130  23.2596510  33.3559410
  50.8868540  22.4260260  33.0161640  51.3495460  23.7825030  33.5037740
  47.2949920  17.2927990  19.4034470  46.6704100  17.2887860  20.1287780
  47.2080040  16.4258950  19.0070440  46.2167000  18.2164620  26.3818240
  46.5139330  19.1227450  26.3010260  46.7652560  17.7283400  25.7677810
  43.9705320  22.7950860  22.2509890  43.7446240  22.5788030  23.1556510
  43.1897850  23.2279320  21.9055860  51.2003080  22.8014230  20.8500540
  50.6011970  23.5250030  20.6664160  51.7482690  22.7391010  20.0676990
  49.8067950  21.4377770  22.8803820  50.1997520  21.7549970  22.0672510
  50.1684800  20.5589650  22.9948340  41.5415070  20.1050110  31.0703940
  41.1478460  20.9525320  31.2776720  40.8533470  19.4676480  31.2612580
  48.1160120  20.1885080  34.1400680  47.4258440  19.9957280  34.7746770
  48.8592420  20.4719720  34.6724980  38.8432120  18.0278570  25.1034020
  38.5545170  18.5981430  25.8159000  39.5877880  17.5483020  25.4665250
  39.0302350  21.9698690  16.3136740  38.9477020  22.9129450  16.4551730
  38.6785410  21.8273600  15.4349090  50.3923090  24.0283520  26.9754600
  49.6604210  24.5370330  27.3244700  49.9947430  23.2113500  26.6743380
  46.8300480  20.7037720  25.3807090  46.8336540  20.2627670  24.5311630
  47.7251600  21.0255050  25.4878910  42.6802860  20.5864210  24.3401300
  42.3402910  21.0639440  25.0968350  41.9180180  20.1329330  23.9802400
  46.8920630  21.7049800  18.3713850  47.0133450  21.6636280  19.3199670
  46.5069140  22.5673950  18.2160580  50.8549000  19.4817200  26.3877540
  50.8721740  19.9325850  27.2319390  50.6064580  18.5822840  26.6010980
  45.9042130  24.0150940  17.7697150  45.3359030  23.5669190  17.1433060
  46.6131130  24.3743720  17.2362300  54.2819750  16.8949380  32.2263920
  54.6065520  16.1639040  32.7521900  54.3176260  16.5763020  31.3244910
  47.1308450  24.7639500  27.1272500  47.4978580  24.2898070  27.8733840
  46.9413510  25.6381070  27.4680840  39.9948940  19.5083190  23.2565970
  39.7095860  19.1438860  24.0944590  39.9327800  18.7763650  22.6429110
  43.4489610  28.0109130  20.0423560  42.6751870  27.4706750  19.8822280
  44.1784240  27.4915740  19.7041320  54.2077590  27.0074490  25.8349950
  54.9276710  27.5029780  25.4446060  54.0059410  26.3292380  25.1903820
  49.6687530  18.4012450  19.9779340  48.8552140  17.9025620  19.9024650
  49.4749480  19.2410700  19.5615690  49.5896390  27.0783550  31.7218950
  49.5233700  26.1579220  31.4676540  48.9601530  27.1758990  32.4363590
  52.3835920  22.7732100  18.2741500  53.2715540  23.0849330  18.0992840
  52.3541010  21.9004350  17.8822080  43.4927010  27.6789510  23.6802370
  44.0105680  26.8757770  23.6259260  43.0411030  27.6168650  24.5219200
  48.3796510  28.9455790  18.9529670  48.7212210  29.6898020  18.4572990
  47.5509220  29.2586910  19.3154500  49.5213120  29.9004120  31.4722750
  49.5357660  28.9685080  31.2541660  48.8138220  29.9863880  32.1112520
  54.6550190  24.0843940  17.7421360  54.5713910  24.5158160  16.8917800
  55.3744380  24.5442290  18.1748180  55.7324330  26.5411460  30.8191330
  55.0072520  27.1340240  30.6220720  56.2599790  26.5335000  30.0204700
  55.6837440  30.9386200  20.4703490  55.0413600  30.2841820  20.7447210
  55.2968100  31.3441290  19.6944160  51.2623920  28.2671630  24.3175180
  51.6147740  27.6699760  23.6576550  50.3786250  27.9415860  24.4883430
  47.3487200  29.0269320  21.7245590  48.0358330  29.5738530  22.1053180
  46.5619620  29.5710050  21.7595200  39.4879600  24.6442140  17.2162670
  40.3574450  24.9266940  17.4998590  38.9969920  25.4578010  17.1011480
  46.6514410  26.0315350  21.3370950  47.1077190  26.8420600  21.5631140
  46.3002620  25.7138490  22.1689440  42.5526190  16.3753000  21.8093470
  42.4240820  16.3670900  22.7578390  41.7288210  16.7136090  21.4584480
  50.2279100  29.5454040  27.2840700  50.8701330  28.8447200  27.3972870
  50.7528450  30.3252480  27.1037590  54.0734820  29.8302660  17.0079840
  53.8472400  29.1133100  17.6004480  53.6831020  29.5815100  16.1701590
  52.0016720  30.3448940  30.4876760  52.3372960  30.9315630  31.1654680
  51.0817060  30.2141650  30.7174550  39.8550850  33.8569520  17.7824300
  40.2148490  34.4558860  17.1281570  39.7143190  34.4029410  18.5559330
  39.5520120  18.1344120  31.2700170  38.8378640  18.3341040  31.8752780
  39.9715160  17.3583690  31.6414970  53.6551070  27.7474600  18.6694000
  53.3672770  28.2087290  19.4571880  54.4503240  27.2872370  18.9378220
  45.8719470  31.2400720  18.5997970  45.8629570  31.9730410  17.9842480
  44.9517830  30.9932300  18.6924930  41.4726110  26.4615610  19.3444730
  40.8654060  27.2014510  19.3540030  41.9475460  26.5514970  18.5182930
  51.0458900  20.6266430  29.0201620  51.4139720  19.8061640  29.3481190
  50.1857100  20.6868320  29.4357270  54.4120930  19.5823370  19.8289180
  53.7834090  19.6869040  19.1147410  53.9172850  19.8020150  20.6183060
  48.8579070  31.3028960  17.2623160  48.9591050  31.0992950  16.3325140
  47.9580810  31.0487240  17.4670940  46.3804960  21.8609320  21.2447060
  45.6721110  22.3295660  21.6860670  46.6649440  21.2031330  21.8792250
  48.0060890  23.2806020  29.2439590  48.5046140  23.7551840  29.9091440
  48.1483840  22.3569540  29.4509620  50.4120390  18.5859980  22.6842850
  50.2888170  18.6046110  21.7352360  51.3604950  18.6338920  22.8041250
  47.4997180  33.8215280  21.9570830  47.7538680  33.7836670  21.0350200
  46.5509660  33.6948610  21.9499080  44.5839980  20.1694400  18.6197770
  45.4330510  20.6064550  18.5537960  44.2171250  20.4814660  19.4469830
  55.2127750  19.4973980  30.0867980  54.7101350  20.2379380  30.4261790
  56.0284410  19.8857980  29.7704770  53.5049760  24.7407160  23.5329340
  52.5639900  24.7557390  23.7077030  53.8193830  23.9543120  23.9789640
  43.4831400  26.4226760  17.0933300  44.2494670  26.3108120  17.6558730
  43.5606090  25.7264730  16.4410070  42.1778160  23.8551830  17.7766190
  42.2581750  22.9079340  17.8883590  43.0697910  24.1858710  17.8826850
  55.5075340  31.9116010  25.2083600  55.6322760  32.7347180  25.6807410
  56.3740900  31.7006740  24.8607750  39.8638350  30.0720790  20.7542240
  38.9378130  30.3141930  20.7447650  40.3294780  30.8995050  20.6326990
  46.0895180  33.1777530  16.7026300  46.8823790  33.4666360  16.2508090
  45.5699530  32.7469700  16.0238780  50.8215780  29.2973160  34.0161720
  50.2153940  29.3204760  33.2757470  50.5169890  28.5656200  34.5528970
  52.2516150  33.0253450  32.6271130  53.2037900  32.9411470  32.5771370
  52.1044370  33.6895160  33.3004920  55.1425350  32.4047660  18.1263040
  54.8566860  31.9912800  17.3117220  54.9444900  33.3335370  18.0063560
  46.6072580  28.3980940  16.5668650  46.5023220  27.7833290  17.2930030
  46.4396800  27.8746830  15.7831660  49.8475310  27.4600970  17.1710640
  49.2985410  27.9070270  17.8153380  50.4694570  26.9550220  17.6948310
  53.9010250  28.8143070  33.1032900  54.6419720  29.1518830  32.6000360
  53.1382930  28.9835130  32.5502670  45.5150430  26.4191890  19.0675940
  45.9366850  26.2531760  19.9107330  45.6401270  25.6092120  18.5731080
  48.0278070  25.4429500  16.3153040  48.5483730  24.7278520  15.9494190
  48.6746470  26.0815370  16.6153550  52.5755910  26.8657900  31.6388110
  52.9896930  27.0202980  32.4878530  51.6406910  26.9913120  31.8013890
  53.0478080  24.2054060  33.6427260  53.6298850  23.4506380  33.5547740
  53.2239850  24.7361500  32.8658740  44.1650150  19.3650810  31.9544210
  44.0707020  18.7471560  31.2295080  43.5847540  20.0917100  31.7274120
  46.9311590  17.9224050  28.9871600  46.4828890  17.9448310  28.1417150
  46.2976790  17.5243070  29.5841900  47.3371140  26.8178380  29.6084040
  47.7559250  27.6611110  29.4360280  46.4179770  26.9550420  29.3790820
  49.6735040  24.5494560  30.9921880  49.7931250  23.9535700  31.7316720
  50.5329040  24.5864250  30.5723180  52.0122940  25.1031750  29.5684390
  51.4858160  25.6274370  28.9649530  52.3554280  25.7359140  30.1994120
  44.4109330  22.4925120  16.0134100  44.2098390  21.6292480  16.3747440
  44.2401380  22.4058480  15.0755700  46.4403810  21.0915910  32.2497700
  47.0303500  20.7831760  32.9375520  45.6224050  20.6195660  32.4057600
  51.2597240  20.7081720  32.4830720  50.5712760  20.0463260  32.4180710
  51.9803260  20.2619990  32.9279180  51.8897640  17.3033350  18.5420980
  52.1699930  16.4601250  18.8980400  51.1163370  17.5356460  19.0559730
  43.2092130  19.5925740  16.0011980  43.5118030  19.5993170  15.0931130
  43.9486720  19.2423600  16.4979640  46.4277060  18.5360360  16.9868180
  46.0799060  17.8584350  16.4070630  46.6289830  18.0749870  17.8011570
  48.5926100  33.5241110  18.6054780  49.4876890  33.8626080  18.6273540
  48.6243730  32.8020520  17.9779060  42.2322260  28.8968160  16.8341780
  42.6697130  29.4397830  17.4899360  42.7169990  28.0715110  16.8438120
  44.0429980  30.0166200  21.9464010  43.7425520  29.8931170  22.8467920
  43.9367470  29.1574790  21.5379740  55.5720450  32.0544780  31.3120980
  54.9722440  32.1137340  30.5684900  55.7014350  31.1149760  31.4417830
  56.8121900  29.7962600  16.6490690  55.9814860  29.8639250  17.1197920
  56.9893730  30.6866720  16.3457550  56.2678360  26.5410080  19.1524890
  57.0297270  27.1106730  19.2584580  56.2832730  25.9737280  19.9233200
  39.7682700  25.0648010  23.3832550  39.1131540  24.7959650  22.7392250
  40.6060650  24.9552490  22.9334530  57.2738330  27.3960180  23.9966820
  57.6447160  26.6127500  23.5902790  57.9140260  28.0849280  23.8184120
  54.2572090  28.7796760  29.4097140  53.4431930  29.2093920  29.6722930
  54.6646290  29.3915170  28.7966190  56.3197530  26.8344450  16.3097410
  56.5946370  27.7423330  16.1816630  56.1308270  26.7706980  17.2459400
  52.7173140  19.8589300  17.6051040  53.1358020  19.6720280  16.7647700
  52.4109200  19.0068350  17.9153970  56.2162870  24.7713440  21.3026840
  55.8406470  24.0041370  20.8708130  55.4865990  25.1536140  21.7901770
  55.6062490  23.9184960  30.9366360  55.3748580  23.6897710  30.0364310
  55.8667040  24.8384510  30.8911250  54.0450560  19.1441390  33.7146060
  54.9220740  19.1524790  34.0980060  54.0571400  18.4072230  33.1038410
  38.9820780  22.2746940  19.3257880  38.0784860  22.5377140  19.1509540
  39.4661400  22.5458110  18.5457840  55.4913830  22.9970930  24.6034080
  56.0151310  22.5033580  23.9724250  56.0773250  23.1321290  25.3481650
  55.6703550  23.0810800  28.1253630  54.7206260  23.0474340  28.2398620
  55.8516560  23.9910910  27.8903400  41.5247990  21.3312480  17.2352260
  42.2339690  20.9095700  16.7499540  40.8087930  21.3987710  16.6035610
  41.1722150  17.3851810  16.2754910  41.8950280  17.9260750  16.5936130
  41.4446670  17.1115230  15.3996450  54.9813800  22.2544280  20.5426490
  55.4772920  22.0215150  21.3275370  54.7829870  21.4156120  20.1264130
  40.8614340  16.6358000  26.1777530  41.5090530  16.0855380  25.7372690
  41.2816180  16.8901150  26.9993340  56.4100960  20.8905230  23.0764170
  56.3000240  20.7361270  24.0146440  57.1708550  20.3626170  22.8339580
  54.7566680  16.8299360  29.5347170  55.3938900  17.4433500  29.9006360
  54.9041570  16.8660020  28.5896400  57.2991230  18.7213150  16.3170310
  58.2240540  18.5894330  16.1088600  57.2767020  18.8005970  17.2706760
  57.3729720  19.4923810  18.9427020  56.5781220  19.4268930  19.4719930
  57.5773000  20.4274450  18.9312370  54.3148140  33.5315360  22.9365410
  54.9107210  33.2099930  22.2599830  54.5726290  33.0587180  23.7278680
  40.6146340  16.7913670  28.9202850  40.2661160  17.2477490  29.6861030
  40.2834040  15.8970800  29.0025280  48.1271160  17.9825550  32.4422270
  48.0660050  18.5747380  33.1917680  49.0671540  17.8751510  32.2972530
  50.7645720  17.6395610  32.0814560  51.3786130  17.9574900  31.4195640
  51.3095280  17.1544200  32.7010420  57.1820900  33.5387240  29.4876400
  56.6879180  33.9356110  28.7703530  56.5734190  32.9136450  29.8813680
  41.2866980  16.3189870  32.1953620  41.8349970  16.1377920  31.4319730
  41.3522290  15.5283980  32.7309930  51.5053760  16.2027750  28.4083850
  50.6313600  16.5362860  28.2056780  51.3964510  15.7300930  29.2335720
  52.4125740  18.4098620  29.7925570  52.0839100  17.5950380  29.4127300
  53.3608040  18.3668430  29.6691260  54.8660350  34.1810660  26.7663140
  54.4063320  34.9326470  26.3921160  54.2372810  33.4617130  26.7077940
  45.2956070  32.4898900  25.9411270  45.8121090  31.8786260  25.4159530
  45.9453450  32.9927680  26.4322280  49.2528580  17.1197590  27.3476760
  48.4700370  17.5943090  27.6273520  48.9591510  16.2152420  27.2389940
  53.8049650  17.8220690  25.3925850  54.2457740  17.7665790  24.5447450
  53.5357240  18.7378700  25.4636030  55.6688220  17.4535930  23.4034670
  55.6076620  16.5097150  23.2565690  56.4480250  17.5616020  23.9488130
  39.9740970  33.5928290  22.3658620  39.8063010  32.9598970  23.0640510
  39.1075480  33.7987690  22.0152810  40.5968990  17.4245070  19.8690480
  41.3548350  17.5373950  19.2954510  40.1346160  18.2614270  19.8233910
  47.1382800  19.5384340  22.8592790  46.3257310  19.1641230  22.5188670
  47.6424440  18.7829420  23.1613980  51.6407780  16.2026790  24.0975860
  52.2437150  16.7747000  24.5724380  50.9000770  16.7666230  23.8749760
  54.7842380  16.6048350  19.3716140  54.9793010  17.5031800  19.6383570
  53.9972250  16.3735430  19.8649090  41.5803670  32.2861520  19.8108760
  41.0551290  32.6669550  19.1070720  41.5048250  32.9112290  20.5318470
  42.9694140  17.9509120  18.4092450  43.4986900  17.1638920  18.2800400
  43.6022460  18.6300310  18.6427980  45.1631980  17.6884260  21.4637840
  44.5334720  16.9871570  21.6307970  44.6237120  18.4488390  21.2471000
  56.3368990  33.8449060  21.1322700  56.5121180  33.1586800  20.4883620
  55.6390560  34.3696110  20.7399370  45.2887540  16.9668240  33.8990330
  45.0071810  17.4701840  33.1351150  45.6707240  16.1689990  33.5332460
  44.1796640  34.2343900  18.6858010  44.9115460  33.9503180  18.1381900
  44.4390310  33.9957180  19.5757390  43.3411430  30.3508630  18.6904340
  42.7120310  30.8193730  19.2390170  43.4559260  29.5057850  19.1250530
  51.8903000  16.3821820  34.4770800  51.7768450  16.7016430  35.3722320
  52.7072740  16.7834330  34.1808080  54.6701490  33.5293350  33.9589490
  55.4626810  33.0342580  33.7515450  54.9634640  34.2083490  34.5665100
  50.7961150  24.4014290   4.8405540  50.7155200  23.4868900   4.5697250
  50.3825570  24.8981360   4.1345250  48.9279190  26.1793310   6.7214810
  48.1521290  25.6993750   7.0113380  49.5792120  25.4998960   6.5470970
  42.9445020  26.4913120   7.5990570  42.1129900  26.2361830   7.9987080
  43.5526000  26.5623890   8.3348490  52.9486620  30.5853500   5.5013940
  52.4868150  29.8140740   5.8301110  53.7612170  30.6119570   6.0066390
  42.9246280  30.5253210   7.7948590  43.2274320  29.6350950   7.6158810
  43.6689870  31.0823430   7.5670840  39.3169980  24.0520660   7.2672660
  39.8886090  23.2842860   7.2676300  39.3171520  24.3509420   6.3579270
  49.1749930  32.8711510   5.1217930  48.5561370  33.3269010   4.5512370
  50.0301710  33.0262970   4.7207630  48.3688180  28.8550500   6.7284970
  48.2996460  27.9140440   6.5674100  49.1308040  28.9451910   7.3007540
  40.5594850  19.4605020   9.0541590  40.3797690  18.5630770   9.3344350
  40.1574930  20.0076890   9.7288540  49.3993350  21.6620880   6.9553900
  49.7758170  20.7892760   6.8427570  49.3012860  21.9979580   6.0644340
  43.5298360  20.0346510   2.4171340  43.6365110  20.9350240   2.7240100
  42.6190720  19.9864480   2.1265990  53.1817470  19.1571320   3.8882240
  54.0027090  18.6667890   3.9307720  53.2151550  19.7468980   4.6414080
  41.1781520  21.9565520   7.6623930  41.8591630  22.2203890   8.2811330
  40.8629570  21.1166390   7.9961940  45.3706090  23.0032880   6.7496520
  45.8784310  23.5013850   7.3901540  45.9019330  22.2268080   6.5735880
  57.4717020  21.1738070  10.4525870  56.7669190  21.5619780   9.9340980
  57.7374940  21.8688360  11.0546800  43.6542190  17.6431440  11.0159940
  43.6560630  18.1603830  10.2105840  42.8246500  17.1661620  10.9929870
  50.0413280  27.7550750   2.5149840  49.4230550  28.2200200   1.9512560
  50.5536530  28.4478230   2.9319350  44.9045040  27.2826620   9.1933440
  44.5714420  27.9095540   9.8354510  45.0811720  27.8088500   8.4135110
  53.4178950  21.0971700   6.6609780  52.7134520  21.3856590   7.2412890
  53.7791110  21.9071810   6.3009340  43.3357520  19.3541400   9.0230390
  43.6774330  20.1983450   8.7284260  42.3973330  19.5025140   9.1395730
  44.1164140  29.2507420  11.0082620  44.7338140  29.9258500  10.7267070
  43.2557260  29.6595400  10.9170120  55.0341730  30.7146830   8.9237260
  54.3505250  31.3845940   8.9153930  55.5736020  30.9127480   8.1582120
  56.4865870  20.5426490   7.0518990  55.5390780  20.5765470   7.1834420
  56.8115860  21.3565440   7.4368350  47.0185410  16.8423670   5.3474980
  47.3260390  16.2870560   4.6310480  46.0886110  16.9768130   5.1647970
  52.5700470  32.5590960   7.6382440  52.5827630  32.1553250   6.7704700
  52.0175690  33.3338250   7.5343870  53.8645890  29.2807180   2.7272610
  53.7542220  28.3381510   2.8522030  53.8614140  29.6422820   3.6135370
  51.9685910  27.4620800   8.9665050  52.3854700  27.2480910   8.1318510
  52.6925730  27.7193590   9.5373670  49.4066170  24.9072500   2.0835100
  48.4795450  24.8409880   2.3123570  49.5590990  25.8452630   1.9690340
  55.9148010  25.8608020   9.0581290  55.0866640  25.9301110   8.5831420
  56.5098490  26.4462330   8.5897120  53.4363460  26.4692800   2.5870350
  52.8175880  26.1312350   1.9396650  53.4187910  25.8252560   3.2949540
  52.8790020  22.6477340  10.0036160  52.4661200  23.4731050  10.2576150
  52.1465970  22.0622380   9.8112520  45.0122810  25.4337240   4.8654830
  44.6079810  24.7214490   4.3700730  45.0985930  25.0890480   5.7542870
  45.4804510  29.1204800   7.0294040  45.1832800  28.5150270   6.3501820
  46.4304330  29.1582110   6.9183400  43.7251430  22.2080450   8.6453870
  44.2766020  22.3175790   7.8707120  44.2394940  22.5818050   9.3609100
  53.5690120  32.6936670  10.6917140  53.0920680  33.5008860  10.4989750
  52.8851910  32.0415000  10.8443350  44.5722940  28.8586490  13.6801840
  43.6751470  29.0826460  13.9275240  44.5975810  28.9821430  12.7313240
  43.3994160  25.7299810  12.2559210  43.2601930  26.6022610  12.6246610
  42.5175520  25.3872620  12.1107150  49.7223540  30.6475680   3.5624340
  50.1619450  31.3900010   3.1479730  49.6610430  30.8902250   4.4863300
  45.1974510  31.6721510  14.4644360  45.1689940  32.0764460  13.5972790
  45.0339480  30.7431870  14.3015960  41.7127440  24.3282220   2.3661480
  41.5925040  25.0544310   1.7542750  41.4028330  23.5585130   1.8889390
  57.1489330  32.4548610  15.7608530  57.6249050  32.9331500  16.4397610
  57.7696490  32.3866100  15.0354030  39.3512810  27.4997360   8.1730120
  39.4293230  27.6346130   7.2285840  39.9654490  26.7913250   8.3658240
  40.5960440  29.1997550   4.5836300  40.1888520  29.3412140   3.7289900
  41.4873450  28.9157710   4.3807510  56.5522580  29.6461460  12.9208540
  56.6785640  29.4073340  12.0025720  56.5943960  28.8146000  13.3930620
  50.4139320  33.3489460  11.4903350  50.9283990  33.2597470  12.2925780
  49.5708400  33.6949160  11.7831260  44.8682100  33.4143330   2.6958970
  44.6924580  32.4978870   2.4826770  44.0137840  33.7730620   2.9356770
  51.6569780  32.7695070   3.5533840  52.1126730  31.9884450   3.8672460
  51.9962300  33.4801890   4.0975020  56.4046590  21.6993920  13.8858280
  55.7890860  22.2073590  13.3573740  56.0843010  20.7992250  13.8284220
  39.4072330  28.5411530  10.7124580  39.5703370  28.0716890   9.8943950
  39.8724780  28.0335090  11.3773420  44.1791100  17.6717290   5.7485150
  43.7359250  18.4526830   5.4169670  44.7376090  17.9947180   6.4556090
  48.4660910  20.5385810  11.3520470  48.0040280  20.7468830  12.1640410
  48.0639020  19.7245160  11.0491140  53.4665420  21.7594760  12.4817130
  52.6159010  21.4600510  12.8026200  53.3067210  22.0036770  11.5700950
  50.5615130  23.2596510  14.5815920  50.8868540  22.4260260  14.2418150
  51.3495460  23.7825030  14.7294250  46.2167000  18.2164620   7.6074750
  46.5139330  19.1227450   7.5266770  46.7652560  17.7283400   6.9934320
  43.9705320  22.7950860   3.4766400  43.7446240  22.5788030   4.3813020
  43.1897850  23.2279320   3.1312370  51.2003080  22.8014230   2.0757050
  50.6011970  23.5250030   1.8920670  51.7482690  22.7391010   1.2933500
  46.4104530  23.6936440  14.1426670  46.3148130  22.7531170  13.9927070
  47.2536510  23.9151510  13.7474740  49.8067950  21.4377770   4.1060330
  50.1997520  21.7549970   3.2929020  50.1684800  20.5589650   4.2204850
  41.5415070  20.1050110  12.2960450  41.1478460  20.9525320  12.5033230
  40.8533470  19.4676480  12.4869090  48.1160120  20.1885080  15.3657190
  47.4258440  19.9957280  16.0003280  48.8592420  20.4719720  15.8981490
  38.8432120  18.0278570   6.3290530  38.5545170  18.5981430   7.0415510
  39.5877880  17.5483020   6.6921760  50.3923090  24.0283520   8.2011110
  49.6604210  24.5370330   8.5501210  49.9947430  23.2113500   7.8999890
  46.8300480  20.7037720   6.6063600  46.8336540  20.2627670   5.7568140
  47.7251600  21.0255050   6.7135420  42.6802860  20.5864210   5.5657810
  42.3402910  21.0639440   6.3224860  41.9180180  20.1329330   5.2058910
  50.8549000  19.4817200   7.6134050  50.8721740  19.9325850   8.4575900
  50.6064580  18.5822840   7.8267490  54.2819750  16.8949380  13.4520430
  54.6065520  16.1639040  13.9778410  54.3176260  16.5763020  12.5501420
  40.9811310  27.9162960  12.8720390  40.5966100  27.2756630  13.4703350
  41.2923500  28.6199080  13.4415120  47.1308450  24.7639500   8.3529010
  47.4978580  24.2898070   9.0990350  46.9413510  25.6381070   8.6937350
  39.9948940  19.5083190   4.4822480  39.7095860  19.1438860   5.3201100
  39.9327800  18.7763650   3.8685620  44.9207820  23.8048140  10.6713220
  44.6164890  24.6840120  10.8963580  45.8754280  23.8647930  10.7070660
  54.2077590  27.0074490   7.0606460  54.9276710  27.5029780   6.6702570
  54.0059410  26.3292380   6.4160330  49.5896390  27.0783550  12.9475460
  49.5233700  26.1579220  12.6933050  48.9601530  27.1758990  13.6620100
  43.4927010  27.6789510   4.9058880  44.0105680  26.8757770   4.8515770
  43.0411030  27.6168650   5.7475710  40.9771550  24.6450880  11.8184580
  40.6186490  25.3104730  12.4057920  40.6826110  23.8134430  12.1897200
  44.1784670  25.1035120  14.7024130  43.8784810  25.2492300  13.8051950
  44.9495910  24.5440410  14.6097520  49.5213120  29.9004120  12.6979260
  49.5357660  28.9685080  12.4798170  48.8138220  29.9863880  13.3369030
  55.7324330  26.5411460  12.0447840  55.0072520  27.1340240  11.8477230
  56.2599790  26.5335000  11.2461210  51.2623920  28.2671630   5.5431690
  51.6147740  27.6699760   4.8833060  50.3786250  27.9415860   5.7139940
  47.3487200  29.0269320   2.9502100  48.0358330  29.5738530   3.3309690
  46.5619620  29.5710050   2.9851710  46.6514410  26.0315350   2.5627460
  47.1077190  26.8420600   2.7887650  46.3002620  25.7138490   3.3945950
  48.9547020  31.5421690   9.7919760  49.5989240  31.7481070  10.4693180
  49.3176460  30.7810090   9.3390610  42.5526190  16.3753000   3.0349980
  42.4240820  16.3670900   3.9834900  41.7288210  16.7136090   2.6840990
  50.2279100  29.5454040   8.5097210  50.8701330  28.8447200   8.6229380
  50.7528450  30.3252480   8.3294100  52.0016720  30.3448940  11.7133270
  52.3372960  30.9315630  12.3911190  51.0817060  30.2141650  11.9431060
  39.5520120  18.1344120  12.4956680  38.8378640  18.3341040  13.1009290
  39.9715160  17.3583690  12.8671480  39.8392710  32.1224380  13.4823210
  39.9483830  31.1819120  13.3418600  39.1873270  32.3879130  12.8336940
  47.8305300  30.3940270  14.8821330  47.5102170  29.6749510  15.4267020
  47.1563660  31.0695340  14.9557390  51.0458900  20.6266430  10.2458130
  51.4139720  19.8061640  10.5737700  50.1857100  20.6868320  10.6613780
  46.3804960  21.8609320   2.4703570  45.6721110  22.3295660   2.9117180
  46.6649440  21.2031330   3.1048760  48.0060890  23.2806020  10.4696100
  48.5046140  23.7551840  11.1347950  48.1483840  22.3569540  10.6766130
  50.4120390  18.5859980   3.9099360  50.2888170  18.6046110   2.9608870
  51.3604950  18.6338920   4.0297760  47.4997180  33.8215280   3.1827340
  47.7538680  33.7836670   2.2606710  46.5509660  33.6948610   3.1755590
  55.2127750  19.4973980  11.3124490  54.7101350  20.2379380  11.6518300
  56.0284410  19.8857980  10.9961280  53.5049760  24.7407160   4.7585850
  52.5639900  24.7557390   4.9333540  53.8193830  23.9543120   5.2046150
  55.5075340  31.9116010   6.4340110  55.6322760  32.7347180   6.9063920
  56.3740900  31.7006740   6.0864260  42.9792870  34.0047220   6.1057240
  43.7155350  33.4562680   6.3765810  43.3633790  34.8703230   5.9663230
  39.8638350  30.0720790   1.9798750  38.9378130  30.3141930   1.9704160
  40.3294780  30.8995050   1.8583500  41.9851150  33.1893290  15.2942820
  42.7863880  33.5105340  15.7078220  41.4702970  32.8288870  16.0162730
  50.8215780  29.2973160  15.2418230  50.2153940  29.3204760  14.5013980
  50.5169890  28.5656200  15.7785480  52.2516150  33.0253450  13.8527640
  53.2037900  32.9411470  13.8027880  52.1044370  33.6895160  14.5261430
  39.7048960  25.6766750  14.2378870  40.2087980  25.0974030  14.8095100
  38.9656380  25.9606980  14.7755240  46.7586900  27.0837740  13.7714390
  45.9932570  27.6522740  13.6869060  46.9402860  26.7913950  12.8782620
  53.9010250  28.8143070  14.3289410  54.6419720  29.1518830  13.8256870
  53.1382930  28.9835130  13.7759180  41.7372040  23.8196340  15.1328940
  41.7777380  23.5210210  16.0414170  42.5917540  24.2203950  14.9736460
  43.6777850  22.3988440  13.1003430  43.1474310  21.9079390  12.4726770
  44.3465920  22.8272640  12.5661360  52.5755910  26.8657900  12.8644620
  52.9896930  27.0202980  13.7135040  51.6406910  26.9913120  13.0270400
  53.0478080  24.2054060  14.8683770  53.6298850  23.4506380  14.7804250
  53.2239850  24.7361500  14.0915250  44.1650150  19.3650810  13.1800720
  44.0707020  18.7471560  12.4551590  43.5847540  20.0917100  12.9530630
  46.9311590  17.9224050  10.2128110  46.4828890  17.9448310   9.3673660
  46.2976790  17.5243070  10.8098410  47.3371140  26.8178380  10.8340550
  47.7559250  27.6611110  10.6616790  46.4179770  26.9550420  10.6047330
  49.6735040  24.5494560  12.2178390  49.7931250  23.9535700  12.9573230
  50.5329040  24.5864250  11.7979690  52.0122940  25.1031750  10.7940900
  51.4858160  25.6274370  10.1906040  52.3554280  25.7359140  11.4250630
  45.1878560  33.1231390  11.9498280  44.6499650  33.8477450  11.6306980
  45.4412520  32.6461730  11.1595620  46.4403810  21.0915910  13.4754210
  47.0303500  20.7831760  14.1632030  45.6224050  20.6195660  13.6314110
  51.2597240  20.7081720  13.7087230  50.5712760  20.0463260  13.6437220
  51.9803260  20.2619990  14.1535690  48.0440770  34.3582600  12.2084930
  47.9699470  35.2617740  12.5157300  47.1419610  34.0394500  12.1807000
  39.4468060  31.6857190   5.5118550  39.7771070  30.8178250   5.2797190
  39.8759060  31.8915710   6.3423510  44.0429980  30.0166200   3.1720520
  43.7425520  29.8931170   4.0724430  43.9367470  29.1574790   2.7636250
  39.9358270  32.5527780   8.2500180  39.4989260  32.7328580   9.0824330
  40.5035950  33.3102400   8.1081900  55.5720450  32.0544780  12.5377490
  54.9722440  32.1137340  11.7941410  55.7014350  31.1149760  12.6674340
  39.7682700  25.0648010   4.6089060  39.1131540  24.7959650   3.9648760
  40.6060650  24.9552490   4.1591040  57.2738330  27.3960180   5.2223330
  57.6447160  26.6127500   4.8159300  57.9140260  28.0849280   5.0440630
  54.2572090  28.7796760  10.6353650  53.4431930  29.2093920  10.8979440
  54.6646290  29.3915170  10.0222700  56.2162870  24.7713440   2.5283350
  55.8406470  24.0041370   2.0964640  55.4865990  25.1536140   3.0158280
  40.8058630  25.4500580   9.1492400  41.1731670  25.3627980  10.0288420
  40.2369450  24.6867130   9.0499260  55.6062490  23.9184960  12.1622870
  55.3748580  23.6897710  11.2620820  55.8667040  24.8384510  12.1167760
  40.3574630  22.3609670  13.0550820  39.4630680  22.3276430  13.3944530
  40.8972180  22.5596460  13.8202070  54.0450560  19.1441390  14.9402570
  54.9220740  19.1524790  15.3236570  54.0571400  18.4072230  14.3294920
  55.4913830  22.9970930   5.8290590  56.0151310  22.5033580   5.1980760
  56.0773250  23.1321290   6.5738160  55.6703550  23.0810800   9.3510140
  54.7206260  23.0474340   9.4655130  55.8516560  23.9910910   9.1159910
  54.9813800  22.2544280   1.7683000  55.4772920  22.0215150   2.5531880
  54.7829870  21.4156120   1.3520640  40.8614340  16.6358000   7.4034040
  41.5090530  16.0855380   6.9629200  41.2816180  16.8901150   8.2249850
  56.4100960  20.8905230   4.3020680  56.3000240  20.7361270   5.2402950
  57.1708550  20.3626170   4.0596090  54.7566680  16.8299360  10.7603680
  55.3938900  17.4433500  11.1262870  54.9041570  16.8660020   9.8152910
  54.3148140  33.5315360   4.1621920  54.9107210  33.2099930   3.4856340
  54.5726290  33.0587180   4.9535190  40.6146340  16.7913670  10.1459360
  40.2661160  17.2477490  10.9117540  40.2834040  15.8970800  10.2281790
  42.2210710  29.9633270  14.3112550  42.1780340  29.5926180  15.1927010
  42.3521720  30.9010840  14.4514370  45.9216740  31.5192860   9.9122270
  45.6808100  31.7867420   9.0252790  46.8619380  31.6898590   9.9673130
  48.1271160  17.9825550  13.6678780  48.0660050  18.5747380  14.4174190
  49.0671540  17.8751510  13.5229040  50.7645720  17.6395610  13.3071070
  51.3786130  17.9574900  12.6452150  51.3095280  17.1544200  13.9266930
  57.1820900  33.5387240  10.7132910  56.6879180  33.9356110   9.9960040
  56.5734190  32.9136450  11.1070190  41.2866980  16.3189870  13.4210130
  41.8349970  16.1377920  12.6576240  41.3522290  15.5283980  13.9566440
  42.0598740  32.9095520  11.4310330  41.4659060  32.7780220  12.1700370
  42.0522580  32.0733660  10.9652430  51.5053760  16.2027750   9.6340360
  50.6313600  16.5362860   9.4313290  51.3964510  15.7300930  10.4592230
  52.4125740  18.4098620  11.0182080  52.0839100  17.5950380  10.6383810
  53.3608040  18.3668430  10.8947770  54.8660350  34.1810660   7.9919650
  54.4063320  34.9326470   7.6177670  54.2372810  33.4617130   7.9334450
  41.6910970  30.2753900  10.3818370  40.9645030  29.6559190  10.3144320
  41.7520120  30.6694510   9.5116450  45.2956070  32.4898900   7.1667780
  45.8121090  31.8786260   6.6416040  45.9453450  32.9927680   7.6578790
  48.0351570  33.3807390   7.9936760  48.3229380  33.1261690   7.1169770
  48.5474790  32.8284750   8.5842330  49.2528580  17.1197590   8.5733270
  48.4700370  17.5943090   8.8530030  48.9591510  16.2152420   8.4646450
  53.8049650  17.8220690   6.6182360  54.2457740  17.7665790   5.7703960
  53.5357240  18.7378700   6.6892540  55.6688220  17.4535930   4.6291180
  55.6076620  16.5097150   4.4822200  56.4480250  17.5616020   5.1744640
  39.9740970  33.5928290   3.5915130  39.8063010  32.9598970   4.2897020
  39.1075480  33.7987690   3.2409320  47.1382800  19.5384340   4.0849300
  46.3257310  19.1641230   3.7445180  47.6424440  18.7829420   4.3870490
  51.6407780  16.2026790   5.3232370  52.2437150  16.7747000   5.7980890
  50.9000770  16.7666230   5.1006270  45.1631980  17.6884260   2.6894350
  44.5334720  16.9871570   2.8564480  44.6237120  18.4488390   2.4727510
  48.1023930  34.3023490  15.3604960  49.0291240  34.0667760  15.4040920
  48.0874360  35.1295490  14.8790990  56.3368990  33.8449060   2.3579210
  56.5121180  33.1586800   1.7140130  55.6390560  34.3696110   1.9655880
  45.2887540  16.9668240  15.1246840  45.0071810  17.4701840  14.3607660
  45.6707240  16.1689990  14.7588970  51.8903000  16.3821820  15.7027310
  51.7768450  16.7016430  16.5978830  52.7072740  16.7834330  15.4064590
  54.6701490  33.5293350  15.1846000  55.4626810  33.0342580  14.9771960
  54.9634640  34.2083490  15.7921610  50.7961150   5.6270800  61.1636010
  50.7155200   4.7125410  60.8927720  50.3825570   6.1237870  60.4575720
  48.9279190   7.4049820  63.0445280  48.1521290   6.9250260  63.3343850
  49.5792120   6.7255470  62.8701440  42.9445020   7.7169630  63.9221040
  42.1129900   7.4618340  64.3217550  43.5526000   7.7880400  64.6578960
  52.9486620  11.8110010  61.8244410  52.4868150  11.0397250  62.1531580
  53.7612170  11.8376080  62.3296860  42.9246280  11.7509720  64.1179060
  43.2274320  10.8607460  63.9389280  43.6689870  12.3079940  63.8901310
  41.3536970   2.6771520  57.7063430  40.4653670   3.0187490  57.6043310
  41.6378160   2.4771840  56.8144260  39.3169980   5.2777170  63.5903130
  39.8886090   4.5099370  63.5906770  39.3171520   5.5765930  62.6809740
  49.1749930  14.0968020  61.4448400  48.5561370  14.5525520  60.8742840
  50.0301710  14.2519480  61.0438100  48.3688180  10.0807010  63.0515440
  48.2996460   9.1396950  62.8904570  49.1308040  10.1708420  63.6238010
  49.3993350   2.8877390  63.2784370  49.7758170   2.0149270  63.1658040
  49.3012860   3.2236090  62.3874810  41.1781520   3.1822030  63.9854400
  41.8591630   3.4460400  64.6041800  40.8629570   2.3422900  64.3192410
  45.3706090   4.2289390  63.0726990  45.8784310   4.7270360  63.7132010
  45.9019330   3.4524590  62.8966350  57.4717020   2.3994580  66.7756340
  56.7669190   2.7876290  66.2571450  57.7374940   3.0944870  67.3777270
  50.0413280   8.9807260  58.8380310  49.4230550   9.4456710  58.2743030
  50.5536530   9.6734740  59.2549820  44.9045040   8.5083130  65.5163910
  44.5714420   9.1352050  66.1584980  45.0811720   9.0345010  64.7365580
  53.4178950   2.3228210  62.9840250  52.7134520   2.6113100  63.5643360
  53.7791110   3.1328320  62.6239810  44.1164140  10.4763930  67.3313090
  44.7338140  11.1515010  67.0497540  43.2557260  10.8851910  67.2400590
  39.4096480   9.6663790  56.2119940  39.0324460  10.1550890  55.4804840
  39.6669550  10.3389070  56.8426470  55.0341730  11.9403340  65.2467730
  54.3505250  12.6102450  65.2384400  55.5736020  12.1383990  64.4812590
  56.4865870   1.7683000  63.3749460  55.5390780   1.8021980  63.5064890
  56.8115860   2.5821950  63.7598820  52.5700470  13.7847470  63.9612910
  52.5827630  13.3809760  63.0935170  52.0175690  14.5594760  63.8574340
  53.8645890  10.5063690  59.0503080  53.7542220   9.5638020  59.1752500
  53.8614140  10.8679330  59.9365840  51.9685910   8.6877310  65.2895520
  52.3854700   8.4737420  64.4548980  52.6925730   8.9450100  65.8604140
  49.4066170   6.1329010  58.4065570  48.4795450   6.0666390  58.6354040
  49.5590990   7.0709140  58.2920810  49.3935250   2.4046010  55.4032730
  48.4538920   2.5659970  55.4885190  49.7118510   3.1231690  54.8568720
  55.9148010   7.0864530  65.3811760  55.0866640   7.1557620  64.9061890
  56.5098490   7.6718840  64.9127590  53.4363460   7.6949310  58.9100820
  52.8175880   7.3568860  58.2627120  53.4187910   7.0509070  59.6180010
  52.8790020   3.8733850  66.3266630  52.4661200   4.6987560  66.5806620
  52.1465970   3.2878890  66.1342990  45.0122810   6.6593750  61.1885300
  44.6079810   5.9471000  60.6931200  45.0985930   6.3146990  62.0773340
  45.4804510  10.3461310  63.3524510  45.1832800   9.7406780  62.6732290
  46.4304330  10.3838620  63.2413870  43.7251430   3.4336960  64.9684340
  44.2766020   3.5432300  64.1937590  44.2394940   3.8074560  65.6839570
  53.5690120  13.9193180  67.0147610  53.0920680  14.7265370  66.8220220
  52.8851910  13.2671510  67.1673820  51.6128160   6.9336120  55.9173570
  52.0521440   6.0958550  55.7711390  52.3256580   7.5665520  56.0037710
  49.7223540  11.8732190  59.8854810  50.1619450  12.6156520  59.4710200
  49.6610430  12.1158760  60.8093770  41.7127440   5.5538730  58.6891950
  41.5925040   6.2800820  58.0773220  41.4028330   4.7841640  58.2119860
  39.3512810   8.7253870  64.4960590  39.4293230   8.8602640  63.5516310
  39.9654490   8.0169760  64.6888710  40.5960440  10.4254060  60.9066770
  40.1888520  10.5668650  60.0520370  41.4873450  10.1414220  60.7037980
  52.3893720  14.8601310  57.2417820  52.2294860  14.5704250  58.1399650
  52.2240430  14.0841440  56.7063050  44.8682100  14.6399840  59.0189440
  44.6924580  13.7235380  58.8057240  44.0137840  14.9987130  59.2587240
  52.0919850  12.3688870  55.8015820  51.3985010  12.3666160  55.1418100
  52.8342710  11.9448190  55.3709990  51.6569780  13.9951580  59.8764310
  52.1126730  13.2140960  60.1902930  51.9962300  14.7058400  60.4205490
  39.4072330   9.7668040  67.0355050  39.5703370   9.2973400  66.2174420
  39.8724780   9.2591600  67.7003890  43.9705320   4.0207370  59.7996870
  43.7446240   3.8044540  60.7043490  43.1897850   4.4535830  59.4542840
  51.2003080   4.0270740  58.3987520  50.6011970   4.7506540  58.2151140
  51.7482690   3.9647520  57.6163970  49.8067950   2.6634280  60.4290800
  50.1997520   2.9806480  59.6159490  50.1684800   1.7846160  60.5435320
  39.0302350   3.1955200  53.8623720  38.9477020   4.1385960  54.0038710
  38.6785410   3.0530110  52.9836070  50.3923090   5.2540030  64.5241580
  49.6604210   5.7626840  64.8731680  49.9947430   4.4370010  64.2230360
  46.8920630   2.9306310  55.9200830  47.0133450   2.8892790  56.8686650
  46.5069140   3.7930460  55.7647560  45.9042130   5.2407450  55.3184130
  45.3359030   4.7925700  54.6920040  46.6131130   5.6000230  54.7849280
  47.1308450   5.9896010  64.6759480  47.4978580   5.5154580  65.4220820
  46.9413510   6.8637580  65.0167820  44.9207820   5.0304650  66.9943690
  44.6164890   5.9096630  67.2194050  45.8754280   5.0904440  67.0301130
  43.4489610   9.2365640  57.5910540  42.6751870   8.6963260  57.4309260
  44.1784240   8.7172250  57.2528300  54.2077590   8.2331000  63.3836930
  54.9276710   8.7286290  62.9933040  54.0059410   7.5548890  62.7390800
  52.3835920   3.9988610  55.8228480  53.2715540   4.3105840  55.6479820
  52.3541010   3.1260860  55.4309060  43.4927010   8.9046020  61.2289350
  44.0105680   8.1014280  61.1746240  43.0411030   8.8425160  62.0706180
  48.3796510  10.1712300  56.5016650  48.7212210  10.9154530  56.0059970
  47.5509220  10.4843420  56.8641480  54.6550190   5.3100450  55.2908340
  54.5713910   5.7414670  54.4404780  55.3744380   5.7698800  55.7235160
  55.6837440  12.1642710  58.0190470  55.0413600  11.5098330  58.2934190
  55.2968100  12.5697800  57.2431140  51.2623920   9.4928140  61.8662160
  51.6147740   8.8956270  61.2063530  50.3786250   9.1672370  62.0370410
  47.3487200  10.2525830  59.2732570  48.0358330  10.7995040  59.6540160
  46.5619620  10.7966560  59.3082180  39.4879600   5.8698650  54.7649650
  40.3574450   6.1523450  55.0485570  38.9969920   6.6834520  54.6498460
  46.6514410   7.2571860  58.8857930  47.1077190   8.0677110  59.1118120
  46.3002620   6.9395000  59.7176420  48.9547020  12.7678200  66.1150230
  49.5989240  12.9737580  66.7923650  49.3176460  12.0066600  65.6621080
  50.2279100  10.7710550  64.8327680  50.8701330  10.0703710  64.9459850
  50.7528450  11.5508990  64.6524570  54.0734820  11.0559170  54.5566820
  53.8472400  10.3389610  55.1491460  53.6831020  10.8071610  53.7188570
  39.8550850  15.0826030  55.3311280  40.2148490  15.6815370  54.6768550
  39.7143190  15.6285920  56.1046310  53.6551070   8.9731110  56.2180980
  53.3672770   9.4343800  57.0058860  54.4503240   8.5128880  56.4865200
  45.8719470  12.4657230  56.1484950  45.8629570  13.1986920  55.5329460
  44.9517830  12.2188810  56.2411910  41.4726110   7.6872120  56.8931710
  40.8654060   8.4271020  56.9027010  41.9475460   7.7771480  56.0669910
  48.8579070  12.5285470  54.8110140  48.9591050  12.3249460  53.8812120
  47.9580810  12.2743750  55.0157920  46.3804960   3.0865830  58.7934040
  45.6721110   3.5552170  59.2347650  46.6649440   2.4287840  59.4279230
  48.0060890   4.5062530  66.7926570  48.5046140   4.9808350  67.4578420
  48.1483840   3.5826050  66.9996600  47.4997180  15.0471790  59.5057810
  47.7538680  15.0093180  58.5837180  46.5509660  14.9205120  59.4986060
  53.5049760   5.9663670  61.0816320  52.5639900   5.9813900  61.2564010
  53.8193830   5.1799630  61.5276620  43.4831400   7.6483270  54.6420280
  44.2494670   7.5364630  55.2045710  43.5606090   6.9521240  53.9897050
  42.1778160   5.0808340  55.3253170  42.2581750   4.1335850  55.4370570
  43.0697910   5.4115220  55.4313830  55.5075340  13.1372520  62.7570580
  55.6322760  13.9603690  63.2294390  56.3740900  12.9263250  62.4094730
  42.9792870  15.2303730  62.4287710  43.7155350  14.6819190  62.6996280
  43.3633790  16.0959740  62.2893700  39.8638350  11.2977300  58.3029220
  38.9378130  11.5398440  58.2934630  40.3294780  12.1251560  58.1813970
  46.0895180  14.4034040  54.2513280  46.8823790  14.6922870  53.7995070
  45.5699530  13.9726210  53.5725760  55.1425350  13.6304170  55.6750020
  54.8566860  13.2169310  54.8604200  54.9444900  14.5591880  55.5550540
  46.6072580   9.6237450  54.1155630  46.5023220   9.0089800  54.8417010
  46.4396800   9.1003340  53.3318640  49.8475310   8.6857480  54.7197620
  49.2985410   9.1326780  55.3640360  50.4694570   8.1806730  55.2435290
  45.5150430   7.6448400  56.6162920  45.9366850   7.4788270  57.4594310
  45.6401270   6.8348630  56.1218060  48.0278070   6.6686010  53.8640020
  48.5483730   5.9535030  53.4981170  48.6746470   7.3071880  54.1640530
  47.3371140   8.0434890  67.1571020  47.7559250   8.8867620  66.9847260
  46.4179770   8.1806930  66.9277800  52.0122940   6.3288260  67.1171370
  51.4858160   6.8530880  66.5136510  52.3554280   6.9615650  67.7481100
  44.4109330   3.7181630  53.5621080  44.2098390   2.8548990  53.9234420
  44.2401380   3.6314990  52.6242680  48.5926100  14.7497620  56.1541760
  49.4876890  15.0882590  56.1760520  48.6243730  14.0277030  55.5266040
  42.2322260  10.1224670  54.3828760  42.6697130  10.6654340  55.0386340
  42.7169990   9.2971620  54.3925100  39.4468060  12.9113700  61.8349020
  39.7771070  12.0434760  61.6027660  39.8759060  13.1172220  62.6653980
  44.0429980  11.2422710  59.4950990  43.7425520  11.1187680  60.3954900
  43.9367470  10.3831300  59.0866720  39.9358270  13.7784290  64.5730650
  39.4989260  13.9585090  65.4054800  40.5035950  14.5358910  64.4312370
  56.8121900  11.0219110  54.1977670  55.9814860  11.0895760  54.6684900
  56.9893730  11.9123230  53.8944530  56.2678360   7.7666590  56.7011870
  57.0297270   8.3363240  56.8071560  56.2832730   7.1993790  57.4720180
  39.7682700   6.2904520  60.9319530  39.1131540   6.0216160  60.2879230
  40.6060650   6.1809000  60.4821510  57.2738330   8.6216690  61.5453800
  57.6447160   7.8384010  61.1389770  57.9140260   9.3105790  61.3671100
  54.2572090  10.0053270  66.9584120  53.4431930  10.4350430  67.2209910
  54.6646290  10.6171680  66.3453170  56.3197530   8.0600960  53.8584390
  56.5946370   8.9679840  53.7303610  56.1308270   7.9963490  54.7946380
  56.2162870   5.9969950  58.8513820  55.8406470   5.2297880  58.4195110
  55.4865990   6.3792650  59.3388750  40.8058630   6.6757090  65.4722870
  41.1731670   6.5884490  66.3518890  40.2369450   5.9123640  65.3729730
  38.9820780   3.5003450  56.8744860  38.0784860   3.7633650  56.6996520
  39.4661400   3.7714620  56.0944820  55.4913830   4.2227440  62.1521060
  56.0151310   3.7290090  61.5211230  56.0773250   4.3577800  62.8968630
  55.6703550   4.3067310  65.6740610  54.7206260   4.2730850  65.7885600
  55.8516560   5.2167420  65.4390380  41.5247990   2.5568990  54.7839240
  42.2339690   2.1352210  54.2986520  40.8087930   2.6244220  54.1522590
  54.9813800   3.4800790  58.0913470  55.4772920   3.2471660  58.8762350
  54.7829870   2.6412630  57.6751110  56.4100960   2.1161740  60.6251150
  56.3000240   1.9617780  61.5633420  57.1708550   1.5882680  60.3826560
  54.3148140  14.7571870  60.4852390  54.9107210  14.4356440  59.8086810
  54.5726290  14.2843690  61.2765660  45.9216740  12.7449370  66.2352740
  45.6808100  13.0123930  65.3483260  46.8619380  12.9155100  66.2903600
  57.1820900  14.7643750  67.0363380  56.6879180  15.1612620  66.3190510
  56.5734190  14.1392960  67.4300660  54.8660350  15.4067170  64.3150120
  54.4063320  16.1582980  63.9408140  54.2372810  14.6873640  64.2564920
  41.6910970  11.5010410  66.7048840  40.9645030  10.8815700  66.6374790
  41.7520120  11.8951020  65.8346920  45.2956070  13.7155410  63.4898250
  45.8121090  13.1042770  62.9646510  45.9453450  14.2184190  63.9809260
  48.0351570  14.6063900  64.3167230  48.3229380  14.3518200  63.4400240
  48.5474790  14.0541260  64.9072800  39.9740970  14.8184800  59.9145600
  39.8063010  14.1855480  60.6127490  39.1075480  15.0244200  59.5639790
  41.5803670  13.5118030  57.3595740  41.0551290  13.8926060  56.6557700
  41.5048250  14.1368800  58.0805450  56.3368990  15.0705570  58.6809680
  56.5121180  14.3843310  58.0370600  55.6390560  15.5952620  58.2886350
  44.1796640  15.4600410  56.2344990  44.9115460  15.1759690  55.6868880
  44.4390310  15.2213690  57.1244370  43.3411430  11.5765140  56.2391320
  42.7120310  12.0450240  56.7877150  43.4559260  10.7314360  56.6737510
  50.7961150   5.6270800  42.3892520  50.7155200   4.7125410  42.1184230
  50.3825570   6.1237870  41.6832230  48.9279190   7.4049820  44.2701790
  48.1521290   6.9250260  44.5600360  49.5792120   6.7255470  44.0957950
  42.9445020   7.7169630  45.1477550  42.1129900   7.4618340  45.5474060
  43.5526000   7.7880400  45.8835470  52.9486620  11.8110010  43.0500920
  52.4868150  11.0397250  43.3788090  53.7612170  11.8376080  43.5553370
  42.9246280  11.7509720  45.3435570  43.2274320  10.8607460  45.1645790
  43.6689870  12.3079940  45.1157820  41.3536970   2.6771520  38.9319940
  40.4653670   3.0187490  38.8299820  41.6378160   2.4771840  38.0400770
  39.3169980   5.2777170  44.8159640  39.8886090   4.5099370  44.8163280
  39.3171520   5.5765930  43.9066250  49.1749930  14.0968020  42.6704910
  48.5561370  14.5525520  42.0999350  50.0301710  14.2519480  42.2694610
  48.3688180  10.0807010  44.2771950  48.2996460   9.1396950  44.1161080
  49.1308040  10.1708420  44.8494520  49.3993350   2.8877390  44.5040880
  49.7758170   2.0149270  44.3914550  49.3012860   3.2236090  43.6131320
  41.1781520   3.1822030  45.2110910  41.8591630   3.4460400  45.8298310
  40.8629570   2.3422900  45.5448920  45.3706090   4.2289390  44.2983500
  45.8784310   4.7270360  44.9388520  45.9019330   3.4524590  44.1222860
  57.4717020   2.3994580  48.0012850  56.7669190   2.7876290  47.4827960
  57.7374940   3.0944870  48.6033780  50.0413280   8.9807260  40.0636820
  49.4230550   9.4456710  39.4999540  50.5536530   9.6734740  40.4806330
  44.9045040   8.5083130  46.7420420  44.5714420   9.1352050  47.3841490
  45.0811720   9.0345010  45.9622090  53.4178950   2.3228210  44.2096760
  52.7134520   2.6113100  44.7899870  53.7791110   3.1328320  43.8496320
  44.1164140  10.4763930  48.5569600  44.7338140  11.1515010  48.2754050
  43.2557260  10.8851910  48.4657100  39.4096480   9.6663790  37.4376450
  39.0324460  10.1550890  36.7061350  39.6669550  10.3389070  38.0682980
  55.0341730  11.9403340  46.4724240  54.3505250  12.6102450  46.4640910
  55.5736020  12.1383990  45.7069100  56.4865870   1.7683000  44.6005970
  55.5390780   1.8021980  44.7321400  56.8115860   2.5821950  44.9855330
  52.5700470  13.7847470  45.1869420  52.5827630  13.3809760  44.3191680
  52.0175690  14.5594760  45.0830850  53.8645890  10.5063690  40.2759590
  53.7542220   9.5638020  40.4009010  53.8614140  10.8679330  41.1622350
  51.9685910   8.6877310  46.5152030  52.3854700   8.4737420  45.6805490
  52.6925730   8.9450100  47.0860650  49.4066170   6.1329010  39.6322080
  48.4795450   6.0666390  39.8610550  49.5590990   7.0709140  39.5177320
  49.3935250   2.4046010  36.6289240  48.4538920   2.5659970  36.7141700
  49.7118510   3.1231690  36.0825230  55.9148010   7.0864530  46.6068270
  55.0866640   7.1557620  46.1318400  56.5098490   7.6718840  46.1384100
  53.4363460   7.6949310  40.1357330  52.8175880   7.3568860  39.4883630
  53.4187910   7.0509070  40.8436520  52.8790020   3.8733850  47.5523140
  52.4661200   4.6987560  47.8063130  52.1465970   3.2878890  47.3599500
  45.0122810   6.6593750  42.4141810  44.6079810   5.9471000  41.9187710
  45.0985930   6.3146990  43.3029850  45.4804510  10.3461310  44.5781020
  45.1832800   9.7406780  43.8988800  46.4304330  10.3838620  44.4670380
  43.7251430   3.4336960  46.1940850  44.2766020   3.5432300  45.4194100
  44.2394940   3.8074560  46.9096080  53.5690120  13.9193180  48.2404120
  53.0920680  14.7265370  48.0476730  52.8851910  13.2671510  48.3930330
  44.5722940  10.0843000  51.2288820  43.6751470  10.3082970  51.4762220
  44.5975810  10.2077940  50.2800220  51.6128160   6.9336120  37.1430080
  52.0521440   6.0958550  36.9967900  52.3256580   7.5665520  37.2294220
  43.3994160   6.9556320  49.8046190  43.2601930   7.8279120  50.1733590
  42.5175520   6.6129130  49.6594130  49.7223540  11.8732190  41.1111320
  50.1619450  12.6156520  40.6966710  49.6610430  12.1158760  42.0350280
  45.1974510  12.8978020  52.0131340  45.1689940  13.3020970  51.1459770
  45.0339480  11.9688380  51.8502940  41.7127440   5.5538730  39.9148460
  41.5925040   6.2800820  39.3029730  41.4028330   4.7841640  39.4376370
  57.1489330  13.6805120  53.3095510  57.6249050  14.1588010  53.9884590
  57.7696490  13.6122610  52.5841010  39.3512810   8.7253870  45.7217100
  39.4293230   8.8602640  44.7772820  39.9654490   8.0169760  45.9145220
  40.5960440  10.4254060  42.1323280  40.1888520  10.5668650  41.2776880
  41.4873450  10.1414220  41.9294490  56.5522580  10.8717970  50.4695520
  56.6785640  10.6329850  49.5512700  56.5943960  10.0402510  50.9417600
  50.4139320  14.5745970  49.0390330  50.9283990  14.4853980  49.8412760
  49.5708400  14.9205670  49.3318240  52.3893720  14.8601310  38.4674330
  52.2294860  14.5704250  39.3656160  52.2240430  14.0841440  37.9319560
  44.8682100  14.6399840  40.2445950  44.6924580  13.7235380  40.0313750
  44.0137840  14.9987130  40.4843750  52.0919850  12.3688870  37.0272330
  51.3985010  12.3666160  36.3674610  52.8342710  11.9448190  36.5966500
  51.6569780  13.9951580  41.1020820  52.1126730  13.2140960  41.4159440
  51.9962300  14.7058400  41.6462000  56.4046590   2.9250430  51.4345260
  55.7890860   3.4330100  50.9060720  56.0843010   2.0248760  51.3771200
  39.4072330   9.7668040  48.2611560  39.5703370   9.2973400  47.4430930
  39.8724780   9.2591600  48.9260400  53.4665420   2.9851270  50.0304110
  52.6159010   2.6857020  50.3513180  53.3067210   3.2293280  49.1187930
  50.5615130   4.4853020  52.1302900  50.8868540   3.6516770  51.7905130
  51.3495460   5.0081540  52.2781230  43.9705320   4.0207370  41.0253380
  43.7446240   3.8044540  41.9300000  43.1897850   4.4535830  40.6799350
  51.2003080   4.0270740  39.6244030  50.6011970   4.7506540  39.4407650
  51.7482690   3.9647520  38.8420480  46.4104530   4.9192950  51.6913650
  46.3148130   3.9787680  51.5414050  47.2536510   5.1408020  51.2961720
  49.8067950   2.6634280  41.6547310  50.1997520   2.9806480  40.8416000
  50.1684800   1.7846160  41.7691830  39.0302350   3.1955200  35.0880230
  38.9477020   4.1385960  35.2295220  38.6785410   3.0530110  34.2092580
  50.3923090   5.2540030  45.7498090  49.6604210   5.7626840  46.0988190
  49.9947430   4.4370010  45.4486870  46.8920630   2.9306310  37.1457340
  47.0133450   2.8892790  38.0943160  46.5069140   3.7930460  36.9904070
  45.9042130   5.2407450  36.5440640  45.3359030   4.7925700  35.9176550
  46.6131130   5.6000230  36.0105790  40.9811310   9.1419470  50.4207370
  40.5966100   8.5013140  51.0190330  41.2923500   9.8455590  50.9902100
  47.1308450   5.9896010  45.9015990  47.4978580   5.5154580  46.6477330
  46.9413510   6.8637580  46.2424330  44.9207820   5.0304650  48.2200200
  44.6164890   5.9096630  48.4450560  45.8754280   5.0904440  48.2557640
  43.4489610   9.2365640  38.8167050  42.6751870   8.6963260  38.6565770
  44.1784240   8.7172250  38.4784810  54.2077590   8.2331000  44.6093440
  54.9276710   8.7286290  44.2189550  54.0059410   7.5548890  43.9647310
  49.5896390   8.3040060  50.4962440  49.5233700   7.3835730  50.2420030
  48.9601530   8.4015500  51.2107080  52.3835920   3.9988610  37.0484990
  53.2715540   4.3105840  36.8736330  52.3541010   3.1260860  36.6565570
  43.4927010   8.9046020  42.4545860  44.0105680   8.1014280  42.4002750
  43.0411030   8.8425160  43.2962690  48.3796510  10.1712300  37.7273160
  48.7212210  10.9154530  37.2316480  47.5509220  10.4843420  38.0897990
  40.9771550   5.8707390  49.3671560  40.6186490   6.5361240  49.9544900
  40.6826110   5.0390940  49.7384180  44.1784670   6.3291630  52.2511110
  43.8784810   6.4748810  51.3538930  44.9495910   5.7696920  52.1584500
  49.5213120  11.1260630  50.2466240  49.5357660  10.1941590  50.0285150
  48.8138220  11.2120390  50.8856010  54.6550190   5.3100450  36.5164850
  54.5713910   5.7414670  35.6661290  55.3744380   5.7698800  36.9491670
  55.7324330   7.7667970  49.5934820  55.0072520   8.3596750  49.3964210
  56.2599790   7.7591510  48.7948190  55.6837440  12.1642710  39.2446980
  55.0413600  11.5098330  39.5190700  55.2968100  12.5697800  38.4687650
  51.2623920   9.4928140  43.0918670  51.6147740   8.8956270  42.4320040
  50.3786250   9.1672370  43.2626920  47.3487200  10.2525830  40.4989080
  48.0358330  10.7995040  40.8796670  46.5619620  10.7966560  40.5338690
  39.4879600   5.8698650  35.9906160  40.3574450   6.1523450  36.2742080
  38.9969920   6.6834520  35.8754970  46.6514410   7.2571860  40.1114440
  47.1077190   8.0677110  40.3374630  46.3002620   6.9395000  40.9432930
  48.9547020  12.7678200  47.3406740  49.5989240  12.9737580  48.0180160
  49.3176460  12.0066600  46.8877590  50.2279100  10.7710550  46.0584190
  50.8701330  10.0703710  46.1716360  50.7528450  11.5508990  45.8781080
  54.0734820  11.0559170  35.7823330  53.8472400  10.3389610  36.3747970
  53.6831020  10.8071610  34.9445080  52.0016720  11.5705450  49.2620250
  52.3372960  12.1572140  49.9398170  51.0817060  11.4398160  49.4918040
  39.8550850  15.0826030  36.5567790  40.2148490  15.6815370  35.9025060
  39.7143190  15.6285920  37.3302820  53.6551070   8.9731110  37.4437490
  53.3672770   9.4343800  38.2315370  54.4503240   8.5128880  37.7121710
  39.8392710  13.3480890  51.0310190  39.9483830  12.4075630  50.8905580
  39.1873270  13.6135640  50.3823920  47.8305300  11.6196780  52.4308310
  47.5102170  10.9006020  52.9754000  47.1563660  12.2951850  52.5044370
  45.8719470  12.4657230  37.3741460  45.8629570  13.1986920  36.7585970
  44.9517830  12.2188810  37.4668420  41.4726110   7.6872120  38.1188220
  40.8654060   8.4271020  38.1283520  41.9475460   7.7771480  37.2926420
  48.8579070  12.5285470  36.0366650  48.9591050  12.3249460  35.1068630
  47.9580810  12.2743750  36.2414430  46.3804960   3.0865830  40.0190550
  45.6721110   3.5552170  40.4604160  46.6649440   2.4287840  40.6535740
  48.0060890   4.5062530  48.0183080  48.5046140   4.9808350  48.6834930
  48.1483840   3.5826050  48.2253110  47.4997180  15.0471790  40.7314320
  47.7538680  15.0093180  39.8093690  46.5509660  14.9205120  40.7242570
  53.5049760   5.9663670  42.3072830  52.5639900   5.9813900  42.4820520
  53.8193830   5.1799630  42.7533130  43.4831400   7.6483270  35.8676790
  44.2494670   7.5364630  36.4302220  43.5606090   6.9521240  35.2153560
  42.1778160   5.0808340  36.5509680  42.2581750   4.1335850  36.6627080
  43.0697910   5.4115220  36.6570340  55.5075340  13.1372520  43.9827090
  55.6322760  13.9603690  44.4550900  56.3740900  12.9263250  43.6351240
  42.9792870  15.2303730  43.6544220  43.7155350  14.6819190  43.9252790
  43.3633790  16.0959740  43.5150210  39.8638350  11.2977300  39.5285730
  38.9378130  11.5398440  39.5191140  40.3294780  12.1251560  39.4070480
  41.9851150  14.4149800  52.8429800  42.7863880  14.7361850  53.2565200
  41.4702970  14.0545380  53.5649710  46.0895180  14.4034040  35.4769790
  46.8823790  14.6922870  35.0251580  45.5699530  13.9726210  34.7982270
  50.8215780  10.5229670  52.7905210  50.2153940  10.5461270  52.0500960
  50.5169890   9.7912710  53.3272460  52.2516150  14.2509960  51.4014620
  53.2037900  14.1667980  51.3514860  52.1044370  14.9151670  52.0748410
  55.1425350  13.6304170  36.9006530  54.8566860  13.2169310  36.0860710
  54.9444900  14.5591880  36.7807050  39.7048960   6.9023260  51.7865850
  40.2087980   6.3230540  52.3582080  38.9656380   7.1863490  52.3242220
  46.6072580   9.6237450  35.3412140  46.5023220   9.0089800  36.0673520
  46.4396800   9.1003340  34.5575150  46.7586900   8.3094250  51.3201370
  45.9932570   8.8779250  51.2356040  46.9402860   8.0170460  50.4269600
  49.8475310   8.6857480  35.9454130  49.2985410   9.1326780  36.5896870
  50.4694570   8.1806730  36.4691800  53.9010250  10.0399580  51.8776390
  54.6419720  10.3775340  51.3743850  53.1382930  10.2091640  51.3246160
  41.7372040   5.0452850  52.6815920  41.7777380   4.7466720  53.5901150
  42.5917540   5.4460460  52.5223440  45.5150430   7.6448400  37.8419430
  45.9366850   7.4788270  38.6850820  45.6401270   6.8348630  37.3474570
  43.6777850   3.6244950  50.6490410  43.1474310   3.1335900  50.0213750
  44.3465920   4.0529150  50.1148340  48.0278070   6.6686010  35.0896530
  48.5483730   5.9535030  34.7237680  48.6746470   7.3071880  35.3897040
  52.5755910   8.0914410  50.4131600  52.9896930   8.2459490  51.2622020
  51.6406910   8.2169630  50.5757380  53.0478080   5.4310570  52.4170750
  53.6298850   4.6762890  52.3291230  53.2239850   5.9618010  51.6402230
  47.3371140   8.0434890  48.3827530  47.7559250   8.8867620  48.2103770
  46.4179770   8.1806930  48.1534310  49.6735040   5.7751070  49.7665370
  49.7931250   5.1792210  50.5060210  50.5329040   5.8120760  49.3466670
  52.0122940   6.3288260  48.3427880  51.4858160   6.8530880  47.7393020
  52.3554280   6.9615650  48.9737610  44.4109330   3.7181630  34.7877590
  44.2098390   2.8548990  35.1490930  44.2401380   3.6314990  33.8499190
  45.1878560  14.3487900  49.4985260  44.6499650  15.0733960  49.1793960
  45.4412520  13.8718240  48.7082600  46.4403810   2.3172420  51.0241190
  47.0303500   2.0088270  51.7119010  45.6224050   1.8452170  51.1801090
  48.0440770  15.5839110  49.7571910  47.9699470  16.4874250  50.0644280
  47.1419610  15.2651010  49.7293980  48.5926100  14.7497620  37.3798270
  49.4876890  15.0882590  37.4017030  48.6243730  14.0277030  36.7522550
  42.2322260  10.1224670  35.6085270  42.6697130  10.6654340  36.2642850
  42.7169990   9.2971620  35.6181610  39.4468060  12.9113700  43.0605530
  39.7771070  12.0434760  42.8284170  39.8759060  13.1172220  43.8910490
  44.0429980  11.2422710  40.7207500  43.7425520  11.1187680  41.6211410
  43.9367470  10.3831300  40.3123230  39.9358270  13.7784290  45.7987160
  39.4989260  13.9585090  46.6311310  40.5035950  14.5358910  45.6568880
  55.5720450  13.2801290  50.0864470  54.9722440  13.3393850  49.3428390
  55.7014350  12.3406270  50.2161320  56.8121900  11.0219110  35.4234180
  55.9814860  11.0895760  35.8941410  56.9893730  11.9123230  35.1201040
  56.2678360   7.7666590  37.9268380  57.0297270   8.3363240  38.0328070
  56.2832730   7.1993790  38.6976690  39.7682700   6.2904520  42.1576040
  39.1131540   6.0216160  41.5135740  40.6060650   6.1809000  41.7078020
  57.2738330   8.6216690  42.7710310  57.6447160   7.8384010  42.3646280
  57.9140260   9.3105790  42.5927610  54.2572090  10.0053270  48.1840630
  53.4431930  10.4350430  48.4466420  54.6646290  10.6171680  47.5709680
  56.3197530   8.0600960  35.0840900  56.5946370   8.9679840  34.9560120
  56.1308270   7.9963490  36.0202890  56.2162870   5.9969950  40.0770330
  55.8406470   5.2297880  39.6451620  55.4865990   6.3792650  40.5645260
  40.8058630   6.6757090  46.6979380  41.1731670   6.5884490  47.5775400
  40.2369450   5.9123640  46.5986240  55.6062490   5.1441470  49.7109850
  55.3748580   4.9154220  48.8107800  55.8667040   6.0641020  49.6654740
  40.3574630   3.5866180  50.6037800  39.4630680   3.5532940  50.9431510
  40.8972180   3.7852970  51.3689050  38.9820780   3.5003450  38.1001370
  38.0784860   3.7633650  37.9253030  39.4661400   3.7714620  37.3201330
  55.4913830   4.2227440  43.3777570  56.0151310   3.7290090  42.7467740
  56.0773250   4.3577800  44.1225140  55.6703550   4.3067310  46.8997120
  54.7206260   4.2730850  47.0142110  55.8516560   5.2167420  46.6646890
  41.5247990   2.5568990  36.0095750  42.2339690   2.1352210  35.5243030
  40.8087930   2.6244220  35.3779100  54.9813800   3.4800790  39.3169980
  55.4772920   3.2471660  40.1018860  54.7829870   2.6412630  38.9007620
  56.4100960   2.1161740  41.8507660  56.3000240   1.9617780  42.7889930
  57.1708550   1.5882680  41.6083070  54.3148140  14.7571870  41.7108900
  54.9107210  14.4356440  41.0343320  54.5726290  14.2843690  42.5022170
  42.2210710  11.1889780  51.8599530  42.1780340  10.8182690  52.7413990
  42.3521720  12.1267350  52.0001350  45.9216740  12.7449370  47.4609250
  45.6808100  13.0123930  46.5739770  46.8619380  12.9155100  47.5160110
  57.1820900  14.7643750  48.2619890  56.6879180  15.1612620  47.5447020
  56.5734190  14.1392960  48.6557170  42.0598740  14.1352030  48.9797310
  41.4659060  14.0036730  49.7187350  42.0522580  13.2990170  48.5139410
  54.8660350  15.4067170  45.5406630  54.4063320  16.1582980  45.1664650
  54.2372810  14.6873640  45.4821430  41.6910970  11.5010410  47.9305350
  40.9645030  10.8815700  47.8631300  41.7520120  11.8951020  47.0603430
  45.2956070  13.7155410  44.7154760  45.8121090  13.1042770  44.1903020
  45.9453450  14.2184190  45.2065770  48.0351570  14.6063900  45.5423740
  48.3229380  14.3518200  44.6656750  48.5474790  14.0541260  46.1329310
  39.9740970  14.8184800  41.1402110  39.8063010  14.1855480  41.8384000
  39.1075480  15.0244200  40.7896300  41.5803670  13.5118030  38.5852250
  41.0551290  13.8926060  37.8814210  41.5048250  14.1368800  39.3061960
  48.1023930  15.5280000  52.9091940  49.0291240  15.2924270  52.9527900
  48.0874360  16.3552000  52.4277970  56.3368990  15.0705570  39.9066190
  56.5121180  14.3843310  39.2627110  55.6390560  15.5952620  39.5142860
  44.1796640  15.4600410  37.4601500  44.9115460  15.1759690  36.9125390
  44.4390310  15.2213690  38.3500880  43.3411430  11.5765140  37.4647830
  42.7120310  12.0450240  38.0133660  43.4559260  10.7314360  37.8994020
  54.6701490  14.7549860  52.7332980  55.4626810  14.2599090  52.5258940
  54.9634640  15.4340000  53.3408590  50.7961150   5.6270800  23.6149030
  50.7155200   4.7125410  23.3440740  50.3825570   6.1237870  22.9088740
  48.9279190   7.4049820  25.4958300  48.1521290   6.9250260  25.7856870
  49.5792120   6.7255470  25.3214460  42.9445020   7.7169630  26.3734060
  42.1129900   7.4618340  26.7730570  43.5526000   7.7880400  27.1091980
  52.9486620  11.8110010  24.2757430  52.4868150  11.0397250  24.6044600
  53.7612170  11.8376080  24.7809880  42.9246280  11.7509720  26.5692080
  43.2274320  10.8607460  26.3902300  43.6689870  12.3079940  26.3414330
  41.3536970   2.6771520  20.1576450  40.4653670   3.0187490  20.0556330
  41.6378160   2.4771840  19.2657280  39.3169980   5.2777170  26.0416150
  39.8886090   4.5099370  26.0419790  39.3171520   5.5765930  25.1322760
  49.1749930  14.0968020  23.8961420  48.5561370  14.5525520  23.3255860
  50.0301710  14.2519480  23.4951120  48.3688180  10.0807010  25.5028460
  48.2996460   9.1396950  25.3417590  49.1308040  10.1708420  26.0751030
  49.3993350   2.8877390  25.7297390  49.7758170   2.0149270  25.6171060
  49.3012860   3.2236090  24.8387830  41.1781520   3.1822030  26.4367420
  41.8591630   3.4460400  27.0554820  40.8629570   2.3422900  26.7705430
  45.3706090   4.2289390  25.5240010  45.8784310   4.7270360  26.1645030
  45.9019330   3.4524590  25.3479370  57.4717020   2.3994580  29.2269360
  56.7669190   2.7876290  28.7084470  57.7374940   3.0944870  29.8290290
  50.0413280   8.9807260  21.2893330  49.4230550   9.4456710  20.7256050
  50.5536530   9.6734740  21.7062840  44.9045040   8.5083130  27.9676930
  44.5714420   9.1352050  28.6098000  45.0811720   9.0345010  27.1878600
  53.4178950   2.3228210  25.4353270  52.7134520   2.6113100  26.0156380
  53.7791110   3.1328320  25.0752830  44.1164140  10.4763930  29.7826110
  44.7338140  11.1515010  29.5010560  43.2557260  10.8851910  29.6913610
  39.4096480   9.6663790  18.6632960  39.0324460  10.1550890  17.9317860
  39.6669550  10.3389070  19.2939490  55.0341730  11.9403340  27.6980750
  54.3505250  12.6102450  27.6897420  55.5736020  12.1383990  26.9325610
  56.4865870   1.7683000  25.8262480  55.5390780   1.8021980  25.9577910
  56.8115860   2.5821950  26.2111840  52.5700470  13.7847470  26.4125930
  52.5827630  13.3809760  25.5448190  52.0175690  14.5594760  26.3087360
  53.8645890  10.5063690  21.5016100  53.7542220   9.5638020  21.6265520
  53.8614140  10.8679330  22.3878860  51.9685910   8.6877310  27.7408540
  52.3854700   8.4737420  26.9062000  52.6925730   8.9450100  28.3117160
  49.4066170   6.1329010  20.8578590  48.4795450   6.0666390  21.0867060
  49.5590990   7.0709140  20.7433830  49.3935250   2.4046010  17.8545750
  48.4538920   2.5659970  17.9398210  49.7118510   3.1231690  17.3081740
  55.9148010   7.0864530  27.8324780  55.0866640   7.1557620  27.3574910
  56.5098490   7.6718840  27.3640610  53.4363460   7.6949310  21.3613840
  52.8175880   7.3568860  20.7140140  53.4187910   7.0509070  22.0693030
  52.8790020   3.8733850  28.7779650  52.4661200   4.6987560  29.0319640
  52.1465970   3.2878890  28.5856010  45.0122810   6.6593750  23.6398320
  44.6079810   5.9471000  23.1444220  45.0985930   6.3146990  24.5286360
  45.4804510  10.3461310  25.8037530  45.1832800   9.7406780  25.1245310
  46.4304330  10.3838620  25.6926890  43.7251430   3.4336960  27.4197360
  44.2766020   3.5432300  26.6450610  44.2394940   3.8074560  28.1352590
  53.5690120  13.9193180  29.4660630  53.0920680  14.7265370  29.2733240
  52.8851910  13.2671510  29.6186840  44.5722940  10.0843000  32.4545330
  43.6751470  10.3082970  32.7018730  44.5975810  10.2077940  31.5056730
  51.6128160   6.9336120  18.3686590  52.0521440   6.0958550  18.2224410
  52.3256580   7.5665520  18.4550730  43.3994160   6.9556320  31.0302700
  43.2601930   7.8279120  31.3990100  42.5175520   6.6129130  30.8850640
  49.7223540  11.8732190  22.3367830  50.1619450  12.6156520  21.9223220
  49.6610430  12.1158760  23.2606790  45.1974510  12.8978020  33.2387850
  45.1689940  13.3020970  32.3716280  45.0339480  11.9688380  33.0759450
  41.7127440   5.5538730  21.1404970  41.5925040   6.2800820  20.5286240
  41.4028330   4.7841640  20.6632880  57.1489330  13.6805120  34.5352020
  57.6249050  14.1588010  35.2141100  57.7696490  13.6122610  33.8097520
  39.3512810   8.7253870  26.9473610  39.4293230   8.8602640  26.0029330
  39.9654490   8.0169760  27.1401730  40.5960440  10.4254060  23.3579790
  40.1888520  10.5668650  22.5033390  41.4873450  10.1414220  23.1551000
  56.5522580  10.8717970  31.6952030  56.6785640  10.6329850  30.7769210
  56.5943960  10.0402510  32.1674110  50.4139320  14.5745970  30.2646840
  50.9283990  14.4853980  31.0669270  49.5708400  14.9205670  30.5574750
  52.3893720  14.8601310  19.6930840  52.2294860  14.5704250  20.5912670
  52.2240430  14.0841440  19.1576070  44.8682100  14.6399840  21.4702460
  44.6924580  13.7235380  21.2570260  44.0137840  14.9987130  21.7100260
  52.0919850  12.3688870  18.2528840  51.3985010  12.3666160  17.5931120
  52.8342710  11.9448190  17.8223010  51.6569780  13.9951580  22.3277330
  52.1126730  13.2140960  22.6415950  51.9962300  14.7058400  22.8718510
  56.4046590   2.9250430  32.6601770  55.7890860   3.4330100  32.1317230
  56.0843010   2.0248760  32.6027710  39.4072330   9.7668040  29.4868070
  39.5703370   9.2973400  28.6687440  39.8724780   9.2591600  30.1516910
  53.4665420   2.9851270  31.2560620  52.6159010   2.6857020  31.5769690
  53.3067210   3.2293280  30.3444440  50.5615130   4.4853020  33.3559410
  50.8868540   3.6516770  33.0161640  51.3495460   5.0081540  33.5037740
  43.9705320   4.0207370  22.2509890  43.7446240   3.8044540  23.1556510
  43.1897850   4.4535830  21.9055860  51.2003080   4.0270740  20.8500540
  50.6011970   4.7506540  20.6664160  51.7482690   3.9647520  20.0676990
  46.4104530   4.9192950  32.9170160  46.3148130   3.9787680  32.7670560
  47.2536510   5.1408020  32.5218230  49.8067950   2.6634280  22.8803820
  50.1997520   2.9806480  22.0672510  50.1684800   1.7846160  22.9948340
  39.0302350   3.1955200  16.3136740  38.9477020   4.1385960  16.4551730
  38.6785410   3.0530110  15.4349090  50.3923090   5.2540030  26.9754600
  49.6604210   5.7626840  27.3244700  49.9947430   4.4370010  26.6743380
  46.8920630   2.9306310  18.3713850  47.0133450   2.8892790  19.3199670
  46.5069140   3.7930460  18.2160580  45.9042130   5.2407450  17.7697150
  45.3359030   4.7925700  17.1433060  46.6131130   5.6000230  17.2362300
  40.9811310   9.1419470  31.6463880  40.5966100   8.5013140  32.2446840
  41.2923500   9.8455590  32.2158610  47.1308450   5.9896010  27.1272500
  47.4978580   5.5154580  27.8733840  46.9413510   6.8637580  27.4680840
  44.9207820   5.0304650  29.4456710  44.6164890   5.9096630  29.6707070
  45.8754280   5.0904440  29.4814150  43.4489610   9.2365640  20.0423560
  42.6751870   8.6963260  19.8822280  44.1784240   8.7172250  19.7041320
  54.2077590   8.2331000  25.8349950  54.9276710   8.7286290  25.4446060
  54.0059410   7.5548890  25.1903820  49.5896390   8.3040060  31.7218950
  49.5233700   7.3835730  31.4676540  48.9601530   8.4015500  32.4363590
  52.3835920   3.9988610  18.2741500  53.2715540   4.3105840  18.0992840
  52.3541010   3.1260860  17.8822080  43.4927010   8.9046020  23.6802370
  44.0105680   8.1014280  23.6259260  43.0411030   8.8425160  24.5219200
  48.3796510  10.1712300  18.9529670  48.7212210  10.9154530  18.4572990
  47.5509220  10.4843420  19.3154500  40.9771550   5.8707390  30.5928070
  40.6186490   6.5361240  31.1801410  40.6826110   5.0390940  30.9640690
  44.1784670   6.3291630  33.4767620  43.8784810   6.4748810  32.5795440
  44.9495910   5.7696920  33.3841010  49.5213120  11.1260630  31.4722750
  49.5357660  10.1941590  31.2541660  48.8138220  11.2120390  32.1112520
  54.6550190   5.3100450  17.7421360  54.5713910   5.7414670  16.8917800
  55.3744380   5.7698800  18.1748180  55.7324330   7.7667970  30.8191330
  55.0072520   8.3596750  30.6220720  56.2599790   7.7591510  30.0204700
  55.6837440  12.1642710  20.4703490  55.0413600  11.5098330  20.7447210
  55.2968100  12.5697800  19.6944160  51.2623920   9.4928140  24.3175180
  51.6147740   8.8956270  23.6576550  50.3786250   9.1672370  24.4883430
  47.3487200  10.2525830  21.7245590  48.0358330  10.7995040  22.1053180
  46.5619620  10.7966560  21.7595200  39.4879600   5.8698650  17.2162670
  40.3574450   6.1523450  17.4998590  38.9969920   6.6834520  17.1011480
  46.6514410   7.2571860  21.3370950  47.1077190   8.0677110  21.5631140
  46.3002620   6.9395000  22.1689440  48.9547020  12.7678200  28.5663250
  49.5989240  12.9737580  29.2436670  49.3176460  12.0066600  28.1134100
  50.2279100  10.7710550  27.2840700  50.8701330  10.0703710  27.3972870
  50.7528450  11.5508990  27.1037590  54.0734820  11.0559170  17.0079840
  53.8472400  10.3389610  17.6004480  53.6831020  10.8071610  16.1701590
  52.0016720  11.5705450  30.4876760  52.3372960  12.1572140  31.1654680
  51.0817060  11.4398160  30.7174550  39.8550850  15.0826030  17.7824300
  40.2148490  15.6815370  17.1281570  39.7143190  15.6285920  18.5559330
  53.6551070   8.9731110  18.6694000  53.3672770   9.4343800  19.4571880
  54.4503240   8.5128880  18.9378220  39.8392710  13.3480890  32.2566700
  39.9483830  12.4075630  32.1162090  39.1873270  13.6135640  31.6080430
  47.8305300  11.6196780  33.6564820  47.5102170  10.9006020  34.2010510
  47.1563660  12.2951850  33.7300880  45.8719470  12.4657230  18.5997970
  45.8629570  13.1986920  17.9842480  44.9517830  12.2188810  18.6924930
  41.4726110   7.6872120  19.3444730  40.8654060   8.4271020  19.3540030
  41.9475460   7.7771480  18.5182930  48.8579070  12.5285470  17.2623160
  48.9591050  12.3249460  16.3325140  47.9580810  12.2743750  17.4670940
  46.3804960   3.0865830  21.2447060  45.6721110   3.5552170  21.6860670
  46.6649440   2.4287840  21.8792250  48.0060890   4.5062530  29.2439590
  48.5046140   4.9808350  29.9091440  48.1483840   3.5826050  29.4509620
  47.4997180  15.0471790  21.9570830  47.7538680  15.0093180  21.0350200
  46.5509660  14.9205120  21.9499080  53.5049760   5.9663670  23.5329340
  52.5639900   5.9813900  23.7077030  53.8193830   5.1799630  23.9789640
  43.4831400   7.6483270  17.0933300  44.2494670   7.5364630  17.6558730
  43.5606090   6.9521240  16.4410070  42.1778160   5.0808340  17.7766190
  42.2581750   4.1335850  17.8883590  43.0697910   5.4115220  17.8826850
  55.5075340  13.1372520  25.2083600  55.6322760  13.9603690  25.6807410
  56.3740900  12.9263250  24.8607750  42.9792870  15.2303730  24.8800730
  43.7155350  14.6819190  25.1509300  43.3633790  16.0959740  24.7406720
  39.8638350  11.2977300  20.7542240  38.9378130  11.5398440  20.7447650
  40.3294780  12.1251560  20.6326990  41.9851150  14.4149800  34.0686310
  42.7863880  14.7361850  34.4821710  41.4702970  14.0545380  34.7906220
  46.0895180  14.4034040  16.7026300  46.8823790  14.6922870  16.2508090
  45.5699530  13.9726210  16.0238780  50.8215780  10.5229670  34.0161720
  50.2153940  10.5461270  33.2757470  50.5169890   9.7912710  34.5528970
  52.2516150  14.2509960  32.6271130  53.2037900  14.1667980  32.5771370
  52.1044370  14.9151670  33.3004920  55.1425350  13.6304170  18.1263040
  54.8566860  13.2169310  17.3117220  54.9444900  14.5591880  18.0063560
  39.7048960   6.9023260  33.0122360  40.2087980   6.3230540  33.5838590
  38.9656380   7.1863490  33.5498730  46.6072580   9.6237450  16.5668650
  46.5023220   9.0089800  17.2930030  46.4396800   9.1003340  15.7831660
  46.7586900   8.3094250  32.5457880  45.9932570   8.8779250  32.4612550
  46.9402860   8.0170460  31.6526110  49.8475310   8.6857480  17.1710640
  49.2985410   9.1326780  17.8153380  50.4694570   8.1806730  17.6948310
  53.9010250  10.0399580  33.1032900  54.6419720  10.3775340  32.6000360
  53.1382930  10.2091640  32.5502670  41.7372040   5.0452850  33.9072430
  41.7777380   4.7466720  34.8157660  42.5917540   5.4460460  33.7479950
  45.5150430   7.6448400  19.0675940  45.9366850   7.4788270  19.9107330
  45.6401270   6.8348630  18.5731080  43.6777850   3.6244950  31.8746920
  43.1474310   3.1335900  31.2470260  44.3465920   4.0529150  31.3404850
  48.0278070   6.6686010  16.3153040  48.5483730   5.9535030  15.9494190
  48.6746470   7.3071880  16.6153550  52.5755910   8.0914410  31.6388110
  52.9896930   8.2459490  32.4878530  51.6406910   8.2169630  31.8013890
  53.0478080   5.4310570  33.6427260  53.6298850   4.6762890  33.5547740
  53.2239850   5.9618010  32.8658740  47.3371140   8.0434890  29.6084040
  47.7559250   8.8867620  29.4360280  46.4179770   8.1806930  29.3790820
  49.6735040   5.7751070  30.9921880  49.7931250   5.1792210  31.7316720
  50.5329040   5.8120760  30.5723180  52.0122940   6.3288260  29.5684390
  51.4858160   6.8530880  28.9649530  52.3554280   6.9615650  30.1994120
  44.4109330   3.7181630  16.0134100  44.2098390   2.8548990  16.3747440
  44.2401380   3.6314990  15.0755700  45.1878560  14.3487900  30.7241770
  44.6499650  15.0733960  30.4050470  45.4412520  13.8718240  29.9339110
  46.4403810   2.3172420  32.2497700  47.0303500   2.0088270  32.9375520
  45.6224050   1.8452170  32.4057600  48.0440770  15.5839110  30.9828420
  47.9699470  16.4874250  31.2900790  47.1419610  15.2651010  30.9550490
  48.5926100  14.7497620  18.6054780  49.4876890  15.0882590  18.6273540
  48.6243730  14.0277030  17.9779060  42.2322260  10.1224670  16.8341780
  42.6697130  10.6654340  17.4899360  42.7169990   9.2971620  16.8438120
  39.4468060  12.9113700  24.2862040  39.7771070  12.0434760  24.0540680
  39.8759060  13.1172220  25.1167000  44.0429980  11.2422710  21.9464010
  43.7425520  11.1187680  22.8467920  43.9367470  10.3831300  21.5379740
  39.9358270  13.7784290  27.0243670  39.4989260  13.9585090  27.8567820
  40.5035950  14.5358910  26.8825390  55.5720450  13.2801290  31.3120980
  54.9722440  13.3393850  30.5684900  55.7014350  12.3406270  31.4417830
  56.8121900  11.0219110  16.6490690  55.9814860  11.0895760  17.1197920
  56.9893730  11.9123230  16.3457550  56.2678360   7.7666590  19.1524890
  57.0297270   8.3363240  19.2584580  56.2832730   7.1993790  19.9233200
  39.7682700   6.2904520  23.3832550  39.1131540   6.0216160  22.7392250
  40.6060650   6.1809000  22.9334530  57.2738330   8.6216690  23.9966820
  57.6447160   7.8384010  23.5902790  57.9140260   9.3105790  23.8184120
  54.2572090  10.0053270  29.4097140  53.4431930  10.4350430  29.6722930
  54.6646290  10.6171680  28.7966190  56.3197530   8.0600960  16.3097410
  56.5946370   8.9679840  16.1816630  56.1308270   7.9963490  17.2459400
  56.2162870   5.9969950  21.3026840  55.8406470   5.2297880  20.8708130
  55.4865990   6.3792650  21.7901770  40.8058630   6.6757090  27.9235890
  41.1731670   6.5884490  28.8031910  40.2369450   5.9123640  27.8242750
  55.6062490   5.1441470  30.9366360  55.3748580   4.9154220  30.0364310
  55.8667040   6.0641020  30.8911250  40.3574630   3.5866180  31.8294310
  39.4630680   3.5532940  32.1688020  40.8972180   3.7852970  32.5945560
  38.9820780   3.5003450  19.3257880  38.0784860   3.7633650  19.1509540
  39.4661400   3.7714620  18.5457840  55.4913830   4.2227440  24.6034080
  56.0151310   3.7290090  23.9724250  56.0773250   4.3577800  25.3481650
  55.6703550   4.3067310  28.1253630  54.7206260   4.2730850  28.2398620
  55.8516560   5.2167420  27.8903400  41.5247990   2.5568990  17.2352260
  42.2339690   2.1352210  16.7499540  40.8087930   2.6244220  16.6035610
  54.9813800   3.4800790  20.5426490  55.4772920   3.2471660  21.3275370
  54.7829870   2.6412630  20.1264130  56.4100960   2.1161740  23.0764170
  56.3000240   1.9617780  24.0146440  57.1708550   1.5882680  22.8339580
  54.3148140  14.7571870  22.9365410  54.9107210  14.4356440  22.2599830
  54.5726290  14.2843690  23.7278680  42.2210710  11.1889780  33.0856040
  42.1780340  10.8182690  33.9670500  42.3521720  12.1267350  33.2257860
  45.9216740  12.7449370  28.6865760  45.6808100  13.0123930  27.7996280
  46.8619380  12.9155100  28.7416620  57.1820900  14.7643750  29.4876400
  56.6879180  15.1612620  28.7703530  56.5734190  14.1392960  29.8813680
  42.0598740  14.1352030  30.2053820  41.4659060  14.0036730  30.9443860
  42.0522580  13.2990170  29.7395920  54.8660350  15.4067170  26.7663140
  54.4063320  16.1582980  26.3921160  54.2372810  14.6873640  26.7077940
  41.6910970  11.5010410  29.1561860  40.9645030  10.8815700  29.0887810
  41.7520120  11.8951020  28.2859940  45.2956070  13.7155410  25.9411270
  45.8121090  13.1042770  25.4159530  45.9453450  14.2184190  26.4322280
  48.0351570  14.6063900  26.7680250  48.3229380  14.3518200  25.8913260
  48.5474790  14.0541260  27.3585820  39.9740970  14.8184800  22.3658620
  39.8063010  14.1855480  23.0640510  39.1075480  15.0244200  22.0152810
  41.5803670  13.5118030  19.8108760  41.0551290  13.8926060  19.1070720
  41.5048250  14.1368800  20.5318470  48.1023930  15.5280000  34.1348450
  49.0291240  15.2924270  34.1784410  48.0874360  16.3552000  33.6534480
  56.3368990  15.0705570  21.1322700  56.5121180  14.3843310  20.4883620
  55.6390560  15.5952620  20.7399370  44.1796640  15.4600410  18.6858010
  44.9115460  15.1759690  18.1381900  44.4390310  15.2213690  19.5757390
  43.3411430  11.5765140  18.6904340  42.7120310  12.0450240  19.2390170
  43.4559260  10.7314360  19.1250530  54.6701490  14.7549860  33.9589490
  55.4626810  14.2599090  33.7515450  54.9634640  15.4340000  34.5665100
  50.7961150   5.6270800   4.8405540  50.7155200   4.7125410   4.5697250
  50.3825570   6.1237870   4.1345250  48.9279190   7.4049820   6.7214810
  48.1521290   6.9250260   7.0113380  49.5792120   6.7255470   6.5470970
  42.9445020   7.7169630   7.5990570  42.1129900   7.4618340   7.9987080
  43.5526000   7.7880400   8.3348490  52.9486620  11.8110010   5.5013940
  52.4868150  11.0397250   5.8301110  53.7612170  11.8376080   6.0066390
  42.9246280  11.7509720   7.7948590  43.2274320  10.8607460   7.6158810
  43.6689870  12.3079940   7.5670840  39.3169980   5.2777170   7.2672660
  39.8886090   4.5099370   7.2676300  39.3171520   5.5765930   6.3579270
  49.1749930  14.0968020   5.1217930  48.5561370  14.5525520   4.5512370
  50.0301710  14.2519480   4.7207630  48.3688180  10.0807010   6.7284970
  48.2996460   9.1396950   6.5674100  49.1308040  10.1708420   7.3007540
  49.3993350   2.8877390   6.9553900  49.7758170   2.0149270   6.8427570
  49.3012860   3.2236090   6.0644340  41.1781520   3.1822030   7.6623930
  41.8591630   3.4460400   8.2811330  40.8629570   2.3422900   7.9961940
  45.3706090   4.2289390   6.7496520  45.8784310   4.7270360   7.3901540
  45.9019330   3.4524590   6.5735880  57.4717020   2.3994580  10.4525870
  56.7669190   2.7876290   9.9340980  57.7374940   3.0944870  11.0546800
  50.0413280   8.9807260   2.5149840  49.4230550   9.4456710   1.9512560
  50.5536530   9.6734740   2.9319350  44.9045040   8.5083130   9.1933440
  44.5714420   9.1352050   9.8354510  45.0811720   9.0345010   8.4135110
  53.4178950   2.3228210   6.6609780  52.7134520   2.6113100   7.2412890
  53.7791110   3.1328320   6.3009340  44.1164140  10.4763930  11.0082620
  44.7338140  11.1515010  10.7267070  43.2557260  10.8851910  10.9170120
  55.0341730  11.9403340   8.9237260  54.3505250  12.6102450   8.9153930
  55.5736020  12.1383990   8.1582120  56.4865870   1.7683000   7.0518990
  55.5390780   1.8021980   7.1834420  56.8115860   2.5821950   7.4368350
  52.5700470  13.7847470   7.6382440  52.5827630  13.3809760   6.7704700
  52.0175690  14.5594760   7.5343870  53.8645890  10.5063690   2.7272610
  53.7542220   9.5638020   2.8522030  53.8614140  10.8679330   3.6135370
  51.9685910   8.6877310   8.9665050  52.3854700   8.4737420   8.1318510
  52.6925730   8.9450100   9.5373670  49.4066170   6.1329010   2.0835100
  48.4795450   6.0666390   2.3123570  49.5590990   7.0709140   1.9690340
  55.9148010   7.0864530   9.0581290  55.0866640   7.1557620   8.5831420
  56.5098490   7.6718840   8.5897120  53.4363460   7.6949310   2.5870350
  52.8175880   7.3568860   1.9396650  53.4187910   7.0509070   3.2949540
  52.8790020   3.8733850  10.0036160  52.4661200   4.6987560  10.2576150
  52.1465970   3.2878890   9.8112520  45.0122810   6.6593750   4.8654830
  44.6079810   5.9471000   4.3700730  45.0985930   6.3146990   5.7542870
  45.4804510  10.3461310   7.0294040  45.1832800   9.7406780   6.3501820
  46.4304330  10.3838620   6.9183400  43.7251430   3.4336960   8.6453870
  44.2766020   3.5432300   7.8707120  44.2394940   3.8074560   9.3609100
  53.5690120  13.9193180  10.6917140  53.0920680  14.7265370  10.4989750
  52.8851910  13.2671510  10.8443350  44.5722940  10.0843000  13.6801840
  43.6751470  10.3082970  13.9275240  44.5975810  10.2077940  12.7313240
  43.3994160   6.9556320  12.2559210  43.2601930   7.8279120  12.6246610
  42.5175520   6.6129130  12.1107150  49.7223540  11.8732190   3.5624340
  50.1619450  12.6156520   3.1479730  49.6610430  12.1158760   4.4863300
  45.1974510  12.8978020  14.4644360  45.1689940  13.3020970  13.5972790
  45.0339480  11.9688380  14.3015960  41.7127440   5.5538730   2.3661480
  41.5925040   6.2800820   1.7542750  41.4028330   4.7841640   1.8889390
  57.1489330  13.6805120  15.7608530  57.6249050  14.1588010  16.4397610
  57.7696490  13.6122610  15.0354030  39.3512810   8.7253870   8.1730120
  39.4293230   8.8602640   7.2285840  39.9654490   8.0169760   8.3658240
  40.5960440  10.4254060   4.5836300  40.1888520  10.5668650   3.7289900
  41.4873450  10.1414220   4.3807510  56.5522580  10.8717970  12.9208540
  56.6785640  10.6329850  12.0025720  56.5943960  10.0402510  13.3930620
  50.4139320  14.5745970  11.4903350  50.9283990  14.4853980  12.2925780
  49.5708400  14.9205670  11.7831260  44.8682100  14.6399840   2.6958970
  44.6924580  13.7235380   2.4826770  44.0137840  14.9987130   2.9356770
  51.6569780  13.9951580   3.5533840  52.1126730  13.2140960   3.8672460
  51.9962300  14.7058400   4.0975020  56.4046590   2.9250430  13.8858280
  55.7890860   3.4330100  13.3573740  56.0843010   2.0248760  13.8284220
  39.4072330   9.7668040  10.7124580  39.5703370   9.2973400   9.8943950
  39.8724780   9.2591600  11.3773420  53.4665420   2.9851270  12.4817130
  52.6159010   2.6857020  12.8026200  53.3067210   3.2293280  11.5700950
  50.5615130   4.4853020  14.5815920  50.8868540   3.6516770  14.2418150
  51.3495460   5.0081540  14.7294250  43.9705320   4.0207370   3.4766400
  43.7446240   3.8044540   4.3813020  43.1897850   4.4535830   3.1312370
  51.2003080   4.0270740   2.0757050  50.6011970   4.7506540   1.8920670
  51.7482690   3.9647520   1.2933500  46.4104530   4.9192950  14.1426670
  46.3148130   3.9787680  13.9927070  47.2536510   5.1408020  13.7474740
  49.8067950   2.6634280   4.1060330  50.1997520   2.9806480   3.2929020
  50.1684800   1.7846160   4.2204850  50.3923090   5.2540030   8.2011110
  49.6604210   5.7626840   8.5501210  49.9947430   4.4370010   7.8999890
  40.9811310   9.1419470  12.8720390  40.5966100   8.5013140  13.4703350
  41.2923500   9.8455590  13.4415120  47.1308450   5.9896010   8.3529010
  47.4978580   5.5154580   9.0990350  46.9413510   6.8637580   8.6937350
  44.9207820   5.0304650  10.6713220  44.6164890   5.9096630  10.8963580
  45.8754280   5.0904440  10.7070660  54.2077590   8.2331000   7.0606460
  54.9276710   8.7286290   6.6702570  54.0059410   7.5548890   6.4160330
  49.5896390   8.3040060  12.9475460  49.5233700   7.3835730  12.6933050
  48.9601530   8.4015500  13.6620100  43.4927010   8.9046020   4.9058880
  44.0105680   8.1014280   4.8515770  43.0411030   8.8425160   5.7475710
  40.9771550   5.8707390  11.8184580  40.6186490   6.5361240  12.4057920
  40.6826110   5.0390940  12.1897200  44.1784670   6.3291630  14.7024130
  43.8784810   6.4748810  13.8051950  44.9495910   5.7696920  14.6097520
  49.5213120  11.1260630  12.6979260  49.5357660  10.1941590  12.4798170
  48.8138220  11.2120390  13.3369030  55.7324330   7.7667970  12.0447840
  55.0072520   8.3596750  11.8477230  56.2599790   7.7591510  11.2461210
  51.2623920   9.4928140   5.5431690  51.6147740   8.8956270   4.8833060
  50.3786250   9.1672370   5.7139940  47.3487200  10.2525830   2.9502100
  48.0358330  10.7995040   3.3309690  46.5619620  10.7966560   2.9851710
  46.6514410   7.2571860   2.5627460  47.1077190   8.0677110   2.7887650
  46.3002620   6.9395000   3.3945950  48.9547020  12.7678200   9.7919760
  49.5989240  12.9737580  10.4693180  49.3176460  12.0066600   9.3390610
  50.2279100  10.7710550   8.5097210  50.8701330  10.0703710   8.6229380
  50.7528450  11.5508990   8.3294100  52.0016720  11.5705450  11.7133270
  52.3372960  12.1572140  12.3911190  51.0817060  11.4398160  11.9431060
  39.8392710  13.3480890  13.4823210  39.9483830  12.4075630  13.3418600
  39.1873270  13.6135640  12.8336940  47.8305300  11.6196780  14.8821330
  47.5102170  10.9006020  15.4267020  47.1563660  12.2951850  14.9557390
  46.3804960   3.0865830   2.4703570  45.6721110   3.5552170   2.9117180
  46.6649440   2.4287840   3.1048760  48.0060890   4.5062530  10.4696100
  48.5046140   4.9808350  11.1347950  48.1483840   3.5826050  10.6766130
  47.4997180  15.0471790   3.1827340  47.7538680  15.0093180   2.2606710
  46.5509660  14.9205120   3.1755590  53.5049760   5.9663670   4.7585850
  52.5639900   5.9813900   4.9333540  53.8193830   5.1799630   5.2046150
  55.5075340  13.1372520   6.4340110  55.6322760  13.9603690   6.9063920
  56.3740900  12.9263250   6.0864260  42.9792870  15.2303730   6.1057240
  43.7155350  14.6819190   6.3765810  43.3633790  16.0959740   5.9663230
  39.8638350  11.2977300   1.9798750  38.9378130  11.5398440   1.9704160
  40.3294780  12.1251560   1.8583500  41.9851150  14.4149800  15.2942820
  42.7863880  14.7361850  15.7078220  41.4702970  14.0545380  16.0162730
  50.8215780  10.5229670  15.2418230  50.2153940  10.5461270  14.5013980
  50.5169890   9.7912710  15.7785480  52.2516150  14.2509960  13.8527640
  53.2037900  14.1667980  13.8027880  52.1044370  14.9151670  14.5261430
  39.7048960   6.9023260  14.2378870  40.2087980   6.3230540  14.8095100
  38.9656380   7.1863490  14.7755240  46.7586900   8.3094250  13.7714390
  45.9932570   8.8779250  13.6869060  46.9402860   8.0170460  12.8782620
  53.9010250  10.0399580  14.3289410  54.6419720  10.3775340  13.8256870
  53.1382930  10.2091640  13.7759180  41.7372040   5.0452850  15.1328940
  41.7777380   4.7466720  16.0414170  42.5917540   5.4460460  14.9736460
  43.6777850   3.6244950  13.1003430  43.1474310   3.1335900  12.4726770
  44.3465920   4.0529150  12.5661360  52.5755910   8.0914410  12.8644620
  52.9896930   8.2459490  13.7135040  51.6406910   8.2169630  13.0270400
  53.0478080   5.4310570  14.8683770  53.6298850   4.6762890  14.7804250
  53.2239850   5.9618010  14.0915250  47.3371140   8.0434890  10.8340550
  47.7559250   8.8867620  10.6616790  46.4179770   8.1806930  10.6047330
  49.6735040   5.7751070  12.2178390  49.7931250   5.1792210  12.9573230
  50.5329040   5.8120760  11.7979690  52.0122940   6.3288260  10.7940900
  51.4858160   6.8530880  10.1906040  52.3554280   6.9615650  11.4250630
  45.1878560  14.3487900  11.9498280  44.6499650  15.0733960  11.6306980
  45.4412520  13.8718240  11.1595620  46.4403810   2.3172420  13.4754210
  47.0303500   2.0088270  14.1632030  45.6224050   1.8452170  13.6314110
  48.0440770  15.5839110  12.2084930  47.9699470  16.4874250  12.5157300
  47.1419610  15.2651010  12.1807000  39.4468060  12.9113700   5.5118550
  39.7771070  12.0434760   5.2797190  39.8759060  13.1172220   6.3423510
  44.0429980  11.2422710   3.1720520  43.7425520  11.1187680   4.0724430
  43.9367470  10.3831300   2.7636250  39.9358270  13.7784290   8.2500180
  39.4989260  13.9585090   9.0824330  40.5035950  14.5358910   8.1081900
  55.5720450  13.2801290  12.5377490  54.9722440  13.3393850  11.7941410
  55.7014350  12.3406270  12.6674340  39.7682700   6.2904520   4.6089060
  39.1131540   6.0216160   3.9648760  40.6060650   6.1809000   4.1591040
  57.2738330   8.6216690   5.2223330  57.6447160   7.8384010   4.8159300
  57.9140260   9.3105790   5.0440630  54.2572090  10.0053270  10.6353650
  53.4431930  10.4350430  10.8979440  54.6646290  10.6171680  10.0222700
  56.2162870   5.9969950   2.5283350  55.8406470   5.2297880   2.0964640
  55.4865990   6.3792650   3.0158280  40.8058630   6.6757090   9.1492400
  41.1731670   6.5884490  10.0288420  40.2369450   5.9123640   9.0499260
  55.6062490   5.1441470  12.1622870  55.3748580   4.9154220  11.2620820
  55.8667040   6.0641020  12.1167760  40.3574630   3.5866180  13.0550820
  39.4630680   3.5532940  13.3944530  40.8972180   3.7852970  13.8202070
  55.4913830   4.2227440   5.8290590  56.0151310   3.7290090   5.1980760
  56.0773250   4.3577800   6.5738160  55.6703550   4.3067310   9.3510140
  54.7206260   4.2730850   9.4655130  55.8516560   5.2167420   9.1159910
  54.9813800   3.4800790   1.7683000  55.4772920   3.2471660   2.5531880
  54.7829870   2.6412630   1.3520640  56.4100960   2.1161740   4.3020680
  56.3000240   1.9617780   5.2402950  57.1708550   1.5882680   4.0596090
  54.3148140  14.7571870   4.1621920  54.9107210  14.4356440   3.4856340
  54.5726290  14.2843690   4.9535190  42.2210710  11.1889780  14.3112550
  42.1780340  10.8182690  15.1927010  42.3521720  12.1267350  14.4514370
  45.9216740  12.7449370   9.9122270  45.6808100  13.0123930   9.0252790
  46.8619380  12.9155100   9.9673130  57.1820900  14.7643750  10.7132910
  56.6879180  15.1612620   9.9960040  56.5734190  14.1392960  11.1070190
  42.0598740  14.1352030  11.4310330  41.4659060  14.0036730  12.1700370
  42.0522580  13.2990170  10.9652430  54.8660350  15.4067170   7.9919650
  54.4063320  16.1582980   7.6177670  54.2372810  14.6873640   7.9334450
  41.6910970  11.5010410  10.3818370  40.9645030  10.8815700  10.3144320
  41.7520120  11.8951020   9.5116450  45.2956070  13.7155410   7.1667780
  45.8121090  13.1042770   6.6416040  45.9453450  14.2184190   7.6578790
  48.0351570  14.6063900   7.9936760  48.3229380  14.3518200   7.1169770
  48.5474790  14.0541260   8.5842330  39.9740970  14.8184800   3.5915130
  39.8063010  14.1855480   4.2897020  39.1075480  15.0244200   3.2409320
  48.1023930  15.5280000  15.3604960  49.0291240  15.2924270  15.4040920
  48.0874360  16.3552000  14.8790990  56.3368990  15.0705570   2.3579210
  56.5121180  14.3843310   1.7140130  55.6390560  15.5952620   1.9655880
  54.6701490  14.7549860  15.1846000  55.4626810  14.2599090  14.9771960
  54.9634640  15.4340000  15.7921610  32.0217660  61.9501270  61.1636010
  31.9411710  61.0355880  60.8927720  31.6082080  62.4468340  60.4575720
  30.1535700  63.7280290  63.0445280  29.3777800  63.2480730  63.3343850
  30.8048630  63.0485940  62.8701440  24.1701530  64.0400100  63.9221040
  23.3386410  63.7848810  64.3217550  24.7782510  64.1110870  64.6578960
  22.5793480  59.0001990  57.7063430  21.6910180  59.3417960  57.6043310
  22.8634670  58.8002310  56.8144260  20.5426490  61.6007640  63.5903130
  21.1142600  60.8329840  63.5906770  20.5428030  61.8996400  62.6809740
  29.5944690  66.4037480  63.0515440  29.5252970  65.4627420  62.8904570
  30.3564550  66.4938890  63.6238010  21.7851360  57.0092000  65.3772060
  21.6054200  56.1117750  65.6574820  21.3831440  57.5563870  66.0519010
  30.6249860  59.2107860  63.2784370  31.0014680  58.3379740  63.1658040
  30.5269370  59.5466560  62.3874810  24.7554870  57.5833490  58.7401810
  24.8621620  58.4837220  59.0470570  23.8447230  57.5351460  58.4496460
  34.4073980  56.7058300  60.2112710  35.2283600  56.2154870  60.2538190
  34.4408060  57.2955960  60.9644550  22.4038030  59.5052500  63.9854400
  23.0848140  59.7690870  64.6041800  22.0886080  58.6653370  64.3192410
  26.5962600  60.5519860  63.0726990  27.1040820  61.0500830  63.7132010
  27.1275840  59.7755060  62.8966350  38.6973530  58.7225050  66.7756340
  37.9925700  59.1106760  66.2571450  38.9631450  59.4175340  67.3777270
  24.8798700  55.1918420  67.3390410  24.8817140  55.7090810  66.5336310
  24.0503010  54.7148600  67.3160340  31.2669790  65.3037730  58.8380310
  30.6487060  65.7687180  58.2743030  31.7793040  65.9965210  59.2549820
  26.1301550  64.8313600  65.5163910  25.7970930  65.4582520  66.1584980
  26.3068230  65.3575480  64.7365580  34.6435460  58.6458680  62.9840250
  33.9391030  58.9343570  63.5643360  35.0047620  59.4558790  62.6239810
  24.5614030  56.9028380  65.3460860  24.9030840  57.7470430  65.0514730
  23.6229840  57.0512120  65.4626200  25.3420650  66.7994400  67.3313090
  25.9594650  67.4745480  67.0497540  24.4813770  67.2082380  67.2400590
  20.6352990  65.9894260  56.2119940  20.2580970  66.4781360  55.4804840
  20.8926060  66.6619540  56.8426470  37.7122380  58.0913470  63.3749460
  36.7647290  58.1252450  63.5064890  38.0372370  58.9052420  63.7598820
  28.2441920  54.3910650  61.6705450  28.5516900  53.8357540  60.9540950
  27.3142620  54.5255110  61.4878440  35.0902400  66.8294160  59.0503080
  34.9798730  65.8868490  59.1752500  35.0870650  67.1909800  59.9365840
  33.1942420  65.0107780  65.2895520  33.6111210  64.7967890  64.4548980
  33.9182240  65.2680570  65.8604140  30.6322680  62.4559480  58.4065570
  29.7051960  62.3896860  58.6354040  30.7847500  63.3939610  58.2920810
  30.6191760  58.7276480  55.4032730  29.6795430  58.8890440  55.4885190
  30.9375020  59.4462160  54.8568720  37.1404520  63.4095000  65.3811760
  36.3123150  63.4788090  64.9061890  37.7355000  63.9949310  64.9127590
  34.6619970  64.0179780  58.9100820  34.0432390  63.6799330  58.2627120
  34.6444420  63.3739540  59.6180010  34.1046530  60.1964320  66.3266630
  33.6917710  61.0218030  66.5806620  33.3722480  59.6109360  66.1342990
  26.2379320  62.9824220  61.1885300  25.8336320  62.2701470  60.6931200
  26.3242440  62.6377460  62.0773340  26.7061020  66.6691780  63.3524510
  26.4089310  66.0637250  62.6732290  27.6560840  66.7069090  63.2413870
  24.9507940  59.7567430  64.9684340  25.5022530  59.8662770  64.1937590
  25.4651450  60.1305030  65.6839570  32.8384670  63.2566590  55.9173570
  33.2777950  62.4189020  55.7711390  33.5513090  63.8895990  56.0037710
  36.4201810  54.5109400  54.2314610  36.1074470  54.6036230  55.1313680
  37.1814280  55.0890430  54.1812040  22.9383950  61.8769200  58.6891950
  22.8181550  62.6031290  58.0773220  22.6284840  61.1072110  58.2119860
  20.5769320  65.0484340  64.4960590  20.6549740  65.1833110  63.5516310
  21.1911000  64.3400230  64.6888710  21.8216950  66.7484530  60.9066770
  21.4145030  66.8899120  60.0520370  22.7129960  66.4644690  60.7037980
  20.6328840  66.0898510  67.0355050  20.7959880  65.6203870  66.2174420
  21.0981290  65.5822070  67.7003890  25.4047610  55.2204270  62.0715620
  24.9615760  56.0013810  61.7400140  25.9632600  55.5434160  62.7786560
  28.5206430  54.8414970  56.9521450  27.8960610  54.8374840  57.6774760
  28.4336550  53.9745930  56.5557420  27.4423510  55.7651600  63.9305220
  27.7395840  56.6714430  63.8497240  27.9909070  55.2770380  63.3164790
  25.1961830  60.3437840  59.7996870  24.9702750  60.1275010  60.7043490
  24.4154360  60.7766300  59.4542840  32.4259590  60.3501210  58.3987520
  31.8268480  61.0737010  58.2151140  32.9739200  60.2877990  57.6163970
  31.0324460  58.9864750  60.4290800  31.4254030  59.3036950  59.6159490
  31.3941310  58.1076630  60.5435320  20.0688630  55.5765550  62.6521000
  19.7801680  56.1468410  63.3645980  20.8134390  55.0970000  63.0152230
  20.2558860  59.5185670  53.8623720  20.1733530  60.4616430  54.0038710
  19.9041920  59.3760580  52.9836070  31.6179600  61.5770500  64.5241580
  30.8860720  62.0857310  64.8731680  31.2203940  60.7600480  64.2230360
  28.0556990  58.2524700  62.9294070  28.0593050  57.8114650  62.0798610
  28.9508110  58.5742030  63.0365890  23.9059370  58.1351190  61.8888280
  23.5659420  58.6126420  62.6455330  23.1436690  57.6816310  61.5289380
  28.1177140  59.2536780  55.9200830  28.2389960  59.2123260  56.8686650
  27.7325650  60.1160930  55.7647560  32.0805510  57.0304180  63.9364520
  32.0978250  57.4812830  64.7806370  31.8321090  56.1309820  64.1497960
  27.1298640  61.5637920  55.3184130  26.5615540  61.1156170  54.6920040
  27.8387640  61.9230700  54.7849280  28.3564960  62.3126480  64.6759480
  28.7235090  61.8385050  65.4220820  28.1670020  63.1868050  65.0167820
  21.2205450  57.0570170  60.8052950  20.9352370  56.6925840  61.6431570
  21.1584310  56.3250630  60.1916090  26.1464330  61.3535120  66.9943690
  25.8421400  62.2327100  67.2194050  27.1010790  61.4134910  67.0301130
  24.6746120  65.5596110  57.5910540  23.9008380  65.0193730  57.4309260
  25.4040750  65.0402720  57.2528300  35.4334100  64.5561470  63.3836930
  36.1533220  65.0516760  62.9933040  35.2315920  63.8779360  62.7390800
  30.8944040  55.9499430  57.5266320  30.0808650  55.4512600  57.4511630
  30.7005990  56.7897680  57.1102670  33.6092430  60.3219080  55.8228480
  34.4972050  60.6336310  55.6479820  33.5797520  59.4491330  55.4309060
  24.7183520  65.2276490  61.2289350  25.2362190  64.4244750  61.1746240
  24.2667540  65.1655630  62.0706180  29.6053020  66.4942770  56.5016650
  29.9468720  67.2385000  56.0059970  28.7765730  66.8073890  56.8641480
  35.8806700  61.6330920  55.2908340  35.7970420  62.0645140  54.4404780
  36.6000890  62.0929270  55.7235160  32.4880430  65.8158610  61.8662160
  32.8404250  65.2186740  61.2063530  31.6042760  65.4902840  62.0370410
  28.5743710  66.5756300  59.2732570  29.2614840  67.1225510  59.6540160
  27.7876130  67.1197030  59.3082180  20.7136110  62.1929120  54.7649650
  21.5830960  62.4753920  55.0485570  20.2226430  63.0064990  54.6498460
  27.8770920  63.5802330  58.8857930  28.3333700  64.3907580  59.1118120
  27.5259130  63.2625470  59.7176420  23.7782700  53.9239980  59.3580450
  23.6497330  53.9157880  60.3065370  22.9544720  54.2623070  59.0071460
  35.2991330  67.3789640  54.5566820  35.0728910  66.6620080  55.1491460
  34.9087530  67.1302080  53.7188570  34.8807580  65.2961580  56.2180980
  34.5929280  65.7574270  57.0058860  35.6759750  64.8359350  56.4865200
  22.6982620  64.0102590  56.8931710  22.0910570  64.7501490  56.9027010
  23.1731970  64.1001950  56.0669910  32.2715410  58.1753410  66.5688600
  32.6396230  57.3548620  66.8968170  31.4113610  58.2355300  66.9844250
  35.6377440  57.1310350  57.3776160  35.0090600  57.2356020  56.6634390
  35.1429360  57.3507130  58.1670040  27.6061470  59.4096300  58.7934040
  26.8977620  59.8782640  59.2347650  27.8905950  58.7518310  59.4279230
  29.2317400  60.8293000  66.7926570  29.7302650  61.3038820  67.4578420
  29.3740350  59.9056520  66.9996600  31.6376900  56.1346960  60.2329830
  31.5144680  56.1533090  59.2839340  32.5861460  56.1825900  60.3528230
  25.8096490  57.7181380  56.1684750  26.6587020  58.1551530  56.1024940
  25.4427760  58.0301640  56.9956810  36.4384260  57.0460960  67.6354960
  35.9357860  57.7866360  67.9748770  37.2540920  57.4344960  67.3191750
  34.7306270  62.2894140  61.0816320  33.7896410  62.3044370  61.2564010
  35.0450340  61.5030100  61.5276620  24.7087910  63.9713740  54.6420280
  25.4751180  63.8595100  55.2045710  24.7862600  63.2751710  53.9897050
  23.4034670  61.4038810  55.3253170  23.4838260  60.4566320  55.4370570
  24.2954420  61.7345690  55.4313830  27.8329090  65.9467920  54.1155630
  27.7279730  65.3320270  54.8417010  27.6653310  65.4233810  53.3318640
  31.0731820  65.0087950  54.7197620  30.5241920  65.4557250  55.3640360
  31.6951080  64.5037200  55.2435290  26.7406940  63.9678870  56.6162920
  27.1623360  63.8018740  57.4594310  26.8657780  63.1579100  56.1218060
  29.2534580  62.9916480  53.8640020  29.7740240  62.2765500  53.4981170
  29.9002980  63.6302350  54.1640530  28.1568100  55.4711030  66.5358580
  27.7085400  55.4935290  65.6904130  27.5233300  55.0730050  67.1328880
  28.5627650  64.3665360  67.1571020  28.9815760  65.2098090  66.9847260
  27.6436280  64.5037400  66.9277800  33.2379450  62.6518730  67.1171370
  32.7114670  63.1761350  66.5136510  33.5810790  63.2846120  67.7481100
  25.6365840  60.0412100  53.5621080  25.4354900  59.1779460  53.9234420
  25.4657890  59.9545460  52.6242680  33.1154150  54.8520330  56.0907960
  33.3956440  54.0088230  56.4467380  32.3419880  55.0843440  56.6046710
  24.4348640  57.1412720  53.5498960  24.7374540  57.1480150  52.6418110
  25.1743230  56.7910580  54.0466620  27.6533570  56.0847340  54.5355160
  27.3055570  55.4071330  53.9557610  27.8546340  55.6236850  55.3498550
  23.4578770  66.4455140  54.3828760  23.8953640  66.9884810  55.0386340
  23.9426500  65.6202090  54.3925100  25.2686490  67.5653180  59.4950990
  24.9682030  67.4418150  60.3954900  25.1623980  66.7061770  59.0866720
  37.4934870  64.0897060  56.7011870  38.2553780  64.6593710  56.8071560
  37.5089240  63.5224260  57.4720180  20.9939210  62.6134990  60.9319530
  20.3388050  62.3446630  60.2879230  21.8317160  62.5039470  60.4821510
  38.4994840  64.9447160  61.5453800  38.8703670  64.1614480  61.1389770
  39.1396770  65.6336260  61.3671100  35.4828600  66.3283740  66.9584120
  34.6688440  66.7580900  67.2209910  35.8902800  66.9402150  66.3453170
  37.5454040  64.3831430  53.8584390  37.8202880  65.2910310  53.7303610
  37.3564780  64.3193960  54.7946380  33.9429650  57.4076280  55.1538020
  34.3614530  57.2207260  54.3134680  33.6365710  56.5555330  55.4640950
  37.4419380  62.3200420  58.8513820  37.0662980  61.5528350  58.4195110
  36.7122500  62.7023120  59.3388750  22.0315140  62.9987560  65.4722870
  22.3988180  62.9114960  66.3518890  21.4625960  62.2354110  65.3729730
  20.2077290  59.8233920  56.8744860  19.3041370  60.0864120  56.6996520
  20.6917910  60.0945090  56.0944820  36.7170340  60.5457910  62.1521060
  37.2407820  60.0520560  61.5211230  37.3029760  60.6808270  62.8968630
  36.8960060  60.6297780  65.6740610  35.9462770  60.5961320  65.7885600
  37.0773070  61.5397890  65.4390380  22.7504500  58.8799460  54.7839240
  23.4596200  58.4582680  54.2986520  22.0344440  58.9474690  54.1522590
  22.3978660  54.9338790  53.8241890  23.1206790  55.4747730  54.1423110
  22.6703180  54.6602210  52.9483430  36.2070310  59.8031260  58.0913470
  36.7029430  59.5702130  58.8762350  36.0086380  58.9643100  57.6751110
  22.0870850  54.1844980  63.7264510  22.7347040  53.6342360  63.2859670
  22.5072690  54.4388130  64.5480320  37.6357470  58.4392210  60.6251150
  37.5256750  58.2848250  61.5633420  38.3965060  57.9113150  60.3826560
  35.9823190  54.3786340  67.0834150  36.6195410  54.9920480  67.4493340
  36.1298080  54.4147000  66.1383380  38.5247740  56.2700130  53.8657290
  39.4497050  56.1381310  53.6575580  38.5023530  56.3492950  54.8193740
  38.5986230  57.0410790  56.4914000  37.8037730  56.9755910  57.0206910
  38.8029510  57.9761430  56.4799350  21.8402850  54.3400650  66.4689830
  21.4917670  54.7964470  67.2348010  21.5090550  53.4457780  66.5512260
  32.7310270  53.7514730  65.9570830  31.8570110  54.0849840  65.7543760
  32.6221020  53.2787910  66.7822700  33.6382250  55.9585600  67.3412550
  33.3095610  55.1437360  66.9614280  34.5864550  55.9155410  67.2178240
  30.4785090  54.6684570  64.8963740  29.6956880  55.1430070  65.1760500
  30.1848020  53.7639400  64.7876920  35.0306160  55.3707670  62.9412830
  35.4714250  55.3152770  62.0934430  34.7613750  56.2865680  63.0123010
  36.8944730  55.0022910  60.9521650  36.8333130  54.0584130  60.8052670
  37.6736760  55.1103000  61.4975110  21.8225500  54.9732050  57.4177460
  22.5804860  55.0860930  56.8441490  21.3602670  55.8101250  57.3720890
  28.3639310  57.0871320  60.4079770  27.5513820  56.7128210  60.0675650
  28.8680950  56.3316400  60.7100960  32.8664290  53.7513770  61.6462840
  33.4693660  54.3233980  62.1211360  32.1257280  54.3153210  61.4236740
  36.0098890  54.1535330  56.9203120  36.2049520  55.0518780  57.1870550
  35.2228760  53.9222410  57.4136070  24.1950650  55.4996100  55.9579430
  24.7243410  54.7125900  55.8287380  24.8278970  56.1787290  56.1914960
  26.3888490  55.2371240  59.0124820  25.7591230  54.5358550  59.1794950
  25.8493630  55.9975370  58.7957980  32.0217660  61.9501270  42.3892520
  31.9411710  61.0355880  42.1184230  31.6082080  62.4468340  41.6832230
  30.1535700  63.7280290  44.2701790  29.3777800  63.2480730  44.5600360
  30.8048630  63.0485940  44.0957950  24.1701530  64.0400100  45.1477550
  23.3386410  63.7848810  45.5474060  24.7782510  64.1110870  45.8835470
  22.5793480  59.0001990  38.9319940  21.6910180  59.3417960  38.8299820
  22.8634670  58.8002310  38.0400770  20.5426490  61.6007640  44.8159640
  21.1142600  60.8329840  44.8163280  20.5428030  61.8996400  43.9066250
  29.5944690  66.4037480  44.2771950  29.5252970  65.4627420  44.1161080
  30.3564550  66.4938890  44.8494520  21.7851360  57.0092000  46.6028570
  21.6054200  56.1117750  46.8831330  21.3831440  57.5563870  47.2775520
  30.6249860  59.2107860  44.5040880  31.0014680  58.3379740  44.3914550
  30.5269370  59.5466560  43.6131320  24.7554870  57.5833490  39.9658320
  24.8621620  58.4837220  40.2727080  23.8447230  57.5351460  39.6752970
  34.4073980  56.7058300  41.4369220  35.2283600  56.2154870  41.4794700
  34.4408060  57.2955960  42.1901060  22.4038030  59.5052500  45.2110910
  23.0848140  59.7690870  45.8298310  22.0886080  58.6653370  45.5448920
  26.5962600  60.5519860  44.2983500  27.1040820  61.0500830  44.9388520
  27.1275840  59.7755060  44.1222860  38.6973530  58.7225050  48.0012850
  37.9925700  59.1106760  47.4827960  38.9631450  59.4175340  48.6033780
  24.8798700  55.1918420  48.5646920  24.8817140  55.7090810  47.7592820
  24.0503010  54.7148600  48.5416850  31.2669790  65.3037730  40.0636820
  30.6487060  65.7687180  39.4999540  31.7793040  65.9965210  40.4806330
  26.1301550  64.8313600  46.7420420  25.7970930  65.4582520  47.3841490
  26.3068230  65.3575480  45.9622090  34.6435460  58.6458680  44.2096760
  33.9391030  58.9343570  44.7899870  35.0047620  59.4558790  43.8496320
  24.5614030  56.9028380  46.5717370  24.9030840  57.7470430  46.2771240
  23.6229840  57.0512120  46.6882710  25.3420650  66.7994400  48.5569600
  25.9594650  67.4745480  48.2754050  24.4813770  67.2082380  48.4657100
  20.6352990  65.9894260  37.4376450  20.2580970  66.4781360  36.7061350
  20.8926060  66.6619540  38.0682980  37.7122380  58.0913470  44.6005970
  36.7647290  58.1252450  44.7321400  38.0372370  58.9052420  44.9855330
  28.2441920  54.3910650  42.8961960  28.5516900  53.8357540  42.1797460
  27.3142620  54.5255110  42.7134950  35.0902400  66.8294160  40.2759590
  34.9798730  65.8868490  40.4009010  35.0870650  67.1909800  41.1622350
  33.1942420  65.0107780  46.5152030  33.6111210  64.7967890  45.6805490
  33.9182240  65.2680570  47.0860650  30.6322680  62.4559480  39.6322080
  29.7051960  62.3896860  39.8610550  30.7847500  63.3939610  39.5177320
  30.6191760  58.7276480  36.6289240  29.6795430  58.8890440  36.7141700
  30.9375020  59.4462160  36.0825230  37.1404520  63.4095000  46.6068270
  36.3123150  63.4788090  46.1318400  37.7355000  63.9949310  46.1384100
  34.6619970  64.0179780  40.1357330  34.0432390  63.6799330  39.4883630
  34.6444420  63.3739540  40.8436520  34.1046530  60.1964320  47.5523140
  33.6917710  61.0218030  47.8063130  33.3722480  59.6109360  47.3599500
  26.2379320  62.9824220  42.4141810  25.8336320  62.2701470  41.9187710
  26.3242440  62.6377460  43.3029850  26.7061020  66.6691780  44.5781020
  26.4089310  66.0637250  43.8988800  27.6560840  66.7069090  44.4670380
  24.9507940  59.7567430  46.1940850  25.5022530  59.8662770  45.4194100
  25.4651450  60.1305030  46.9096080  25.7979450  66.4073470  51.2288820
  24.9007980  66.6313440  51.4762220  25.8232320  66.5308410  50.2800220
  32.8384670  63.2566590  37.1430080  33.2777950  62.4189020  36.9967900
  33.5513090  63.8895990  37.2294220  24.6250670  63.2786790  49.8046190
  24.4858440  64.1509590  50.1733590  23.7432030  62.9359600  49.6594130
  36.4201810  54.5109400  35.4571120  36.1074470  54.6036230  36.3570190
  37.1814280  55.0890430  35.4068550  22.9383950  61.8769200  39.9148460
  22.8181550  62.6031290  39.3029730  22.6284840  61.1072110  39.4376370
  20.5769320  65.0484340  45.7217100  20.6549740  65.1833110  44.7772820
  21.1911000  64.3400230  45.9145220  21.8216950  66.7484530  42.1323280
  21.4145030  66.8899120  41.2776880  22.7129960  66.4644690  41.9294490
  37.7779090  67.1948440  50.4695520  37.9042150  66.9560320  49.5512700
  37.8200470  66.3632980  50.9417600  37.6303100  59.2480900  51.4345260
  37.0147370  59.7560570  50.9060720  37.3099520  58.3479230  51.3771200
  20.6328840  66.0898510  48.2611560  20.7959880  65.6203870  47.4430930
  21.0981290  65.5822070  48.9260400  25.4047610  55.2204270  43.2972130
  24.9615760  56.0013810  42.9656650  25.9632600  55.5434160  44.0043070
  29.6917420  58.0872790  48.9007450  29.2296790  58.2955810  49.7127390
  29.2895530  57.2732140  48.5978120  34.6921930  59.3081740  50.0304110
  33.8415520  59.0087490  50.3513180  34.5323720  59.5523750  49.1187930
  31.7871640  60.8083490  52.1302900  32.1125050  59.9747240  51.7905130
  32.5751970  61.3312010  52.2781230  28.5206430  54.8414970  38.1777960
  27.8960610  54.8374840  38.9031270  28.4336550  53.9745930  37.7813930
  27.4423510  55.7651600  45.1561730  27.7395840  56.6714430  45.0753750
  27.9909070  55.2770380  44.5421300  25.1961830  60.3437840  41.0253380
  24.9702750  60.1275010  41.9300000  24.4154360  60.7766300  40.6799350
  32.4259590  60.3501210  39.6244030  31.8268480  61.0737010  39.4407650
  32.9739200  60.2877990  38.8420480  27.6361040  61.2423420  51.6913650
  27.5404640  60.3018150  51.5414050  28.4793020  61.4638490  51.2961720
  31.0324460  58.9864750  41.6547310  31.4254030  59.3036950  40.8416000
  31.3941310  58.1076630  41.7691830  22.7671580  57.6537090  49.8447430
  22.3734970  58.5012300  50.0520210  22.0789980  57.0163460  50.0356070
  29.3416630  57.7372060  52.9144170  28.6514950  57.5444260  53.5490260
  30.0848930  58.0206700  53.4468470  20.0688630  55.5765550  43.8777510
  19.7801680  56.1468410  44.5902490  20.8134390  55.0970000  44.2408740
  20.2558860  59.5185670  35.0880230  20.1733530  60.4616430  35.2295220
  19.9041920  59.3760580  34.2092580  31.6179600  61.5770500  45.7498090
  30.8860720  62.0857310  46.0988190  31.2203940  60.7600480  45.4486870
  28.0556990  58.2524700  44.1550580  28.0593050  57.8114650  43.3055120
  28.9508110  58.5742030  44.2622400  23.9059370  58.1351190  43.1144790
  23.5659420  58.6126420  43.8711840  23.1436690  57.6816310  42.7545890
  28.1177140  59.2536780  37.1457340  28.2389960  59.2123260  38.0943160
  27.7325650  60.1160930  36.9904070  32.0805510  57.0304180  45.1621030
  32.0978250  57.4812830  46.0062880  31.8321090  56.1309820  45.3754470
  27.1298640  61.5637920  36.5440640  26.5615540  61.1156170  35.9176550
  27.8387640  61.9230700  36.0105790  35.5076260  54.4436360  51.0007410
  35.8322030  53.7126020  51.5265390  35.5432770  54.1250000  50.0988400
  22.2067820  65.4649940  50.4207370  21.8222610  64.8243610  51.0190330
  22.5180010  66.1686060  50.9902100  28.3564960  62.3126480  45.9015990
  28.7235090  61.8385050  46.6477330  28.1670020  63.1868050  46.2424330
  21.2205450  57.0570170  42.0309460  20.9352370  56.6925840  42.8688080
  21.1584310  56.3250630  41.4172600  26.1464330  61.3535120  48.2200200
  25.8421400  62.2327100  48.4450560  27.1010790  61.4134910  48.2557640
  24.6746120  65.5596110  38.8167050  23.9008380  65.0193730  38.6565770
  25.4040750  65.0402720  38.4784810  35.4334100  64.5561470  44.6093440
  36.1533220  65.0516760  44.2189550  35.2315920  63.8779360  43.9647310
  30.8944040  55.9499430  38.7522830  30.0808650  55.4512600  38.6768140
  30.7005990  56.7897680  38.3359180  30.8152900  64.6270530  50.4962440
  30.7490210  63.7066200  50.2420030  30.1858040  64.7245970  51.2107080
  33.6092430  60.3219080  37.0484990  34.4972050  60.6336310  36.8736330
  33.5797520  59.4491330  36.6565570  24.7183520  65.2276490  42.4545860
  25.2362190  64.4244750  42.4002750  24.2667540  65.1655630  43.2962690
  29.6053020  66.4942770  37.7273160  29.9468720  67.2385000  37.2316480
  28.7765730  66.8073890  38.0897990  22.2028060  62.1937860  49.3671560
  21.8443000  62.8591710  49.9544900  21.9082620  61.3621410  49.7384180
  25.4041180  62.6522100  52.2511110  25.1041320  62.7979280  51.3538930
  26.1752420  62.0927390  52.1584500  30.7469630  67.4491100  50.2466240
  30.7614170  66.5172060  50.0285150  30.0394730  67.5350860  50.8856010
  35.8806700  61.6330920  36.5164850  35.7970420  62.0645140  35.6661290
  36.6000890  62.0929270  36.9491670  36.9580840  64.0898440  49.5934820
  36.2329030  64.6827220  49.3964210  37.4856300  64.0821980  48.7948190
  32.4880430  65.8158610  43.0918670  32.8404250  65.2186740  42.4320040
  31.6042760  65.4902840  43.2626920  28.5743710  66.5756300  40.4989080
  29.2614840  67.1225510  40.8796670  27.7876130  67.1197030  40.5338690
  20.7136110  62.1929120  35.9906160  21.5830960  62.4753920  36.2742080
  20.2226430  63.0064990  35.8754970  27.8770920  63.5802330  40.1114440
  28.3333700  64.3907580  40.3374630  27.5259130  63.2625470  40.9432930
  23.7782700  53.9239980  40.5836960  23.6497330  53.9157880  41.5321880
  22.9544720  54.2623070  40.2327970  35.2991330  67.3789640  35.7823330
  35.0728910  66.6620080  36.3747970  34.9087530  67.1302080  34.9445080
  20.7776630  55.6831100  50.0443660  20.0635150  55.8828020  50.6496270
  21.1971670  54.9070670  50.4158460  34.8807580  65.2961580  37.4437490
  34.5929280  65.7574270  38.2315370  35.6759750  64.8359350  37.7121710
  22.6982620  64.0102590  38.1188220  22.0910570  64.7501490  38.1283520
  23.1731970  64.1001950  37.2926420  32.2715410  58.1753410  47.7945110
  32.6396230  57.3548620  48.1224680  31.4113610  58.2355300  48.2100760
  35.6377440  57.1310350  38.6032670  35.0090600  57.2356020  37.8890900
  35.1429360  57.3507130  39.3926550  27.6061470  59.4096300  40.0190550
  26.8977620  59.8782640  40.4604160  27.8905950  58.7518310  40.6535740
  29.2317400  60.8293000  48.0183080  29.7302650  61.3038820  48.6834930
  29.3740350  59.9056520  48.2253110  31.6376900  56.1346960  41.4586340
  31.5144680  56.1533090  40.5095850  32.5861460  56.1825900  41.5784740
  25.8096490  57.7181380  37.3941260  26.6587020  58.1551530  37.3281450
  25.4427760  58.0301640  38.2213320  36.4384260  57.0460960  48.8611470
  35.9357860  57.7866360  49.2005280  37.2540920  57.4344960  48.5448260
  34.7306270  62.2894140  42.3072830  33.7896410  62.3044370  42.4820520
  35.0450340  61.5030100  42.7533130  24.7087910  63.9713740  35.8676790
  25.4751180  63.8595100  36.4302220  24.7862600  63.2751710  35.2153560
  23.4034670  61.4038810  36.5509680  23.4838260  60.4566320  36.6627080
  24.2954420  61.7345690  36.6570340  32.0472290  66.8460140  52.7905210
  31.4410450  66.8691740  52.0500960  31.7426400  66.1143180  53.3272460
  20.9305470  63.2253730  51.7865850  21.4344490  62.6461010  52.3582080
  20.1912890  63.5093960  52.3242220  27.8329090  65.9467920  35.3412140
  27.7279730  65.3320270  36.0673520  27.6653310  65.4233810  34.5575150
  27.9843410  64.6324720  51.3201370  27.2189080  65.2009720  51.2356040
  28.1659370  64.3400930  50.4269600  31.0731820  65.0087950  35.9454130
  30.5241920  65.4557250  36.5896870  31.6951080  64.5037200  36.4691800
  35.1266760  66.3630050  51.8776390  35.8676230  66.7005810  51.3743850
  34.3639440  66.5322110  51.3246160  22.9628550  61.3683320  52.6815920
  23.0033890  61.0697190  53.5901150  23.8174050  61.7690930  52.5223440
  26.7406940  63.9678870  37.8419430  27.1623360  63.8018740  38.6850820
  26.8657780  63.1579100  37.3474570  24.9034360  59.9475420  50.6490410
  24.3730820  59.4566370  50.0213750  25.5722430  60.3759620  50.1148340
  29.2534580  62.9916480  35.0896530  29.7740240  62.2765500  34.7237680
  29.9002980  63.6302350  35.3897040  33.8012420  64.4144880  50.4131600
  34.2153440  64.5689960  51.2622020  32.8663420  64.5400100  50.5757380
  34.2734590  61.7541040  52.4170750  34.8555360  60.9993360  52.3291230
  34.4496360  62.2848480  51.6402230  25.3906660  56.9137790  50.7287700
  25.2963530  56.2958540  50.0038570  24.8104050  57.6404080  50.5017610
  28.1568100  55.4711030  47.7615090  27.7085400  55.4935290  46.9160640
  27.5233300  55.0730050  48.3585390  28.5627650  64.3665360  48.3827530
  28.9815760  65.2098090  48.2103770  27.6436280  64.5037400  48.1534310
  30.8991550  62.0981540  49.7665370  31.0187760  61.5022680  50.5060210
  31.7585550  62.1351230  49.3466670  33.2379450  62.6518730  48.3427880
  32.7114670  63.1761350  47.7393020  33.5810790  63.2846120  48.9737610
  25.6365840  60.0412100  34.7877590  25.4354900  59.1779460  35.1490930
  25.4657890  59.9545460  33.8499190  27.6660320  58.6402890  51.0241190
  28.2560010  58.3318740  51.7119010  26.8480560  58.1682640  51.1801090
  32.4853750  58.2568700  51.2574210  31.7969270  57.5950240  51.1924200
  33.2059770  57.8106970  51.7022670  33.1154150  54.8520330  37.3164470
  33.3956440  54.0088230  37.6723890  32.3419880  55.0843440  37.8303220
  24.4348640  57.1412720  34.7755470  24.7374540  57.1480150  33.8674620
  25.1743230  56.7910580  35.2723130  27.6533570  56.0847340  35.7611670
  27.3055570  55.4071330  35.1814120  27.8546340  55.6236850  36.5755060
  23.4578770  66.4455140  35.6085270  23.8953640  66.9884810  36.2642850
  23.9426500  65.6202090  35.6181610  25.2686490  67.5653180  40.7207500
  24.9682030  67.4418150  41.6211410  25.1623980  66.7061770  40.3123230
  37.4934870  64.0897060  37.9268380  38.2553780  64.6593710  38.0328070
  37.5089240  63.5224260  38.6976690  20.9939210  62.6134990  42.1576040
  20.3388050  62.3446630  41.5135740  21.8317160  62.5039470  41.7078020
  38.4994840  64.9447160  42.7710310  38.8703670  64.1614480  42.3646280
  39.1396770  65.6336260  42.5927610  35.4828600  66.3283740  48.1840630
  34.6688440  66.7580900  48.4466420  35.8902800  66.9402150  47.5709680
  37.5454040  64.3831430  35.0840900  37.8202880  65.2910310  34.9560120
  37.3564780  64.3193960  36.0202890  33.9429650  57.4076280  36.3794530
  34.3614530  57.2207260  35.5391190  33.6365710  56.5555330  36.6897460
  37.4419380  62.3200420  40.0770330  37.0662980  61.5528350  39.6451620
  36.7122500  62.7023120  40.5645260  22.0315140  62.9987560  46.6979380
  22.3988180  62.9114960  47.5775400  21.4625960  62.2354110  46.5986240
  36.8319000  61.4671940  49.7109850  36.6005090  61.2384690  48.8107800
  37.0923550  62.3871490  49.6654740  21.5831140  59.9096650  50.6037800
  20.6887190  59.8763410  50.9431510  22.1228690  60.1083440  51.3689050
  35.2707070  56.6928370  52.4889550  36.1477250  56.7011770  52.8723550
  35.2827910  55.9559210  51.8781900  20.2077290  59.8233920  38.1001370
  19.3041370  60.0864120  37.9253030  20.6917910  60.0945090  37.3201330
  36.7170340  60.5457910  43.3777570  37.2407820  60.0520560  42.7467740
  37.3029760  60.6808270  44.1225140  36.8960060  60.6297780  46.8997120
  35.9462770  60.5961320  47.0142110  37.0773070  61.5397890  46.6646890
  22.7504500  58.8799460  36.0095750  23.4596200  58.4582680  35.5243030
  22.0344440  58.9474690  35.3779100  22.3978660  54.9338790  35.0498400
  23.1206790  55.4747730  35.3679620  22.6703180  54.6602210  34.1739940
  36.2070310  59.8031260  39.3169980  36.7029430  59.5702130  40.1018860
  36.0086380  58.9643100  38.9007620  22.0870850  54.1844980  44.9521020
  22.7347040  53.6342360  44.5116180  22.5072690  54.4388130  45.7736830
  37.6357470  58.4392210  41.8507660  37.5256750  58.2848250  42.7889930
  38.3965060  57.9113150  41.6083070  35.9823190  54.3786340  48.3090660
  36.6195410  54.9920480  48.6749850  36.1298080  54.4147000  47.3639890
  38.5247740  56.2700130  35.0913800  39.4497050  56.1381310  34.8832090
  38.5023530  56.3492950  36.0450250  38.5986230  57.0410790  37.7170510
  37.8037730  56.9755910  38.2463420  38.8029510  57.9761430  37.7055860
  21.8402850  54.3400650  47.6946340  21.4917670  54.7964470  48.4604520
  21.5090550  53.4457780  47.7768770  29.3527670  55.5312530  51.2165760
  29.2916560  56.1234360  51.9661170  30.2928050  55.4238490  51.0716020
  31.9902230  55.1882590  50.8558050  32.6042640  55.5061880  50.1939130
  32.5351790  54.7031180  51.4753910  22.5123490  53.8676850  50.9697110
  23.0606480  53.6864900  50.2063220  22.5778800  53.0770960  51.5053420
  32.7310270  53.7514730  47.1827340  31.8570110  54.0849840  46.9800270
  32.6221020  53.2787910  48.0079210  33.6382250  55.9585600  48.5669060
  33.3095610  55.1437360  48.1870790  34.5864550  55.9155410  48.4434750
  30.4785090  54.6684570  46.1220250  29.6956880  55.1430070  46.4017010
  30.1848020  53.7639400  46.0133430  35.0306160  55.3707670  44.1669340
  35.4714250  55.3152770  43.3190940  34.7613750  56.2865680  44.2379520
  36.8944730  55.0022910  42.1778160  36.8333130  54.0584130  42.0309180
  37.6736760  55.1103000  42.7231620  21.8225500  54.9732050  38.6433970
  22.5804860  55.0860930  38.0698000  21.3602670  55.8101250  38.5977400
  28.3639310  57.0871320  41.6336280  27.5513820  56.7128210  41.2932160
  28.8680950  56.3316400  41.9357470  32.8664290  53.7513770  42.8719350
  33.4693660  54.3233980  43.3467870  32.1257280  54.3153210  42.6493250
  36.0098890  54.1535330  38.1459630  36.2049520  55.0518780  38.4127060
  35.2228760  53.9222410  38.6392580  24.1950650  55.4996100  37.1835940
  24.7243410  54.7125900  37.0543890  24.8278970  56.1787290  37.4171470
  26.3888490  55.2371240  40.2381330  25.7591230  54.5358550  40.4051460
  25.8493630  55.9975370  40.0214490  26.5144050  54.5155220  52.6733820
  26.2328320  55.0188820  51.9094640  26.8963750  53.7176970  52.3075950
  33.1159510  53.9308800  53.2514290  33.0024960  54.2503410  54.1465810
  33.9329250  54.3321310  52.9551570  32.0217660  61.9501270  23.6149030
  31.9411710  61.0355880  23.3440740  31.6082080  62.4468340  22.9088740
  30.1535700  63.7280290  25.4958300  29.3777800  63.2480730  25.7856870
  30.8048630  63.0485940  25.3214460  24.1701530  64.0400100  26.3734060
  23.3386410  63.7848810  26.7730570  24.7782510  64.1110870  27.1091980
  22.5793480  59.0001990  20.1576450  21.6910180  59.3417960  20.0556330
  22.8634670  58.8002310  19.2657280  20.5426490  61.6007640  26.0416150
  21.1142600  60.8329840  26.0419790  20.5428030  61.8996400  25.1322760
  29.5944690  66.4037480  25.5028460  29.5252970  65.4627420  25.3417590
  30.3564550  66.4938890  26.0751030  21.7851360  57.0092000  27.8285080
  21.6054200  56.1117750  28.1087840  21.3831440  57.5563870  28.5032030
  30.6249860  59.2107860  25.7297390  31.0014680  58.3379740  25.6171060
  30.5269370  59.5466560  24.8387830  24.7554870  57.5833490  21.1914830
  24.8621620  58.4837220  21.4983590  23.8447230  57.5351460  20.9009480
  34.4073980  56.7058300  22.6625730  35.2283600  56.2154870  22.7051210
  34.4408060  57.2955960  23.4157570  22.4038030  59.5052500  26.4367420
  23.0848140  59.7690870  27.0554820  22.0886080  58.6653370  26.7705430
  26.5962600  60.5519860  25.5240010  27.1040820  61.0500830  26.1645030
  27.1275840  59.7755060  25.3479370  38.6973530  58.7225050  29.2269360
  37.9925700  59.1106760  28.7084470  38.9631450  59.4175340  29.8290290
  24.8798700  55.1918420  29.7903430  24.8817140  55.7090810  28.9849330
  24.0503010  54.7148600  29.7673360  31.2669790  65.3037730  21.2893330
  30.6487060  65.7687180  20.7256050  31.7793040  65.9965210  21.7062840
  26.1301550  64.8313600  27.9676930  25.7970930  65.4582520  28.6098000
  26.3068230  65.3575480  27.1878600  34.6435460  58.6458680  25.4353270
  33.9391030  58.9343570  26.0156380  35.0047620  59.4558790  25.0752830
  24.5614030  56.9028380  27.7973880  24.9030840  57.7470430  27.5027750
  23.6229840  57.0512120  27.9139220  25.3420650  66.7994400  29.7826110
  25.9594650  67.4745480  29.5010560  24.4813770  67.2082380  29.6913610
  20.6352990  65.9894260  18.6632960  20.2580970  66.4781360  17.9317860
  20.8926060  66.6619540  19.2939490  37.7122380  58.0913470  25.8262480
  36.7647290  58.1252450  25.9577910  38.0372370  58.9052420  26.2111840
  28.2441920  54.3910650  24.1218470  28.5516900  53.8357540  23.4053970
  27.3142620  54.5255110  23.9391460  35.0902400  66.8294160  21.5016100
  34.9798730  65.8868490  21.6265520  35.0870650  67.1909800  22.3878860
  33.1942420  65.0107780  27.7408540  33.6111210  64.7967890  26.9062000
  33.9182240  65.2680570  28.3117160  30.6322680  62.4559480  20.8578590
  29.7051960  62.3896860  21.0867060  30.7847500  63.3939610  20.7433830
  30.6191760  58.7276480  17.8545750  29.6795430  58.8890440  17.9398210
  30.9375020  59.4462160  17.3081740  37.1404520  63.4095000  27.8324780
  36.3123150  63.4788090  27.3574910  37.7355000  63.9949310  27.3640610
  34.6619970  64.0179780  21.3613840  34.0432390  63.6799330  20.7140140
  34.6444420  63.3739540  22.0693030  34.1046530  60.1964320  28.7779650
  33.6917710  61.0218030  29.0319640  33.3722480  59.6109360  28.5856010
  26.2379320  62.9824220  23.6398320  25.8336320  62.2701470  23.1444220
  26.3242440  62.6377460  24.5286360  26.7061020  66.6691780  25.8037530
  26.4089310  66.0637250  25.1245310  27.6560840  66.7069090  25.6926890
  24.9507940  59.7567430  27.4197360  25.5022530  59.8662770  26.6450610
  25.4651450  60.1305030  28.1352590  25.7979450  66.4073470  32.4545330
  24.9007980  66.6313440  32.7018730  25.8232320  66.5308410  31.5056730
  32.8384670  63.2566590  18.3686590  33.2777950  62.4189020  18.2224410
  33.5513090  63.8895990  18.4550730  24.6250670  63.2786790  31.0302700
  24.4858440  64.1509590  31.3990100  23.7432030  62.9359600  30.8850640
  36.4201810  54.5109400  16.6827630  36.1074470  54.6036230  17.5826700
  37.1814280  55.0890430  16.6325060  22.9383950  61.8769200  21.1404970
  22.8181550  62.6031290  20.5286240  22.6284840  61.1072110  20.6632880
  20.5769320  65.0484340  26.9473610  20.6549740  65.1833110  26.0029330
  21.1911000  64.3400230  27.1401730  21.8216950  66.7484530  23.3579790
  21.4145030  66.8899120  22.5033390  22.7129960  66.4644690  23.1551000
  37.7779090  67.1948440  31.6952030  37.9042150  66.9560320  30.7769210
  37.8200470  66.3632980  32.1674110  37.6303100  59.2480900  32.6601770
  37.0147370  59.7560570  32.1317230  37.3099520  58.3479230  32.6027710
  20.6328840  66.0898510  29.4868070  20.7959880  65.6203870  28.6687440
  21.0981290  65.5822070  30.1516910  25.4047610  55.2204270  24.5228640
  24.9615760  56.0013810  24.1913160  25.9632600  55.5434160  25.2299580
  29.6917420  58.0872790  30.1263960  29.2296790  58.2955810  30.9383900
  29.2895530  57.2732140  29.8234630  34.6921930  59.3081740  31.2560620
  33.8415520  59.0087490  31.5769690  34.5323720  59.5523750  30.3444440
  31.7871640  60.8083490  33.3559410  32.1125050  59.9747240  33.0161640
  32.5751970  61.3312010  33.5037740  28.5206430  54.8414970  19.4034470
  27.8960610  54.8374840  20.1287780  28.4336550  53.9745930  19.0070440
  27.4423510  55.7651600  26.3818240  27.7395840  56.6714430  26.3010260
  27.9909070  55.2770380  25.7677810  25.1961830  60.3437840  22.2509890
  24.9702750  60.1275010  23.1556510  24.4154360  60.7766300  21.9055860
  32.4259590  60.3501210  20.8500540  31.8268480  61.0737010  20.6664160
  32.9739200  60.2877990  20.0676990  27.6361040  61.2423420  32.9170160
  27.5404640  60.3018150  32.7670560  28.4793020  61.4638490  32.5218230
  31.0324460  58.9864750  22.8803820  31.4254030  59.3036950  22.0672510
  31.3941310  58.1076630  22.9948340  22.7671580  57.6537090  31.0703940
  22.3734970  58.5012300  31.2776720  22.0789980  57.0163460  31.2612580
  29.3416630  57.7372060  34.1400680  28.6514950  57.5444260  34.7746770
  30.0848930  58.0206700  34.6724980  20.0688630  55.5765550  25.1034020
  19.7801680  56.1468410  25.8159000  20.8134390  55.0970000  25.4665250
  20.2558860  59.5185670  16.3136740  20.1733530  60.4616430  16.4551730
  19.9041920  59.3760580  15.4349090  31.6179600  61.5770500  26.9754600
  30.8860720  62.0857310  27.3244700  31.2203940  60.7600480  26.6743380
  28.0556990  58.2524700  25.3807090  28.0593050  57.8114650  24.5311630
  28.9508110  58.5742030  25.4878910  23.9059370  58.1351190  24.3401300
  23.5659420  58.6126420  25.0968350  23.1436690  57.6816310  23.9802400
  28.1177140  59.2536780  18.3713850  28.2389960  59.2123260  19.3199670
  27.7325650  60.1160930  18.2160580  32.0805510  57.0304180  26.3877540
  32.0978250  57.4812830  27.2319390  31.8321090  56.1309820  26.6010980
  27.1298640  61.5637920  17.7697150  26.5615540  61.1156170  17.1433060
  27.8387640  61.9230700  17.2362300  35.5076260  54.4436360  32.2263920
  35.8322030  53.7126020  32.7521900  35.5432770  54.1250000  31.3244910
  22.2067820  65.4649940  31.6463880  21.8222610  64.8243610  32.2446840
  22.5180010  66.1686060  32.2158610  28.3564960  62.3126480  27.1272500
  28.7235090  61.8385050  27.8733840  28.1670020  63.1868050  27.4680840
  21.2205450  57.0570170  23.2565970  20.9352370  56.6925840  24.0944590
  21.1584310  56.3250630  22.6429110  26.1464330  61.3535120  29.4456710
  25.8421400  62.2327100  29.6707070  27.1010790  61.4134910  29.4814150
  24.6746120  65.5596110  20.0423560  23.9008380  65.0193730  19.8822280
  25.4040750  65.0402720  19.7041320  35.4334100  64.5561470  25.8349950
  36.1533220  65.0516760  25.4446060  35.2315920  63.8779360  25.1903820
  30.8944040  55.9499430  19.9779340  30.0808650  55.4512600  19.9024650
  30.7005990  56.7897680  19.5615690  30.8152900  64.6270530  31.7218950
  30.7490210  63.7066200  31.4676540  30.1858040  64.7245970  32.4363590
  33.6092430  60.3219080  18.2741500  34.4972050  60.6336310  18.0992840
  33.5797520  59.4491330  17.8822080  24.7183520  65.2276490  23.6802370
  25.2362190  64.4244750  23.6259260  24.2667540  65.1655630  24.5219200
  29.6053020  66.4942770  18.9529670  29.9468720  67.2385000  18.4572990
  28.7765730  66.8073890  19.3154500  22.2028060  62.1937860  30.5928070
  21.8443000  62.8591710  31.1801410  21.9082620  61.3621410  30.9640690
  25.4041180  62.6522100  33.4767620  25.1041320  62.7979280  32.5795440
  26.1752420  62.0927390  33.3841010  30.7469630  67.4491100  31.4722750
  30.7614170  66.5172060  31.2541660  30.0394730  67.5350860  32.1112520
  35.8806700  61.6330920  17.7421360  35.7970420  62.0645140  16.8917800
  36.6000890  62.0929270  18.1748180  36.9580840  64.0898440  30.8191330
  36.2329030  64.6827220  30.6220720  37.4856300  64.0821980  30.0204700
  32.4880430  65.8158610  24.3175180  32.8404250  65.2186740  23.6576550
  31.6042760  65.4902840  24.4883430  28.5743710  66.5756300  21.7245590
  29.2614840  67.1225510  22.1053180  27.7876130  67.1197030  21.7595200
  20.7136110  62.1929120  17.2162670  21.5830960  62.4753920  17.4998590
  20.2226430  63.0064990  17.1011480  27.8770920  63.5802330  21.3370950
  28.3333700  64.3907580  21.5631140  27.5259130  63.2625470  22.1689440
  23.7782700  53.9239980  21.8093470  23.6497330  53.9157880  22.7578390
  22.9544720  54.2623070  21.4584480  35.2991330  67.3789640  17.0079840
  35.0728910  66.6620080  17.6004480  34.9087530  67.1302080  16.1701590
  20.7776630  55.6831100  31.2700170  20.0635150  55.8828020  31.8752780
  21.1971670  54.9070670  31.6414970  34.8807580  65.2961580  18.6694000
  34.5929280  65.7574270  19.4571880  35.6759750  64.8359350  18.9378220
  22.6982620  64.0102590  19.3444730  22.0910570  64.7501490  19.3540030
  23.1731970  64.1001950  18.5182930  32.2715410  58.1753410  29.0201620
  32.6396230  57.3548620  29.3481190  31.4113610  58.2355300  29.4357270
  35.6377440  57.1310350  19.8289180  35.0090600  57.2356020  19.1147410
  35.1429360  57.3507130  20.6183060  27.6061470  59.4096300  21.2447060
  26.8977620  59.8782640  21.6860670  27.8905950  58.7518310  21.8792250
  29.2317400  60.8293000  29.2439590  29.7302650  61.3038820  29.9091440
  29.3740350  59.9056520  29.4509620  31.6376900  56.1346960  22.6842850
  31.5144680  56.1533090  21.7352360  32.5861460  56.1825900  22.8041250
  25.8096490  57.7181380  18.6197770  26.6587020  58.1551530  18.5537960
  25.4427760  58.0301640  19.4469830  36.4384260  57.0460960  30.0867980
  35.9357860  57.7866360  30.4261790  37.2540920  57.4344960  29.7704770
  34.7306270  62.2894140  23.5329340  33.7896410  62.3044370  23.7077030
  35.0450340  61.5030100  23.9789640  24.7087910  63.9713740  17.0933300
  25.4751180  63.8595100  17.6558730  24.7862600  63.2751710  16.4410070
  23.4034670  61.4038810  17.7766190  23.4838260  60.4566320  17.8883590
  24.2954420  61.7345690  17.8826850  32.0472290  66.8460140  34.0161720
  31.4410450  66.8691740  33.2757470  31.7426400  66.1143180  34.5528970
  20.9305470  63.2253730  33.0122360  21.4344490  62.6461010  33.5838590
  20.1912890  63.5093960  33.5498730  27.8329090  65.9467920  16.5668650
  27.7279730  65.3320270  17.2930030  27.6653310  65.4233810  15.7831660
  27.9843410  64.6324720  32.5457880  27.2189080  65.2009720  32.4612550
  28.1659370  64.3400930  31.6526110  31.0731820  65.0087950  17.1710640
  30.5241920  65.4557250  17.8153380  31.6951080  64.5037200  17.6948310
  35.1266760  66.3630050  33.1032900  35.8676230  66.7005810  32.6000360
  34.3639440  66.5322110  32.5502670  22.9628550  61.3683320  33.9072430
  23.0033890  61.0697190  34.8157660  23.8174050  61.7690930  33.7479950
  26.7406940  63.9678870  19.0675940  27.1623360  63.8018740  19.9107330
  26.8657780  63.1579100  18.5731080  24.9034360  59.9475420  31.8746920
  24.3730820  59.4566370  31.2470260  25.5722430  60.3759620  31.3404850
  29.2534580  62.9916480  16.3153040  29.7740240  62.2765500  15.9494190
  29.9002980  63.6302350  16.6153550  33.8012420  64.4144880  31.6388110
  34.2153440  64.5689960  32.4878530  32.8663420  64.5400100  31.8013890
  34.2734590  61.7541040  33.6427260  34.8555360  60.9993360  33.5547740
  34.4496360  62.2848480  32.8658740  25.3906660  56.9137790  31.9544210
  25.2963530  56.2958540  31.2295080  24.8104050  57.6404080  31.7274120
  28.1568100  55.4711030  28.9871600  27.7085400  55.4935290  28.1417150
  27.5233300  55.0730050  29.5841900  28.5627650  64.3665360  29.6084040
  28.9815760  65.2098090  29.4360280  27.6436280  64.5037400  29.3790820
  30.8991550  62.0981540  30.9921880  31.0187760  61.5022680  31.7316720
  31.7585550  62.1351230  30.5723180  33.2379450  62.6518730  29.5684390
  32.7114670  63.1761350  28.9649530  33.5810790  63.2846120  30.1994120
  25.6365840  60.0412100  16.0134100  25.4354900  59.1779460  16.3747440
  25.4657890  59.9545460  15.0755700  27.6660320  58.6402890  32.2497700
  28.2560010  58.3318740  32.9375520  26.8480560  58.1682640  32.4057600
  32.4853750  58.2568700  32.4830720  31.7969270  57.5950240  32.4180710
  33.2059770  57.8106970  32.9279180  33.1154150  54.8520330  18.5420980
  33.3956440  54.0088230  18.8980400  32.3419880  55.0843440  19.0559730
  24.4348640  57.1412720  16.0011980  24.7374540  57.1480150  15.0931130
  25.1743230  56.7910580  16.4979640  27.6533570  56.0847340  16.9868180
  27.3055570  55.4071330  16.4070630  27.8546340  55.6236850  17.8011570
  23.4578770  66.4455140  16.8341780  23.8953640  66.9884810  17.4899360
  23.9426500  65.6202090  16.8438120  25.2686490  67.5653180  21.9464010
  24.9682030  67.4418150  22.8467920  25.1623980  66.7061770  21.5379740
  37.4934870  64.0897060  19.1524890  38.2553780  64.6593710  19.2584580
  37.5089240  63.5224260  19.9233200  20.9939210  62.6134990  23.3832550
  20.3388050  62.3446630  22.7392250  21.8317160  62.5039470  22.9334530
  38.4994840  64.9447160  23.9966820  38.8703670  64.1614480  23.5902790
  39.1396770  65.6336260  23.8184120  35.4828600  66.3283740  29.4097140
  34.6688440  66.7580900  29.6722930  35.8902800  66.9402150  28.7966190
  37.5454040  64.3831430  16.3097410  37.8202880  65.2910310  16.1816630
  37.3564780  64.3193960  17.2459400  33.9429650  57.4076280  17.6051040
  34.3614530  57.2207260  16.7647700  33.6365710  56.5555330  17.9153970
  37.4419380  62.3200420  21.3026840  37.0662980  61.5528350  20.8708130
  36.7122500  62.7023120  21.7901770  22.0315140  62.9987560  27.9235890
  22.3988180  62.9114960  28.8031910  21.4625960  62.2354110  27.8242750
  36.8319000  61.4671940  30.9366360  36.6005090  61.2384690  30.0364310
  37.0923550  62.3871490  30.8911250  21.5831140  59.9096650  31.8294310
  20.6887190  59.8763410  32.1688020  22.1228690  60.1083440  32.5945560
  35.2707070  56.6928370  33.7146060  36.1477250  56.7011770  34.0980060
  35.2827910  55.9559210  33.1038410  20.2077290  59.8233920  19.3257880
  19.3041370  60.0864120  19.1509540  20.6917910  60.0945090  18.5457840
  36.7170340  60.5457910  24.6034080  37.2407820  60.0520560  23.9724250
  37.3029760  60.6808270  25.3481650  36.8960060  60.6297780  28.1253630
  35.9462770  60.5961320  28.2398620  37.0773070  61.5397890  27.8903400
  22.7504500  58.8799460  17.2352260  23.4596200  58.4582680  16.7499540
  22.0344440  58.9474690  16.6035610  22.3978660  54.9338790  16.2754910
  23.1206790  55.4747730  16.5936130  22.6703180  54.6602210  15.3996450
  36.2070310  59.8031260  20.5426490  36.7029430  59.5702130  21.3275370
  36.0086380  58.9643100  20.1264130  22.0870850  54.1844980  26.1777530
  22.7347040  53.6342360  25.7372690  22.5072690  54.4388130  26.9993340
  37.6357470  58.4392210  23.0764170  37.5256750  58.2848250  24.0146440
  38.3965060  57.9113150  22.8339580  35.9823190  54.3786340  29.5347170
  36.6195410  54.9920480  29.9006360  36.1298080  54.4147000  28.5896400
  38.5247740  56.2700130  16.3170310  39.4497050  56.1381310  16.1088600
  38.5023530  56.3492950  17.2706760  38.5986230  57.0410790  18.9427020
  37.8037730  56.9755910  19.4719930  38.8029510  57.9761430  18.9312370
  21.8402850  54.3400650  28.9202850  21.4917670  54.7964470  29.6861030
  21.5090550  53.4457780  29.0025280  29.3527670  55.5312530  32.4422270
  29.2916560  56.1234360  33.1917680  30.2928050  55.4238490  32.2972530
  31.9902230  55.1882590  32.0814560  32.6042640  55.5061880  31.4195640
  32.5351790  54.7031180  32.7010420  22.5123490  53.8676850  32.1953620
  23.0606480  53.6864900  31.4319730  22.5778800  53.0770960  32.7309930
  32.7310270  53.7514730  28.4083850  31.8570110  54.0849840  28.2056780
  32.6221020  53.2787910  29.2335720  33.6382250  55.9585600  29.7925570
  33.3095610  55.1437360  29.4127300  34.5864550  55.9155410  29.6691260
  30.4785090  54.6684570  27.3476760  29.6956880  55.1430070  27.6273520
  30.1848020  53.7639400  27.2389940  35.0306160  55.3707670  25.3925850
  35.4714250  55.3152770  24.5447450  34.7613750  56.2865680  25.4636030
  36.8944730  55.0022910  23.4034670  36.8333130  54.0584130  23.2565690
  37.6736760  55.1103000  23.9488130  21.8225500  54.9732050  19.8690480
  22.5804860  55.0860930  19.2954510  21.3602670  55.8101250  19.8233910
  28.3639310  57.0871320  22.8592790  27.5513820  56.7128210  22.5188670
  28.8680950  56.3316400  23.1613980  32.8664290  53.7513770  24.0975860
  33.4693660  54.3233980  24.5724380  32.1257280  54.3153210  23.8749760
  36.0098890  54.1535330  19.3716140  36.2049520  55.0518780  19.6383570
  35.2228760  53.9222410  19.8649090  24.1950650  55.4996100  18.4092450
  24.7243410  54.7125900  18.2800400  24.8278970  56.1787290  18.6427980
  26.3888490  55.2371240  21.4637840  25.7591230  54.5358550  21.6307970
  25.8493630  55.9975370  21.2471000  26.5144050  54.5155220  33.8990330
  26.2328320  55.0188820  33.1351150  26.8963750  53.7176970  33.5332460
  33.1159510  53.9308800  34.4770800  33.0024960  54.2503410  35.3722320
  33.9329250  54.3321310  34.1808080  32.0217660  61.9501270   4.8405540
  31.9411710  61.0355880   4.5697250  31.6082080  62.4468340   4.1345250
  30.1535700  63.7280290   6.7214810  29.3777800  63.2480730   7.0113380
  30.8048630  63.0485940   6.5470970  24.1701530  64.0400100   7.5990570
  23.3386410  63.7848810   7.9987080  24.7782510  64.1110870   8.3348490
  20.5426490  61.6007640   7.2672660  21.1142600  60.8329840   7.2676300
  20.5428030  61.8996400   6.3579270  29.5944690  66.4037480   6.7284970
  29.5252970  65.4627420   6.5674100  30.3564550  66.4938890   7.3007540
  21.7851360  57.0092000   9.0541590  21.6054200  56.1117750   9.3344350
  21.3831440  57.5563870   9.7288540  30.6249860  59.2107860   6.9553900
  31.0014680  58.3379740   6.8427570  30.5269370  59.5466560   6.0644340
  24.7554870  57.5833490   2.4171340  24.8621620  58.4837220   2.7240100
  23.8447230  57.5351460   2.1265990  34.4073980  56.7058300   3.8882240
  35.2283600  56.2154870   3.9307720  34.4408060  57.2955960   4.6414080
  22.4038030  59.5052500   7.6623930  23.0848140  59.7690870   8.2811330
  22.0886080  58.6653370   7.9961940  26.5962600  60.5519860   6.7496520
  27.1040820  61.0500830   7.3901540  27.1275840  59.7755060   6.5735880
  38.6973530  58.7225050  10.4525870  37.9925700  59.1106760   9.9340980
  38.9631450  59.4175340  11.0546800  24.8798700  55.1918420  11.0159940
  24.8817140  55.7090810  10.2105840  24.0503010  54.7148600  10.9929870
  31.2669790  65.3037730   2.5149840  30.6487060  65.7687180   1.9512560
  31.7793040  65.9965210   2.9319350  26.1301550  64.8313600   9.1933440
  25.7970930  65.4582520   9.8354510  26.3068230  65.3575480   8.4135110
  34.6435460  58.6458680   6.6609780  33.9391030  58.9343570   7.2412890
  35.0047620  59.4558790   6.3009340  24.5614030  56.9028380   9.0230390
  24.9030840  57.7470430   8.7284260  23.6229840  57.0512120   9.1395730
  25.3420650  66.7994400  11.0082620  25.9594650  67.4745480  10.7267070
  24.4813770  67.2082380  10.9170120  37.7122380  58.0913470   7.0518990
  36.7647290  58.1252450   7.1834420  38.0372370  58.9052420   7.4368350
  28.2441920  54.3910650   5.3474980  28.5516900  53.8357540   4.6310480
  27.3142620  54.5255110   5.1647970  35.0902400  66.8294160   2.7272610
  34.9798730  65.8868490   2.8522030  35.0870650  67.1909800   3.6135370
  33.1942420  65.0107780   8.9665050  33.6111210  64.7967890   8.1318510
  33.9182240  65.2680570   9.5373670  30.6322680  62.4559480   2.0835100
  29.7051960  62.3896860   2.3123570  30.7847500  63.3939610   1.9690340
  37.1404520  63.4095000   9.0581290  36.3123150  63.4788090   8.5831420
  37.7355000  63.9949310   8.5897120  34.6619970  64.0179780   2.5870350
  34.0432390  63.6799330   1.9396650  34.6444420  63.3739540   3.2949540
  34.1046530  60.1964320  10.0036160  33.6917710  61.0218030  10.2576150
  33.3722480  59.6109360   9.8112520  26.2379320  62.9824220   4.8654830
  25.8336320  62.2701470   4.3700730  26.3242440  62.6377460   5.7542870
  26.7061020  66.6691780   7.0294040  26.4089310  66.0637250   6.3501820
  27.6560840  66.7069090   6.9183400  24.9507940  59.7567430   8.6453870
  25.5022530  59.8662770   7.8707120  25.4651450  60.1305030   9.3609100
  25.7979450  66.4073470  13.6801840  24.9007980  66.6313440  13.9275240
  25.8232320  66.5308410  12.7313240  24.6250670  63.2786790  12.2559210
  24.4858440  64.1509590  12.6246610  23.7432030  62.9359600  12.1107150
  22.9383950  61.8769200   2.3661480  22.8181550  62.6031290   1.7542750
  22.6284840  61.1072110   1.8889390  20.5769320  65.0484340   8.1730120
  20.6549740  65.1833110   7.2285840  21.1911000  64.3400230   8.3658240
  21.8216950  66.7484530   4.5836300  21.4145030  66.8899120   3.7289900
  22.7129960  66.4644690   4.3807510  37.7779090  67.1948440  12.9208540
  37.9042150  66.9560320  12.0025720  37.8200470  66.3632980  13.3930620
  37.6303100  59.2480900  13.8858280  37.0147370  59.7560570  13.3573740
  37.3099520  58.3479230  13.8284220  20.6328840  66.0898510  10.7124580
  20.7959880  65.6203870   9.8943950  21.0981290  65.5822070  11.3773420
  25.4047610  55.2204270   5.7485150  24.9615760  56.0013810   5.4169670
  25.9632600  55.5434160   6.4556090  29.6917420  58.0872790  11.3520470
  29.2296790  58.2955810  12.1640410  29.2895530  57.2732140  11.0491140
  34.6921930  59.3081740  12.4817130  33.8415520  59.0087490  12.8026200
  34.5323720  59.5523750  11.5700950  31.7871640  60.8083490  14.5815920
  32.1125050  59.9747240  14.2418150  32.5751970  61.3312010  14.7294250
  27.4423510  55.7651600   7.6074750  27.7395840  56.6714430   7.5266770
  27.9909070  55.2770380   6.9934320  25.1961830  60.3437840   3.4766400
  24.9702750  60.1275010   4.3813020  24.4154360  60.7766300   3.1312370
  32.4259590  60.3501210   2.0757050  31.8268480  61.0737010   1.8920670
  32.9739200  60.2877990   1.2933500  27.6361040  61.2423420  14.1426670
  27.5404640  60.3018150  13.9927070  28.4793020  61.4638490  13.7474740
  31.0324460  58.9864750   4.1060330  31.4254030  59.3036950   3.2929020
  31.3941310  58.1076630   4.2204850  22.7671580  57.6537090  12.2960450
  22.3734970  58.5012300  12.5033230  22.0789980  57.0163460  12.4869090
  29.3416630  57.7372060  15.3657190  28.6514950  57.5444260  16.0003280
  30.0848930  58.0206700  15.8981490  20.0688630  55.5765550   6.3290530
  19.7801680  56.1468410   7.0415510  20.8134390  55.0970000   6.6921760
  31.6179600  61.5770500   8.2011110  30.8860720  62.0857310   8.5501210
  31.2203940  60.7600480   7.8999890  28.0556990  58.2524700   6.6063600
  28.0593050  57.8114650   5.7568140  28.9508110  58.5742030   6.7135420
  23.9059370  58.1351190   5.5657810  23.5659420  58.6126420   6.3224860
  23.1436690  57.6816310   5.2058910  32.0805510  57.0304180   7.6134050
  32.0978250  57.4812830   8.4575900  31.8321090  56.1309820   7.8267490
  35.5076260  54.4436360  13.4520430  35.8322030  53.7126020  13.9778410
  35.5432770  54.1250000  12.5501420  22.2067820  65.4649940  12.8720390
  21.8222610  64.8243610  13.4703350  22.5180010  66.1686060  13.4415120
  28.3564960  62.3126480   8.3529010  28.7235090  61.8385050   9.0990350
  28.1670020  63.1868050   8.6937350  21.2205450  57.0570170   4.4822480
  20.9352370  56.6925840   5.3201100  21.1584310  56.3250630   3.8685620
  26.1464330  61.3535120  10.6713220  25.8421400  62.2327100  10.8963580
  27.1010790  61.4134910  10.7070660  35.4334100  64.5561470   7.0606460
  36.1533220  65.0516760   6.6702570  35.2315920  63.8779360   6.4160330
  30.8152900  64.6270530  12.9475460  30.7490210  63.7066200  12.6933050
  30.1858040  64.7245970  13.6620100  24.7183520  65.2276490   4.9058880
  25.2362190  64.4244750   4.8515770  24.2667540  65.1655630   5.7475710
  22.2028060  62.1937860  11.8184580  21.8443000  62.8591710  12.4057920
  21.9082620  61.3621410  12.1897200  25.4041180  62.6522100  14.7024130
  25.1041320  62.7979280  13.8051950  26.1752420  62.0927390  14.6097520
  30.7469630  67.4491100  12.6979260  30.7614170  66.5172060  12.4798170
  30.0394730  67.5350860  13.3369030  36.9580840  64.0898440  12.0447840
  36.2329030  64.6827220  11.8477230  37.4856300  64.0821980  11.2461210
  32.4880430  65.8158610   5.5431690  32.8404250  65.2186740   4.8833060
  31.6042760  65.4902840   5.7139940  28.5743710  66.5756300   2.9502100
  29.2614840  67.1225510   3.3309690  27.7876130  67.1197030   2.9851710
  27.8770920  63.5802330   2.5627460  28.3333700  64.3907580   2.7887650
  27.5259130  63.2625470   3.3945950  23.7782700  53.9239980   3.0349980
  23.6497330  53.9157880   3.9834900  22.9544720  54.2623070   2.6840990
  20.7776630  55.6831100  12.4956680  20.0635150  55.8828020  13.1009290
  21.1971670  54.9070670  12.8671480  32.2715410  58.1753410  10.2458130
  32.6396230  57.3548620  10.5737700  31.4113610  58.2355300  10.6613780
  27.6061470  59.4096300   2.4703570  26.8977620  59.8782640   2.9117180
  27.8905950  58.7518310   3.1048760  29.2317400  60.8293000  10.4696100
  29.7302650  61.3038820  11.1347950  29.3740350  59.9056520  10.6766130
  31.6376900  56.1346960   3.9099360  31.5144680  56.1533090   2.9608870
  32.5861460  56.1825900   4.0297760  36.4384260  57.0460960  11.3124490
  35.9357860  57.7866360  11.6518300  37.2540920  57.4344960  10.9961280
  34.7306270  62.2894140   4.7585850  33.7896410  62.3044370   4.9333540
  35.0450340  61.5030100   5.2046150  32.0472290  66.8460140  15.2418230
  31.4410450  66.8691740  14.5013980  31.7426400  66.1143180  15.7785480
  20.9305470  63.2253730  14.2378870  21.4344490  62.6461010  14.8095100
  20.1912890  63.5093960  14.7755240  27.9843410  64.6324720  13.7714390
  27.2189080  65.2009720  13.6869060  28.1659370  64.3400930  12.8782620
  35.1266760  66.3630050  14.3289410  35.8676230  66.7005810  13.8256870
  34.3639440  66.5322110  13.7759180  22.9628550  61.3683320  15.1328940
  23.0033890  61.0697190  16.0414170  23.8174050  61.7690930  14.9736460
  24.9034360  59.9475420  13.1003430  24.3730820  59.4566370  12.4726770
  25.5722430  60.3759620  12.5661360  33.8012420  64.4144880  12.8644620
  34.2153440  64.5689960  13.7135040  32.8663420  64.5400100  13.0270400
  34.2734590  61.7541040  14.8683770  34.8555360  60.9993360  14.7804250
  34.4496360  62.2848480  14.0915250  25.3906660  56.9137790  13.1800720
  25.2963530  56.2958540  12.4551590  24.8104050  57.6404080  12.9530630
  28.1568100  55.4711030  10.2128110  27.7085400  55.4935290   9.3673660
  27.5233300  55.0730050  10.8098410  28.5627650  64.3665360  10.8340550
  28.9815760  65.2098090  10.6616790  27.6436280  64.5037400  10.6047330
  30.8991550  62.0981540  12.2178390  31.0187760  61.5022680  12.9573230
  31.7585550  62.1351230  11.7979690  33.2379450  62.6518730  10.7940900
  32.7114670  63.1761350  10.1906040  33.5810790  63.2846120  11.4250630
  27.6660320  58.6402890  13.4754210  28.2560010  58.3318740  14.1632030
  26.8480560  58.1682640  13.6314110  32.4853750  58.2568700  13.7087230
  31.7969270  57.5950240  13.6437220  33.2059770  57.8106970  14.1535690
  25.2686490  67.5653180   3.1720520  24.9682030  67.4418150   4.0724430
  25.1623980  66.7061770   2.7636250  20.9939210  62.6134990   4.6089060
  20.3388050  62.3446630   3.9648760  21.8317160  62.5039470   4.1591040
  38.4994840  64.9447160   5.2223330  38.8703670  64.1614480   4.8159300
  39.1396770  65.6336260   5.0440630  35.4828600  66.3283740  10.6353650
  34.6688440  66.7580900  10.8979440  35.8902800  66.9402150  10.0222700
  37.4419380  62.3200420   2.5283350  37.0662980  61.5528350   2.0964640
  36.7122500  62.7023120   3.0158280  22.0315140  62.9987560   9.1492400
  22.3988180  62.9114960  10.0288420  21.4625960  62.2354110   9.0499260
  36.8319000  61.4671940  12.1622870  36.6005090  61.2384690  11.2620820
  37.0923550  62.3871490  12.1167760  21.5831140  59.9096650  13.0550820
  20.6887190  59.8763410  13.3944530  22.1228690  60.1083440  13.8202070
  35.2707070  56.6928370  14.9402570  36.1477250  56.7011770  15.3236570
  35.2827910  55.9559210  14.3294920  36.7170340  60.5457910   5.8290590
  37.2407820  60.0520560   5.1980760  37.3029760  60.6808270   6.5738160
  36.8960060  60.6297780   9.3510140  35.9462770  60.5961320   9.4655130
  37.0773070  61.5397890   9.1159910  36.2070310  59.8031260   1.7683000
  36.7029430  59.5702130   2.5531880  36.0086380  58.9643100   1.3520640
  22.0870850  54.1844980   7.4034040  22.7347040  53.6342360   6.9629200
  22.5072690  54.4388130   8.2249850  37.6357470  58.4392210   4.3020680
  37.5256750  58.2848250   5.2402950  38.3965060  57.9113150   4.0596090
  35.9823190  54.3786340  10.7603680  36.6195410  54.9920480  11.1262870
  36.1298080  54.4147000   9.8152910  21.8402850  54.3400650  10.1459360
  21.4917670  54.7964470  10.9117540  21.5090550  53.4457780  10.2281790
  29.3527670  55.5312530  13.6678780  29.2916560  56.1234360  14.4174190
  30.2928050  55.4238490  13.5229040  31.9902230  55.1882590  13.3071070
  32.6042640  55.5061880  12.6452150  32.5351790  54.7031180  13.9266930
  22.5123490  53.8676850  13.4210130  23.0606480  53.6864900  12.6576240
  22.5778800  53.0770960  13.9566440  32.7310270  53.7514730   9.6340360
  31.8570110  54.0849840   9.4313290  32.6221020  53.2787910  10.4592230
  33.6382250  55.9585600  11.0182080  33.3095610  55.1437360  10.6383810
  34.5864550  55.9155410  10.8947770  30.4785090  54.6684570   8.5733270
  29.6956880  55.1430070   8.8530030  30.1848020  53.7639400   8.4646450
  35.0306160  55.3707670   6.6182360  35.4714250  55.3152770   5.7703960
  34.7613750  56.2865680   6.6892540  36.8944730  55.0022910   4.6291180
  36.8333130  54.0584130   4.4822200  37.6736760  55.1103000   5.1744640
  28.3639310  57.0871320   4.0849300  27.5513820  56.7128210   3.7445180
  28.8680950  56.3316400   4.3870490  32.8664290  53.7513770   5.3232370
  33.4693660  54.3233980   5.7980890  32.1257280  54.3153210   5.1006270
  26.3888490  55.2371240   2.6894350  25.7591230  54.5358550   2.8564480
  25.8493630  55.9975370   2.4727510  26.5144050  54.5155220  15.1246840
  26.2328320  55.0188820  14.3607660  26.8963750  53.7176970  14.7588970
  33.1159510  53.9308800  15.7027310  33.0024960  54.2503410  16.5978830
  33.9329250  54.3321310  15.4064590  32.0217660  43.1757780  61.1636010
  31.9411710  42.2612390  60.8927720  31.6082080  43.6724850  60.4575720
  30.1535700  44.9536800  63.0445280  29.3777800  44.4737240  63.3343850
  30.8048630  44.2742450  62.8701440  24.1701530  45.2656610  63.9221040
  23.3386410  45.0105320  64.3217550  24.7782510  45.3367380  64.6578960
  34.1743130  49.3596990  61.8244410  33.7124660  48.5884230  62.1531580
  34.9868680  49.3863060  62.3296860  24.1502790  49.2996700  64.1179060
  24.4530830  48.4094440  63.9389280  24.8946380  49.8566920  63.8901310
  22.5793480  40.2258500  57.7063430  21.6910180  40.5674470  57.6043310
  22.8634670  40.0258820  56.8144260  20.5426490  42.8264150  63.5903130
  21.1142600  42.0586350  63.5906770  20.5428030  43.1252910  62.6809740
  30.4006440  51.6455000  61.4448400  29.7817880  52.1012500  60.8742840
  31.2558220  51.8006460  61.0438100  29.5944690  47.6293990  63.0515440
  29.5252970  46.6883930  62.8904570  30.3564550  47.7195400  63.6238010
  21.7851360  38.2348510  65.3772060  21.6054200  37.3374260  65.6574820
  21.3831440  38.7820380  66.0519010  30.6249860  40.4364370  63.2784370
  31.0014680  39.5636250  63.1658040  30.5269370  40.7723070  62.3874810
  24.7554870  38.8090000  58.7401810  24.8621620  39.7093730  59.0470570
  23.8447230  38.7607970  58.4496460  34.4073980  37.9314810  60.2112710
  35.2283600  37.4411380  60.2538190  34.4408060  38.5212470  60.9644550
  22.4038030  40.7309010  63.9854400  23.0848140  40.9947380  64.6041800
  22.0886080  39.8909880  64.3192410  26.5962600  41.7776370  63.0726990
  27.1040820  42.2757340  63.7132010  27.1275840  41.0011570  62.8966350
  38.6973530  39.9481560  66.7756340  37.9925700  40.3363270  66.2571450
  38.9631450  40.6431850  67.3777270  24.8798700  36.4174930  67.3390410
  24.8817140  36.9347320  66.5336310  24.0503010  35.9405110  67.3160340
  31.2669790  46.5294240  58.8380310  30.6487060  46.9943690  58.2743030
  31.7793040  47.2221720  59.2549820  26.1301550  46.0570110  65.5163910
  25.7970930  46.6839030  66.1584980  26.3068230  46.5831990  64.7365580
  34.6435460  39.8715190  62.9840250  33.9391030  40.1600080  63.5643360
  35.0047620  40.6815300  62.6239810  24.5614030  38.1284890  65.3460860
  24.9030840  38.9726940  65.0514730  23.6229840  38.2768630  65.4626200
  25.3420650  48.0250910  67.3313090  25.9594650  48.7001990  67.0497540
  24.4813770  48.4338890  67.2400590  20.6352990  47.2150770  56.2119940
  20.2580970  47.7037870  55.4804840  20.8926060  47.8876050  56.8426470
  36.2598240  49.4890320  65.2467730  35.5761760  50.1589430  65.2384400
  36.7992530  49.6870970  64.4812590  37.7122380  39.3169980  63.3749460
  36.7647290  39.3508960  63.5064890  38.0372370  40.1308930  63.7598820
  28.2441920  35.6167160  61.6705450  28.5516900  35.0614050  60.9540950
  27.3142620  35.7511620  61.4878440  33.7956980  51.3334450  63.9612910
  33.8084140  50.9296740  63.0935170  33.2432200  52.1081740  63.8574340
  35.0902400  48.0550670  59.0503080  34.9798730  47.1125000  59.1752500
  35.0870650  48.4166310  59.9365840  33.1942420  46.2364290  65.2895520
  33.6111210  46.0224400  64.4548980  33.9182240  46.4937080  65.8604140
  30.6322680  43.6815990  58.4065570  29.7051960  43.6153370  58.6354040
  30.7847500  44.6196120  58.2920810  30.6191760  39.9532990  55.4032730
  29.6795430  40.1146950  55.4885190  30.9375020  40.6718670  54.8568720
  37.1404520  44.6351510  65.3811760  36.3123150  44.7044600  64.9061890
  37.7355000  45.2205820  64.9127590  34.6619970  45.2436290  58.9100820
  34.0432390  44.9055840  58.2627120  34.6444420  44.5996050  59.6180010
  34.1046530  41.4220830  66.3266630  33.6917710  42.2474540  66.5806620
  33.3722480  40.8365870  66.1342990  26.2379320  44.2080730  61.1885300
  25.8336320  43.4957980  60.6931200  26.3242440  43.8633970  62.0773340
  26.7061020  47.8948290  63.3524510  26.4089310  47.2893760  62.6732290
  27.6560840  47.9325600  63.2413870  24.9507940  40.9823940  64.9684340
  25.5022530  41.0919280  64.1937590  25.4651450  41.3561540  65.6839570
  34.7946630  51.4680160  67.0147610  34.3177190  52.2752350  66.8220220
  34.1108420  50.8158490  67.1673820  32.8384670  44.4823100  55.9173570
  33.2777950  43.6445530  55.7711390  33.5513090  45.1152500  56.0037710
  30.9480050  49.4219170  59.8854810  31.3875960  50.1643500  59.4710200
  30.8866940  49.6645740  60.8093770  36.4201810  35.7365910  54.2314610
  36.1074470  35.8292740  55.1313680  37.1814280  36.3146940  54.1812040
  22.9383950  43.1025710  58.6891950  22.8181550  43.8287800  58.0773220
  22.6284840  42.3328620  58.2119860  20.5769320  46.2740850  64.4960590
  20.6549740  46.4089620  63.5516310  21.1911000  45.5656740  64.6888710
  21.8216950  47.9741040  60.9066770  21.4145030  48.1155630  60.0520370
  22.7129960  47.6901200  60.7037980  33.6150230  52.4088290  57.2417820
  33.4551370  52.1191230  58.1399650  33.4496940  51.6328420  56.7063050
  26.0938610  52.1886820  59.0189440  25.9181090  51.2722360  58.8057240
  25.2394350  52.5474110  59.2587240  33.3176360  49.9175850  55.8015820
  32.6241520  49.9153140  55.1418100  34.0599220  49.4935170  55.3709990
  32.8826290  51.5438560  59.8764310  33.3383240  50.7627940  60.1902930
  33.2218810  52.2545380  60.4205490  20.6328840  47.3155020  67.0355050
  20.7959880  46.8460380  66.2174420  21.0981290  46.8078580  67.7003890
  25.4047610  36.4460780  62.0715620  24.9615760  37.2270320  61.7400140
  25.9632600  36.7690670  62.7786560  28.5206430  36.0671480  56.9521450
  27.8960610  36.0631350  57.6774760  28.4336550  35.2002440  56.5557420
  27.4423510  36.9908110  63.9305220  27.7395840  37.8970940  63.8497240
  27.9909070  36.5026890  63.3164790  25.1961830  41.5694350  59.7996870
  24.9702750  41.3531520  60.7043490  24.4154360  42.0022810  59.4542840
  32.4259590  41.5757720  58.3987520  31.8268480  42.2993520  58.2151140
  32.9739200  41.5134500  57.6163970  31.0324460  40.2121260  60.4290800
  31.4254030  40.5293460  59.6159490  31.3941310  39.3333140  60.5435320
  20.0688630  36.8022060  62.6521000  19.7801680  37.3724920  63.3645980
  20.8134390  36.3226510  63.0152230  20.2558860  40.7442180  53.8623720
  20.1733530  41.6872940  54.0038710  19.9041920  40.6017090  52.9836070
  31.6179600  42.8027010  64.5241580  30.8860720  43.3113820  64.8731680
  31.2203940  41.9856990  64.2230360  28.0556990  39.4781210  62.9294070
  28.0593050  39.0371160  62.0798610  28.9508110  39.7998540  63.0365890
  23.9059370  39.3607700  61.8888280  23.5659420  39.8382930  62.6455330
  23.1436690  38.9072820  61.5289380  28.1177140  40.4793290  55.9200830
  28.2389960  40.4379770  56.8686650  27.7325650  41.3417440  55.7647560
  32.0805510  38.2560690  63.9364520  32.0978250  38.7069340  64.7806370
  31.8321090  37.3566330  64.1497960  27.1298640  42.7894430  55.3184130
  26.5615540  42.3412680  54.6920040  27.8387640  43.1487210  54.7849280
  28.3564960  43.5382990  64.6759480  28.7235090  43.0641560  65.4220820
  28.1670020  44.4124560  65.0167820  21.2205450  38.2826680  60.8052950
  20.9352370  37.9182350  61.6431570  21.1584310  37.5507140  60.1916090
  26.1464330  42.5791630  66.9943690  25.8421400  43.4583610  67.2194050
  27.1010790  42.6391420  67.0301130  24.6746120  46.7852620  57.5910540
  23.9008380  46.2450240  57.4309260  25.4040750  46.2659230  57.2528300
  35.4334100  45.7817980  63.3836930  36.1533220  46.2773270  62.9933040
  35.2315920  45.1035870  62.7390800  30.8944040  37.1755940  57.5266320
  30.0808650  36.6769110  57.4511630  30.7005990  38.0154190  57.1102670
  33.6092430  41.5475590  55.8228480  34.4972050  41.8592820  55.6479820
  33.5797520  40.6747840  55.4309060  24.7183520  46.4533000  61.2289350
  25.2362190  45.6501260  61.1746240  24.2667540  46.3912140  62.0706180
  29.6053020  47.7199280  56.5016650  29.9468720  48.4641510  56.0059970
  28.7765730  48.0330400  56.8641480  35.8806700  42.8587430  55.2908340
  35.7970420  43.2901650  54.4404780  36.6000890  43.3185780  55.7235160
  36.9093950  49.7129690  58.0190470  36.2670110  49.0585310  58.2934190
  36.5224610  50.1184780  57.2431140  32.4880430  47.0415120  61.8662160
  32.8404250  46.4443250  61.2063530  31.6042760  46.7159350  62.0370410
  28.5743710  47.8012810  59.2732570  29.2614840  48.3482020  59.6540160
  27.7876130  48.3453540  59.3082180  20.7136110  43.4185630  54.7649650
  21.5830960  43.7010430  55.0485570  20.2226430  44.2321500  54.6498460
  27.8770920  44.8058840  58.8857930  28.3333700  45.6164090  59.1118120
  27.5259130  44.4881980  59.7176420  30.1803530  50.3165180  66.1150230
  30.8245750  50.5224560  66.7923650  30.5432970  49.5553580  65.6621080
  23.7782700  35.1496490  59.3580450  23.6497330  35.1414390  60.3065370
  22.9544720  35.4879580  59.0071460  31.4535610  48.3197530  64.8327680
  32.0957840  47.6190690  64.9459850  31.9784960  49.0995970  64.6524570
  35.2991330  48.6046150  54.5566820  35.0728910  47.8876590  55.1491460
  34.9087530  48.3558590  53.7188570  21.0807360  52.6313010  55.3311280
  21.4405000  53.2302350  54.6768550  20.9399700  53.1772900  56.1046310
  34.8807580  46.5218090  56.2180980  34.5929280  46.9830780  57.0058860
  35.6759750  46.0615860  56.4865200  27.0975980  50.0144210  56.1484950
  27.0886080  50.7473900  55.5329460  26.1774340  49.7675790  56.2411910
  22.6982620  45.2359100  56.8931710  22.0910570  45.9758000  56.9027010
  23.1731970  45.3258460  56.0669910  32.2715410  39.4009920  66.5688600
  32.6396230  38.5805130  66.8968170  31.4113610  39.4611810  66.9844250
  35.6377440  38.3566860  57.3776160  35.0090600  38.4612530  56.6634390
  35.1429360  38.5763640  58.1670040  30.0835580  50.0772450  54.8110140
  30.1847560  49.8736440  53.8812120  29.1837320  49.8230730  55.0157920
  27.6061470  40.6352810  58.7934040  26.8977620  41.1039150  59.2347650
  27.8905950  39.9774820  59.4279230  29.2317400  42.0549510  66.7926570
  29.7302650  42.5295330  67.4578420  29.3740350  41.1313030  66.9996600
  31.6376900  37.3603470  60.2329830  31.5144680  37.3789600  59.2839340
  32.5861460  37.4082410  60.3528230  28.7253690  52.5958770  59.5057810
  28.9795190  52.5580160  58.5837180  27.7766170  52.4692100  59.4986060
  25.8096490  38.9437890  56.1684750  26.6587020  39.3808040  56.1024940
  25.4427760  39.2558150  56.9956810  36.4384260  38.2717470  67.6354960
  35.9357860  39.0122870  67.9748770  37.2540920  38.6601470  67.3191750
  34.7306270  43.5150650  61.0816320  33.7896410  43.5300880  61.2564010
  35.0450340  42.7286610  61.5276620  24.7087910  45.1970250  54.6420280
  25.4751180  45.0851610  55.2045710  24.7862600  44.5008220  53.9897050
  23.4034670  42.6295320  55.3253170  23.4838260  41.6822830  55.4370570
  24.2954420  42.9602200  55.4313830  36.7331850  50.6859500  62.7570580
  36.8579270  51.5090670  63.2294390  37.5997410  50.4750230  62.4094730
  24.2049380  52.7790710  62.4287710  24.9411860  52.2306170  62.6996280
  24.5890300  53.6446720  62.2893700  21.0894860  48.8464280  58.3029220
  20.1634640  49.0885420  58.2934630  21.5551290  49.6738540  58.1813970
  27.3151690  51.9521020  54.2513280  28.1080300  52.2409850  53.7995070
  26.7956040  51.5213190  53.5725760  36.3681860  51.1791150  55.6750020
  36.0823370  50.7656290  54.8604200  36.1701410  52.1078860  55.5550540
  27.8329090  47.1724430  54.1155630  27.7279730  46.5576780  54.8417010
  27.6653310  46.6490320  53.3318640  31.0731820  46.2344460  54.7197620
  30.5241920  46.6813760  55.3640360  31.6951080  45.7293710  55.2435290
  26.7406940  45.1935380  56.6162920  27.1623360  45.0275250  57.4594310
  26.8657780  44.3835610  56.1218060  29.2534580  44.2172990  53.8640020
  29.7740240  43.5022010  53.4981170  29.9002980  44.8558860  54.1640530
  28.1568100  36.6967540  66.5358580  27.7085400  36.7191800  65.6904130
  27.5233300  36.2986560  67.1328880  28.5627650  45.5921870  67.1571020
  28.9815760  46.4354600  66.9847260  27.6436280  45.7293910  66.9277800
  33.2379450  43.8775240  67.1171370  32.7114670  44.4017860  66.5136510
  33.5810790  44.5102630  67.7481100  25.6365840  41.2668610  53.5621080
  25.4354900  40.4035970  53.9234420  25.4657890  41.1801970  52.6242680
  33.1154150  36.0776840  56.0907960  33.3956440  35.2344740  56.4467380
  32.3419880  36.3099950  56.6046710  24.4348640  38.3669230  53.5498960
  24.7374540  38.3736660  52.6418110  25.1743230  38.0167090  54.0466620
  27.6533570  37.3103850  54.5355160  27.3055570  36.6327840  53.9557610
  27.8546340  36.8493360  55.3498550  29.8182610  52.2984600  56.1541760
  30.7133400  52.6369570  56.1760520  29.8500240  51.5764010  55.5266040
  23.4578770  47.6711650  54.3828760  23.8953640  48.2141320  55.0386340
  23.9426500  46.8458600  54.3925100  20.6724570  50.4600680  61.8349020
  21.0027580  49.5921740  61.6027660  21.1015570  50.6659200  62.6653980
  25.2686490  48.7909690  59.4950990  24.9682030  48.6674660  60.3954900
  25.1623980  47.9318280  59.0866720  21.1614780  51.3271270  64.5730650
  20.7245770  51.5072070  65.4054800  21.7292460  52.0845890  64.4312370
  38.0378410  48.5706090  54.1977670  37.2071370  48.6382740  54.6684900
  38.2150240  49.4610210  53.8944530  37.4934870  45.3153570  56.7011870
  38.2553780  45.8850220  56.8071560  37.5089240  44.7480770  57.4720180
  20.9939210  43.8391500  60.9319530  20.3388050  43.5703140  60.2879230
  21.8317160  43.7295980  60.4821510  38.4994840  46.1703670  61.5453800
  38.8703670  45.3870990  61.1389770  39.1396770  46.8592770  61.3671100
  35.4828600  47.5540250  66.9584120  34.6688440  47.9837410  67.2209910
  35.8902800  48.1658660  66.3453170  37.5454040  45.6087940  53.8584390
  37.8202880  46.5166820  53.7303610  37.3564780  45.5450470  54.7946380
  33.9429650  38.6332790  55.1538020  34.3614530  38.4463770  54.3134680
  33.6365710  37.7811840  55.4640950  37.4419380  43.5456930  58.8513820
  37.0662980  42.7784860  58.4195110  36.7122500  43.9279630  59.3388750
  22.0315140  44.2244070  65.4722870  22.3988180  44.1371470  66.3518890
  21.4625960  43.4610620  65.3729730  20.2077290  41.0490430  56.8744860
  19.3041370  41.3120630  56.6996520  20.6917910  41.3201600  56.0944820
  36.7170340  41.7714420  62.1521060  37.2407820  41.2777070  61.5211230
  37.3029760  41.9064780  62.8968630  36.8960060  41.8554290  65.6740610
  35.9462770  41.8217830  65.7885600  37.0773070  42.7654400  65.4390380
  22.7504500  40.1055970  54.7839240  23.4596200  39.6839190  54.2986520
  22.0344440  40.1731200  54.1522590  22.3978660  36.1595300  53.8241890
  23.1206790  36.7004240  54.1423110  22.6703180  35.8858720  52.9483430
  36.2070310  41.0287770  58.0913470  36.7029430  40.7958640  58.8762350
  36.0086380  40.1899610  57.6751110  22.0870850  35.4101490  63.7264510
  22.7347040  34.8598870  63.2859670  22.5072690  35.6644640  64.5480320
  37.6357470  39.6648720  60.6251150  37.5256750  39.5104760  61.5633420
  38.3965060  39.1369660  60.3826560  35.9823190  35.6042850  67.0834150
  36.6195410  36.2176990  67.4493340  36.1298080  35.6403510  66.1383380
  38.5247740  37.4956640  53.8657290  39.4497050  37.3637820  53.6575580
  38.5023530  37.5749460  54.8193740  38.5986230  38.2667300  56.4914000
  37.8037730  38.2012420  57.0206910  38.8029510  39.2017940  56.4799350
  35.5404650  52.3058850  60.4852390  36.1363720  51.9843420  59.8086810
  35.7982800  51.8330670  61.2765660  21.8402850  35.5657160  66.4689830
  21.4917670  36.0220980  67.2348010  21.5090550  34.6714290  66.5512260
  27.1473250  50.2936350  66.2352740  26.9064610  50.5610910  65.3483260
  28.0875890  50.4642080  66.2903600  38.4077410  52.3130730  67.0363380
  37.9135690  52.7099600  66.3190510  37.7990700  51.6879940  67.4300660
  32.7310270  34.9771240  65.9570830  31.8570110  35.3106350  65.7543760
  32.6221020  34.5044420  66.7822700  33.6382250  37.1842110  67.3412550
  33.3095610  36.3693870  66.9614280  34.5864550  37.1411920  67.2178240
  36.0916860  52.9554150  64.3150120  35.6319830  53.7069960  63.9408140
  35.4629320  52.2360620  64.2564920  22.9167480  49.0497390  66.7048840
  22.1901540  48.4302680  66.6374790  22.9776630  49.4438000  65.8346920
  26.5212580  51.2642390  63.4898250  27.0377600  50.6529750  62.9646510
  27.1709960  51.7671170  63.9809260  29.2608080  52.1550880  64.3167230
  29.5485890  51.9005180  63.4400240  29.7731300  51.6028240  64.9072800
  30.4785090  35.8941080  64.8963740  29.6956880  36.3686580  65.1760500
  30.1848020  34.9895910  64.7876920  35.0306160  36.5964180  62.9412830
  35.4714250  36.5409280  62.0934430  34.7613750  37.5122190  63.0123010
  36.8944730  36.2279420  60.9521650  36.8333130  35.2840640  60.8052670
  37.6736760  36.3359510  61.4975110  21.1997480  52.3671780  59.9145600
  21.0319520  51.7342460  60.6127490  20.3331990  52.5731180  59.5639790
  21.8225500  36.1988560  57.4177460  22.5804860  36.3117440  56.8441490
  21.3602670  37.0357760  57.3720890  28.3639310  38.3127830  60.4079770
  27.5513820  37.9384720  60.0675650  28.8680950  37.5572910  60.7100960
  32.8664290  34.9770280  61.6462840  33.4693660  35.5490490  62.1211360
  32.1257280  35.5409720  61.4236740  36.0098890  35.3791840  56.9203120
  36.2049520  36.2775290  57.1870550  35.2228760  35.1478920  57.4136070
  22.8060180  51.0605010  57.3595740  22.2807800  51.4413040  56.6557700
  22.7304760  51.6855780  58.0805450  24.1950650  36.7252610  55.9579430
  24.7243410  35.9382410  55.8287380  24.8278970  37.4043800  56.1914960
  26.3888490  36.4627750  59.0124820  25.7591230  35.7615060  59.1794950
  25.8493630  37.2231880  58.7957980  37.5625500  52.6192550  58.6809680
  37.7377690  51.9330290  58.0370600  36.8647070  53.1439600  58.2886350
  25.4053150  53.0087390  56.2344990  26.1371970  52.7246670  55.6868880
  25.6646820  52.7700670  57.1244370  24.5667940  49.1252120  56.2391320
  23.9376820  49.5937220  56.7877150  24.6815770  48.2801340  56.6737510
  30.1535700  44.9536800  44.2701790  29.3777800  44.4737240  44.5600360
  30.8048630  44.2742450  44.0957950  24.1701530  45.2656610  45.1477550
  23.3386410  45.0105320  45.5474060  24.7782510  45.3367380  45.8835470
  34.1743130  49.3596990  43.0500920  33.7124660  48.5884230  43.3788090
  34.9868680  49.3863060  43.5553370  24.1502790  49.2996700  45.3435570
  24.4530830  48.4094440  45.1645790  24.8946380  49.8566920  45.1157820
  20.5426490  42.8264150  44.8159640  21.1142600  42.0586350  44.8163280
  20.5428030  43.1252910  43.9066250  30.4006440  51.6455000  42.6704910
  29.7817880  52.1012500  42.0999350  31.2558220  51.8006460  42.2694610
  29.5944690  47.6293990  44.2771950  29.5252970  46.6883930  44.1161080
  30.3564550  47.7195400  44.8494520  21.7851360  38.2348510  46.6028570
  21.6054200  37.3374260  46.8831330  21.3831440  38.7820380  47.2775520
  22.4038030  40.7309010  45.2110910  23.0848140  40.9947380  45.8298310
  22.0886080  39.8909880  45.5448920  26.5962600  41.7776370  44.2983500
  27.1040820  42.2757340  44.9388520  27.1275840  41.0011570  44.1222860
  38.6973530  39.9481560  48.0012850  37.9925700  40.3363270  47.4827960
  38.9631450  40.6431850  48.6033780  24.8798700  36.4174930  48.5646920
  24.8817140  36.9347320  47.7592820  24.0503010  35.9405110  48.5416850
  26.1301550  46.0570110  46.7420420  25.7970930  46.6839030  47.3841490
  26.3068230  46.5831990  45.9622090  24.5614030  38.1284890  46.5717370
  24.9030840  38.9726940  46.2771240  23.6229840  38.2768630  46.6882710
  25.3420650  48.0250910  48.5569600  25.9594650  48.7001990  48.2754050
  24.4813770  48.4338890  48.4657100  20.6352990  47.2150770  37.4376450
  20.2580970  47.7037870  36.7061350  20.8926060  47.8876050  38.0682980
  36.2598240  49.4890320  46.4724240  35.5761760  50.1589430  46.4640910
  36.7992530  49.6870970  45.7069100  33.7956980  51.3334450  45.1869420
  33.8084140  50.9296740  44.3191680  33.2432200  52.1081740  45.0830850
  35.0902400  48.0550670  40.2759590  34.9798730  47.1125000  40.4009010
  35.0870650  48.4166310  41.1622350  33.1942420  46.2364290  46.5152030
  33.6111210  46.0224400  45.6805490  33.9182240  46.4937080  47.0860650
  37.1404520  44.6351510  46.6068270  36.3123150  44.7044600  46.1318400
  37.7355000  45.2205820  46.1384100  34.1046530  41.4220830  47.5523140
  33.6917710  42.2474540  47.8063130  33.3722480  40.8365870  47.3599500
  26.7061020  47.8948290  44.5781020  26.4089310  47.2893760  43.8988800
  27.6560840  47.9325600  44.4670380  24.9507940  40.9823940  46.1940850
  25.5022530  41.0919280  45.4194100  25.4651450  41.3561540  46.9096080
  34.7946630  51.4680160  48.2404120  34.3177190  52.2752350  48.0476730
  34.1108420  50.8158490  48.3930330  25.7979450  47.6329980  51.2288820
  24.9007980  47.8569950  51.4762220  25.8232320  47.7564920  50.2800220
  24.6250670  44.5043300  49.8046190  24.4858440  45.3766100  50.1733590
  23.7432030  44.1616110  49.6594130  30.9480050  49.4219170  41.1111320
  31.3875960  50.1643500  40.6966710  30.8866940  49.6645740  42.0350280
  26.4231020  50.4465000  52.0131340  26.3946450  50.8507950  51.1459770
  26.2595990  49.5175360  51.8502940  38.3745840  51.2292100  53.3095510
  38.8505560  51.7074990  53.9884590  38.9953000  51.1609590  52.5841010
  20.5769320  46.2740850  45.7217100  20.6549740  46.4089620  44.7772820
  21.1911000  45.5656740  45.9145220  21.8216950  47.9741040  42.1323280
  21.4145030  48.1155630  41.2776880  22.7129960  47.6901200  41.9294490
  37.7779090  48.4204950  50.4695520  37.9042150  48.1816830  49.5512700
  37.8200470  47.5889490  50.9417600  31.6395830  52.1232950  49.0390330
  32.1540500  52.0340960  49.8412760  30.7964910  52.4692650  49.3318240
  33.6150230  52.4088290  38.4674330  33.4551370  52.1191230  39.3656160
  33.4496940  51.6328420  37.9319560  26.0938610  52.1886820  40.2445950
  25.9181090  51.2722360  40.0313750  25.2394350  52.5474110  40.4843750
  33.3176360  49.9175850  37.0272330  32.6241520  49.9153140  36.3674610
  34.0599220  49.4935170  36.5966500  32.8826290  51.5438560  41.1020820
  33.3383240  50.7627940  41.4159440  33.2218810  52.2545380  41.6462000
  37.6303100  40.4737410  51.4345260  37.0147370  40.9817080  50.9060720
  37.3099520  39.5735740  51.3771200  20.6328840  47.3155020  48.2611560
  20.7959880  46.8460380  47.4430930  21.0981290  46.8078580  48.9260400
  25.4047610  36.4460780  43.2972130  24.9615760  37.2270320  42.9656650
  25.9632600  36.7690670  44.0043070  29.6917420  39.3129300  48.9007450
  29.2296790  39.5212320  49.7127390  29.2895530  38.4988650  48.5978120
  34.6921930  40.5338250  50.0304110  33.8415520  40.2344000  50.3513180
  34.5323720  40.7780260  49.1187930  31.7871640  42.0340000  52.1302900
  32.1125050  41.2003750  51.7905130  32.5751970  42.5568520  52.2781230
  27.4423510  36.9908110  45.1561730  27.7395840  37.8970940  45.0753750
  27.9909070  36.5026890  44.5421300  27.6361040  42.4679930  51.6913650
  27.5404640  41.5274660  51.5414050  28.4793020  42.6895000  51.2961720
  22.7671580  38.8793600  49.8447430  22.3734970  39.7268810  50.0520210
  22.0789980  38.2419970  50.0356070  29.3416630  38.9628570  52.9144170
  28.6514950  38.7700770  53.5490260  30.0848930  39.2463210  53.4468470
  20.0688630  36.8022060  43.8777510  19.7801680  37.3724920  44.5902490
  20.8134390  36.3226510  44.2408740  20.2558860  40.7442180  35.0880230
  20.1733530  41.6872940  35.2295220  19.9041920  40.6017090  34.2092580
  31.6179600  42.8027010  45.7498090  30.8860720  43.3113820  46.0988190
  31.2203940  41.9856990  45.4486870  35.5076260  35.6692870  51.0007410
  35.8322030  34.9382530  51.5265390  35.5432770  35.3506510  50.0988400
  22.2067820  46.6906450  50.4207370  21.8222610  46.0500120  51.0190330
  22.5180010  47.3942570  50.9902100  28.3564960  43.5382990  45.9015990
  28.7235090  43.0641560  46.6477330  28.1670020  44.4124560  46.2424330
  26.1464330  42.5791630  48.2200200  25.8421400  43.4583610  48.4450560
  27.1010790  42.6391420  48.2557640  24.6746120  46.7852620  38.8167050
  23.9008380  46.2450240  38.6565770  25.4040750  46.2659230  38.4784810
  35.4334100  45.7817980  44.6093440  36.1533220  46.2773270  44.2189550
  35.2315920  45.1035870  43.9647310  30.8152900  45.8527040  50.4962440
  30.7490210  44.9322710  50.2420030  30.1858040  45.9502480  51.2107080
  24.7183520  46.4533000  42.4545860  25.2362190  45.6501260  42.4002750
  24.2667540  46.3912140  43.2962690  22.2028060  43.4194370  49.3671560
  21.8443000  44.0848220  49.9544900  21.9082620  42.5877920  49.7384180
  25.4041180  43.8778610  52.2511110  25.1041320  44.0235790  51.3538930
  26.1752420  43.3183900  52.1584500  30.7469630  48.6747610  50.2466240
  30.7614170  47.7428570  50.0285150  30.0394730  48.7607370  50.8856010
  36.9580840  45.3154950  49.5934820  36.2329030  45.9083730  49.3964210
  37.4856300  45.3078490  48.7948190  36.9093950  49.7129690  39.2446980
  36.2670110  49.0585310  39.5190700  36.5224610  50.1184780  38.4687650
  32.4880430  47.0415120  43.0918670  32.8404250  46.4443250  42.4320040
  31.6042760  46.7159350  43.2626920  20.7136110  43.4185630  35.9906160
  21.5830960  43.7010430  36.2742080  20.2226430  44.2321500  35.8754970
  30.1803530  50.3165180  47.3406740  30.8245750  50.5224560  48.0180160
  30.5432970  49.5553580  46.8877590  23.7782700  35.1496490  40.5836960
  23.6497330  35.1414390  41.5321880  22.9544720  35.4879580  40.2327970
  31.4535610  48.3197530  46.0584190  32.0957840  47.6190690  46.1716360
  31.9784960  49.0995970  45.8781080  35.2991330  48.6046150  35.7823330
  35.0728910  47.8876590  36.3747970  34.9087530  48.3558590  34.9445080
  33.2273230  49.1192430  49.2620250  33.5629470  49.7059120  49.9398170
  32.3073570  48.9885140  49.4918040  21.0807360  52.6313010  36.5567790
  21.4405000  53.2302350  35.9025060  20.9399700  53.1772900  37.3302820
  20.7776630  36.9087610  50.0443660  20.0635150  37.1084530  50.6496270
  21.1971670  36.1327180  50.4158460  21.0649220  50.8967870  51.0310190
  21.1740340  49.9562610  50.8905580  20.4129780  51.1622620  50.3823920
  29.0561810  49.1683760  52.4308310  28.7358680  48.4493000  52.9754000
  28.3820170  49.8438830  52.5044370  27.0975980  50.0144210  37.3741460
  27.0886080  50.7473900  36.7585970  26.1774340  49.7675790  37.4668420
  22.6982620  45.2359100  38.1188220  22.0910570  45.9758000  38.1283520
  23.1731970  45.3258460  37.2926420  32.2715410  39.4009920  47.7945110
  32.6396230  38.5805130  48.1224680  31.4113610  39.4611810  48.2100760
  30.0835580  50.0772450  36.0366650  30.1847560  49.8736440  35.1068630
  29.1837320  49.8230730  36.2414430  29.2317400  42.0549510  48.0183080
  29.7302650  42.5295330  48.6834930  29.3740350  41.1313030  48.2253110
  28.7253690  52.5958770  40.7314320  28.9795190  52.5580160  39.8093690
  27.7766170  52.4692100  40.7242570  36.4384260  38.2717470  48.8611470
  35.9357860  39.0122870  49.2005280  37.2540920  38.6601470  48.5448260
  36.7331850  50.6859500  43.9827090  36.8579270  51.5090670  44.4550900
  37.5997410  50.4750230  43.6351240  24.2049380  52.7790710  43.6544220
  24.9411860  52.2306170  43.9252790  24.5890300  53.6446720  43.5150210
  21.0894860  48.8464280  39.5285730  20.1634640  49.0885420  39.5191140
  21.5551290  49.6738540  39.4070480  23.2107660  51.9636780  52.8429800
  24.0120390  52.2848830  53.2565200  22.6959480  51.6032360  53.5649710
  27.3151690  51.9521020  35.4769790  28.1080300  52.2409850  35.0251580
  26.7956040  51.5213190  34.7982270  32.0472290  48.0716650  52.7905210
  31.4410450  48.0948250  52.0500960  31.7426400  47.3399690  53.3272460
  33.4772660  51.7996940  51.4014620  34.4294410  51.7154960  51.3514860
  33.3300880  52.4638650  52.0748410  36.3681860  51.1791150  36.9006530
  36.0823370  50.7656290  36.0860710  36.1701410  52.1078860  36.7807050
  20.9305470  44.4510240  51.7865850  21.4344490  43.8717520  52.3582080
  20.1912890  44.7350470  52.3242220  27.9843410  45.8581230  51.3201370
  27.2189080  46.4266230  51.2356040  28.1659370  45.5657440  50.4269600
  35.1266760  47.5886560  51.8776390  35.8676230  47.9262320  51.3743850
  34.3639440  47.7578620  51.3246160  22.9628550  42.5939830  52.6815920
  23.0033890  42.2953700  53.5901150  23.8174050  42.9947440  52.5223440
  24.9034360  41.1731930  50.6490410  24.3730820  40.6822880  50.0213750
  25.5722430  41.6016130  50.1148340  33.8012420  45.6401390  50.4131600
  34.2153440  45.7946470  51.2622020  32.8663420  45.7656610  50.5757380
  34.2734590  42.9797550  52.4170750  34.8555360  42.2249870  52.3291230
  34.4496360  43.5104990  51.6402230  25.3906660  38.1394300  50.7287700
  25.2963530  37.5215050  50.0038570  24.8104050  38.8660590  50.5017610
  28.1568100  36.6967540  47.7615090  27.7085400  36.7191800  46.9160640
  27.5233300  36.2986560  48.3585390  28.5627650  45.5921870  48.3827530
  28.9815760  46.4354600  48.2103770  27.6436280  45.7293910  48.1534310
  30.8991550  43.3238050  49.7665370  31.0187760  42.7279190  50.5060210
  31.7585550  43.3607740  49.3466670  33.2379450  43.8775240  48.3427880
  32.7114670  44.4017860  47.7393020  33.5810790  44.5102630  48.9737610
  26.4135070  51.8974880  49.4985260  25.8756160  52.6220940  49.1793960
  26.6669030  51.4205220  48.7082600  27.6660320  39.8659400  51.0241190
  28.2560010  39.5575250  51.7119010  26.8480560  39.3939150  51.1801090
  32.4853750  39.4825210  51.2574210  31.7969270  38.8206750  51.1924200
  33.2059770  39.0363480  51.7022670  29.2697280  53.1326090  49.7571910
  29.1955980  54.0361230  50.0644280  28.3676120  52.8137990  49.7293980
  29.8182610  52.2984600  37.3798270  30.7133400  52.6369570  37.4017030
  29.8500240  51.5764010  36.7522550  23.4578770  47.6711650  35.6085270
  23.8953640  48.2141320  36.2642850  23.9426500  46.8458600  35.6181610
  20.6724570  50.4600680  43.0605530  21.0027580  49.5921740  42.8284170
  21.1015570  50.6659200  43.8910490  25.2686490  48.7909690  40.7207500
  24.9682030  48.6674660  41.6211410  25.1623980  47.9318280  40.3123230
  21.1614780  51.3271270  45.7987160  20.7245770  51.5072070  46.6311310
  21.7292460  52.0845890  45.6568880  36.7976960  50.8288270  50.0864470
  36.1978950  50.8880830  49.3428390  36.9270860  49.8893250  50.2161320
  38.0378410  48.5706090  35.4234180  37.2071370  48.6382740  35.8941410
  38.2150240  49.4610210  35.1201040  35.4828600  47.5540250  48.1840630
  34.6688440  47.9837410  48.4466420  35.8902800  48.1658660  47.5709680
  22.0315140  44.2244070  46.6979380  22.3988180  44.1371470  47.5775400
  21.4625960  43.4610620  46.5986240  36.8319000  42.6928450  49.7109850
  36.6005090  42.4641200  48.8107800  37.0923550  43.6128000  49.6654740
  21.5831140  41.1353160  50.6037800  20.6887190  41.1019920  50.9431510
  22.1228690  41.3339950  51.3689050  35.2707070  37.9184880  52.4889550
  36.1477250  37.9268280  52.8723550  35.2827910  37.1815720  51.8781900
  20.2077290  41.0490430  38.1001370  19.3041370  41.3120630  37.9253030
  20.6917910  41.3201600  37.3201330  36.8960060  41.8554290  46.8997120
  35.9462770  41.8217830  47.0142110  37.0773070  42.7654400  46.6646890
  22.3978660  36.1595300  35.0498400  23.1206790  36.7004240  35.3679620
  22.6703180  35.8858720  34.1739940  22.0870850  35.4101490  44.9521020
  22.7347040  34.8598870  44.5116180  22.5072690  35.6644640  45.7736830
  35.9823190  35.6042850  48.3090660  36.6195410  36.2176990  48.6749850
  36.1298080  35.6403510  47.3639890  35.5404650  52.3058850  41.7108900
  36.1363720  51.9843420  41.0343320  35.7982800  51.8330670  42.5022170
  21.8402850  35.5657160  47.6946340  21.4917670  36.0220980  48.4604520
  21.5090550  34.6714290  47.7768770  23.4467220  48.7376760  51.8599530
  23.4036850  48.3669670  52.7413990  23.5778230  49.6754330  52.0001350
  27.1473250  50.2936350  47.4609250  26.9064610  50.5610910  46.5739770
  28.0875890  50.4642080  47.5160110  29.3527670  36.7569040  51.2165760
  29.2916560  37.3490870  51.9661170  30.2928050  36.6495000  51.0716020
  31.9902230  36.4139100  50.8558050  32.6042640  36.7318390  50.1939130
  32.5351790  35.9287690  51.4753910  38.4077410  52.3130730  48.2619890
  37.9135690  52.7099600  47.5447020  37.7990700  51.6879940  48.6557170
  22.5123490  35.0933360  50.9697110  23.0606480  34.9121410  50.2063220
  22.5778800  34.3027470  51.5053420  23.2855250  51.6839010  48.9797310
  22.6915570  51.5523710  49.7187350  23.2779090  50.8477150  48.5139410
  32.7310270  34.9771240  47.1827340  31.8570110  35.3106350  46.9800270
  32.6221020  34.5044420  48.0079210  33.6382250  37.1842110  48.5669060
  33.3095610  36.3693870  48.1870790  34.5864550  37.1411920  48.4434750
  36.0916860  52.9554150  45.5406630  35.6319830  53.7069960  45.1664650
  35.4629320  52.2360620  45.4821430  22.9167480  49.0497390  47.9305350
  22.1901540  48.4302680  47.8631300  22.9776630  49.4438000  47.0603430
  26.5212580  51.2642390  44.7154760  27.0377600  50.6529750  44.1903020
  27.1709960  51.7671170  45.2065770  29.2608080  52.1550880  45.5423740
  29.5485890  51.9005180  44.6656750  29.7731300  51.6028240  46.1329310
  30.4785090  35.8941080  46.1220250  29.6956880  36.3686580  46.4017010
  30.1848020  34.9895910  46.0133430  21.1997480  52.3671780  41.1402110
  21.0319520  51.7342460  41.8384000  20.3331990  52.5731180  40.7896300
  22.8060180  51.0605010  38.5852250  22.2807800  51.4413040  37.8814210
  22.7304760  51.6855780  39.3061960  29.3280440  53.0766980  52.9091940
  30.2547750  52.8411250  52.9527900  29.3130870  53.9038980  52.4277970
  37.5625500  52.6192550  39.9066190  37.7377690  51.9330290  39.2627110
  36.8647070  53.1439600  39.5142860  26.5144050  35.7411730  52.6733820
  26.2328320  36.2445330  51.9094640  26.8963750  34.9433480  52.3075950
  25.4053150  53.0087390  37.4601500  26.1371970  52.7246670  36.9125390
  25.6646820  52.7700670  38.3500880  24.5667940  49.1252120  37.4647830
  23.9376820  49.5937220  38.0133660  24.6815770  48.2801340  37.8994020
  33.1159510  35.1565310  53.2514290  33.0024960  35.4759920  54.1465810
  33.9329250  35.5577820  52.9551570  35.8958000  52.3036840  52.7332980
  36.6883320  51.8086070  52.5258940  36.1891150  52.9826980  53.3408590
  32.0217660  43.1757780  23.6149030  31.9411710  42.2612390  23.3440740
  31.6082080  43.6724850  22.9088740  30.1535700  44.9536800  25.4958300
  29.3777800  44.4737240  25.7856870  30.8048630  44.2742450  25.3214460
  24.1701530  45.2656610  26.3734060  23.3386410  45.0105320  26.7730570
  24.7782510  45.3367380  27.1091980  34.1743130  49.3596990  24.2757430
  33.7124660  48.5884230  24.6044600  34.9868680  49.3863060  24.7809880
  24.1502790  49.2996700  26.5692080  24.4530830  48.4094440  26.3902300
  24.8946380  49.8566920  26.3414330  22.5793480  40.2258500  20.1576450
  21.6910180  40.5674470  20.0556330  22.8634670  40.0258820  19.2657280
  20.5426490  42.8264150  26.0416150  21.1142600  42.0586350  26.0419790
  20.5428030  43.1252910  25.1322760  30.4006440  51.6455000  23.8961420
  29.7817880  52.1012500  23.3255860  31.2558220  51.8006460  23.4951120
  29.5944690  47.6293990  25.5028460  29.5252970  46.6883930  25.3417590
  30.3564550  47.7195400  26.0751030  21.7851360  38.2348510  27.8285080
  21.6054200  37.3374260  28.1087840  21.3831440  38.7820380  28.5032030
  24.7554870  38.8090000  21.1914830  24.8621620  39.7093730  21.4983590
  23.8447230  38.7607970  20.9009480  34.4073980  37.9314810  22.6625730
  35.2283600  37.4411380  22.7051210  34.4408060  38.5212470  23.4157570
  22.4038030  40.7309010  26.4367420  23.0848140  40.9947380  27.0554820
  22.0886080  39.8909880  26.7705430  26.5962600  41.7776370  25.5240010
  27.1040820  42.2757340  26.1645030  27.1275840  41.0011570  25.3479370
  31.2669790  46.5294240  21.2893330  30.6487060  46.9943690  20.7256050
  31.7793040  47.2221720  21.7062840  26.1301550  46.0570110  27.9676930
  25.7970930  46.6839030  28.6098000  26.3068230  46.5831990  27.1878600
  25.3420650  48.0250910  29.7826110  25.9594650  48.7001990  29.5010560
  24.4813770  48.4338890  29.6913610  20.6352990  47.2150770  18.6632960
  20.2580970  47.7037870  17.9317860  20.8926060  47.8876050  19.2939490
  36.2598240  49.4890320  27.6980750  35.5761760  50.1589430  27.6897420
  36.7992530  49.6870970  26.9325610  33.7956980  51.3334450  26.4125930
  33.8084140  50.9296740  25.5448190  33.2432200  52.1081740  26.3087360
  35.0902400  48.0550670  21.5016100  34.9798730  47.1125000  21.6265520
  35.0870650  48.4166310  22.3878860  33.1942420  46.2364290  27.7408540
  33.6111210  46.0224400  26.9062000  33.9182240  46.4937080  28.3117160
  30.6322680  43.6815990  20.8578590  29.7051960  43.6153370  21.0867060
  30.7847500  44.6196120  20.7433830  30.6191760  39.9532990  17.8545750
  29.6795430  40.1146950  17.9398210  30.9375020  40.6718670  17.3081740
  37.1404520  44.6351510  27.8324780  36.3123150  44.7044600  27.3574910
  37.7355000  45.2205820  27.3640610  34.6619970  45.2436290  21.3613840
  34.0432390  44.9055840  20.7140140  34.6444420  44.5996050  22.0693030
  26.2379320  44.2080730  23.6398320  25.8336320  43.4957980  23.1444220
  26.3242440  43.8633970  24.5286360  26.7061020  47.8948290  25.8037530
  26.4089310  47.2893760  25.1245310  27.6560840  47.9325600  25.6926890
  34.7946630  51.4680160  29.4660630  34.3177190  52.2752350  29.2733240
  34.1108420  50.8158490  29.6186840  25.7979450  47.6329980  32.4545330
  24.9007980  47.8569950  32.7018730  25.8232320  47.7564920  31.5056730
  32.8384670  44.4823100  18.3686590  33.2777950  43.6445530  18.2224410
  33.5513090  45.1152500  18.4550730  24.6250670  44.5043300  31.0302700
  24.4858440  45.3766100  31.3990100  23.7432030  44.1616110  30.8850640
  30.9480050  49.4219170  22.3367830  31.3875960  50.1643500  21.9223220
  30.8866940  49.6645740  23.2606790  26.4231020  50.4465000  33.2387850
  26.3946450  50.8507950  32.3716280  26.2595990  49.5175360  33.0759450
  36.4201810  35.7365910  16.6827630  36.1074470  35.8292740  17.5826700
  37.1814280  36.3146940  16.6325060  22.9383950  43.1025710  21.1404970
  22.8181550  43.8287800  20.5286240  22.6284840  42.3328620  20.6632880
  38.3745840  51.2292100  34.5352020  38.8505560  51.7074990  35.2141100
  38.9953000  51.1609590  33.8097520  20.5769320  46.2740850  26.9473610
  20.6549740  46.4089620  26.0029330  21.1911000  45.5656740  27.1401730
  21.8216950  47.9741040  23.3579790  21.4145030  48.1155630  22.5033390
  22.7129960  47.6901200  23.1551000  37.7779090  48.4204950  31.6952030
  37.9042150  48.1816830  30.7769210  37.8200470  47.5889490  32.1674110
  31.6395830  52.1232950  30.2646840  32.1540500  52.0340960  31.0669270
  30.7964910  52.4692650  30.5574750  33.6150230  52.4088290  19.6930840
  33.4551370  52.1191230  20.5912670  33.4496940  51.6328420  19.1576070
  26.0938610  52.1886820  21.4702460  25.9181090  51.2722360  21.2570260
  25.2394350  52.5474110  21.7100260  33.3176360  49.9175850  18.2528840
  32.6241520  49.9153140  17.5931120  34.0599220  49.4935170  17.8223010
  32.8826290  51.5438560  22.3277330  33.3383240  50.7627940  22.6415950
  33.2218810  52.2545380  22.8718510  20.6328840  47.3155020  29.4868070
  20.7959880  46.8460380  28.6687440  21.0981290  46.8078580  30.1516910
  25.4047610  36.4460780  24.5228640  24.9615760  37.2270320  24.1913160
  25.9632600  36.7690670  25.2299580  28.5206430  36.0671480  19.4034470
  27.8960610  36.0631350  20.1287780  28.4336550  35.2002440  19.0070440
  25.1961830  41.5694350  22.2509890  24.9702750  41.3531520  23.1556510
  24.4154360  42.0022810  21.9055860  32.4259590  41.5757720  20.8500540
  31.8268480  42.2993520  20.6664160  32.9739200  41.5134500  20.0676990
  31.0324460  40.2121260  22.8803820  31.4254030  40.5293460  22.0672510
  31.3941310  39.3333140  22.9948340  20.0688630  36.8022060  25.1034020
  19.7801680  37.3724920  25.8159000  20.8134390  36.3226510  25.4665250
  20.2558860  40.7442180  16.3136740  20.1733530  41.6872940  16.4551730
  19.9041920  40.6017090  15.4349090  28.0556990  39.4781210  25.3807090
  28.0593050  39.0371160  24.5311630  28.9508110  39.7998540  25.4878910
  23.9059370  39.3607700  24.3401300  23.5659420  39.8382930  25.0968350
  23.1436690  38.9072820  23.9802400  28.1177140  40.4793290  18.3713850
  28.2389960  40.4379770  19.3199670  27.7325650  41.3417440  18.2160580
  27.1298640  42.7894430  17.7697150  26.5615540  42.3412680  17.1433060
  27.8387640  43.1487210  17.2362300  22.2067820  46.6906450  31.6463880
  21.8222610  46.0500120  32.2446840  22.5180010  47.3942570  32.2158610
  28.3564960  43.5382990  27.1272500  28.7235090  43.0641560  27.8733840
  28.1670020  44.4124560  27.4680840  21.2205450  38.2826680  23.2565970
  20.9352370  37.9182350  24.0944590  21.1584310  37.5507140  22.6429110
  24.6746120  46.7852620  20.0423560  23.9008380  46.2450240  19.8822280
  25.4040750  46.2659230  19.7041320  35.4334100  45.7817980  25.8349950
  36.1533220  46.2773270  25.4446060  35.2315920  45.1035870  25.1903820
  30.8944040  37.1755940  19.9779340  30.0808650  36.6769110  19.9024650
  30.7005990  38.0154190  19.5615690  30.8152900  45.8527040  31.7218950
  30.7490210  44.9322710  31.4676540  30.1858040  45.9502480  32.4363590
  33.6092430  41.5475590  18.2741500  34.4972050  41.8592820  18.0992840
  33.5797520  40.6747840  17.8822080  24.7183520  46.4533000  23.6802370
  25.2362190  45.6501260  23.6259260  24.2667540  46.3912140  24.5219200
  29.6053020  47.7199280  18.9529670  29.9468720  48.4641510  18.4572990
  28.7765730  48.0330400  19.3154500  22.2028060  43.4194370  30.5928070
  21.8443000  44.0848220  31.1801410  21.9082620  42.5877920  30.9640690
  25.4041180  43.8778610  33.4767620  25.1041320  44.0235790  32.5795440
  26.1752420  43.3183900  33.3841010  30.7469630  48.6747610  31.4722750
  30.7614170  47.7428570  31.2541660  30.0394730  48.7607370  32.1112520
  35.8806700  42.8587430  17.7421360  35.7970420  43.2901650  16.8917800
  36.6000890  43.3185780  18.1748180  36.9580840  45.3154950  30.8191330
  36.2329030  45.9083730  30.6220720  37.4856300  45.3078490  30.0204700
  36.9093950  49.7129690  20.4703490  36.2670110  49.0585310  20.7447210
  36.5224610  50.1184780  19.6944160  32.4880430  47.0415120  24.3175180
  32.8404250  46.4443250  23.6576550  31.6042760  46.7159350  24.4883430
  28.5743710  47.8012810  21.7245590  29.2614840  48.3482020  22.1053180
  27.7876130  48.3453540  21.7595200  20.7136110  43.4185630  17.2162670
  21.5830960  43.7010430  17.4998590  20.2226430  44.2321500  17.1011480
  27.8770920  44.8058840  21.3370950  28.3333700  45.6164090  21.5631140
  27.5259130  44.4881980  22.1689440  30.1803530  50.3165180  28.5663250
  30.8245750  50.5224560  29.2436670  30.5432970  49.5553580  28.1134100
  23.7782700  35.1496490  21.8093470  23.6497330  35.1414390  22.7578390
  22.9544720  35.4879580  21.4584480  31.4535610  48.3197530  27.2840700
  32.0957840  47.6190690  27.3972870  31.9784960  49.0995970  27.1037590
  35.2991330  48.6046150  17.0079840  35.0728910  47.8876590  17.6004480
  34.9087530  48.3558590  16.1701590  33.2273230  49.1192430  30.4876760
  33.5629470  49.7059120  31.1654680  32.3073570  48.9885140  30.7174550
  21.0807360  52.6313010  17.7824300  21.4405000  53.2302350  17.1281570
  20.9399700  53.1772900  18.5559330  20.7776630  36.9087610  31.2700170
  20.0635150  37.1084530  31.8752780  21.1971670  36.1327180  31.6414970
  34.8807580  46.5218090  18.6694000  34.5929280  46.9830780  19.4571880
  35.6759750  46.0615860  18.9378220  21.0649220  50.8967870  32.2566700
  21.1740340  49.9562610  32.1162090  20.4129780  51.1622620  31.6080430
  29.0561810  49.1683760  33.6564820  28.7358680  48.4493000  34.2010510
  28.3820170  49.8438830  33.7300880  27.0975980  50.0144210  18.5997970
  27.0886080  50.7473900  17.9842480  26.1774340  49.7675790  18.6924930
  22.6982620  45.2359100  19.3444730  22.0910570  45.9758000  19.3540030
  23.1731970  45.3258460  18.5182930  35.6377440  38.3566860  19.8289180
  35.0090600  38.4612530  19.1147410  35.1429360  38.5763640  20.6183060
  30.0835580  50.0772450  17.2623160  30.1847560  49.8736440  16.3325140
  29.1837320  49.8230730  17.4670940  27.6061470  40.6352810  21.2447060
  26.8977620  41.1039150  21.6860670  27.8905950  39.9774820  21.8792250
  31.6376900  37.3603470  22.6842850  31.5144680  37.3789600  21.7352360
  32.5861460  37.4082410  22.8041250  28.7253690  52.5958770  21.9570830
  28.9795190  52.5580160  21.0350200  27.7766170  52.4692100  21.9499080
  25.8096490  38.9437890  18.6197770  26.6587020  39.3808040  18.5537960
  25.4427760  39.2558150  19.4469830  34.7306270  43.5150650  23.5329340
  33.7896410  43.5300880  23.7077030  35.0450340  42.7286610  23.9789640
  24.7087910  45.1970250  17.0933300  25.4751180  45.0851610  17.6558730
  24.7862600  44.5008220  16.4410070  23.4034670  42.6295320  17.7766190
  23.4838260  41.6822830  17.8883590  24.2954420  42.9602200  17.8826850
  36.7331850  50.6859500  25.2083600  36.8579270  51.5090670  25.6807410
  37.5997410  50.4750230  24.8607750  24.2049380  52.7790710  24.8800730
  24.9411860  52.2306170  25.1509300  24.5890300  53.6446720  24.7406720
  21.0894860  48.8464280  20.7542240  20.1634640  49.0885420  20.7447650
  21.5551290  49.6738540  20.6326990  23.2107660  51.9636780  34.0686310
  24.0120390  52.2848830  34.4821710  22.6959480  51.6032360  34.7906220
  27.3151690  51.9521020  16.7026300  28.1080300  52.2409850  16.2508090
  26.7956040  51.5213190  16.0238780  32.0472290  48.0716650  34.0161720
  31.4410450  48.0948250  33.2757470  31.7426400  47.3399690  34.5528970
  33.4772660  51.7996940  32.6271130  34.4294410  51.7154960  32.5771370
  33.3300880  52.4638650  33.3004920  36.3681860  51.1791150  18.1263040
  36.0823370  50.7656290  17.3117220  36.1701410  52.1078860  18.0063560
  20.9305470  44.4510240  33.0122360  21.4344490  43.8717520  33.5838590
  20.1912890  44.7350470  33.5498730  27.8329090  47.1724430  16.5668650
  27.7279730  46.5576780  17.2930030  27.6653310  46.6490320  15.7831660
  31.0731820  46.2344460  17.1710640  30.5241920  46.6813760  17.8153380
  31.6951080  45.7293710  17.6948310  35.1266760  47.5886560  33.1032900
  35.8676230  47.9262320  32.6000360  34.3639440  47.7578620  32.5502670
  22.9628550  42.5939830  33.9072430  23.0033890  42.2953700  34.8157660
  23.8174050  42.9947440  33.7479950  26.7406940  45.1935380  19.0675940
  27.1623360  45.0275250  19.9107330  26.8657780  44.3835610  18.5731080
  29.2534580  44.2172990  16.3153040  29.7740240  43.5022010  15.9494190
  29.9002980  44.8558860  16.6153550  33.8012420  45.6401390  31.6388110
  34.2153440  45.7946470  32.4878530  32.8663420  45.7656610  31.8013890
  28.5627650  45.5921870  29.6084040  28.9815760  46.4354600  29.4360280
  27.6436280  45.7293910  29.3790820  33.2379450  43.8775240  29.5684390
  32.7114670  44.4017860  28.9649530  33.5810790  44.5102630  30.1994120
  25.6365840  41.2668610  16.0134100  25.4354900  40.4035970  16.3747440
  25.4657890  41.1801970  15.0755700  26.4135070  51.8974880  30.7241770
  25.8756160  52.6220940  30.4050470  26.6669030  51.4205220  29.9339110
  33.1154150  36.0776840  18.5420980  33.3956440  35.2344740  18.8980400
  32.3419880  36.3099950  19.0559730  24.4348640  38.3669230  16.0011980
  24.7374540  38.3736660  15.0931130  25.1743230  38.0167090  16.4979640
  29.2697280  53.1326090  30.9828420  29.1955980  54.0361230  31.2900790
  28.3676120  52.8137990  30.9550490  27.6533570  37.3103850  16.9868180
  27.3055570  36.6327840  16.4070630  27.8546340  36.8493360  17.8011570
  29.8182610  52.2984600  18.6054780  30.7133400  52.6369570  18.6273540
  29.8500240  51.5764010  17.9779060  23.4578770  47.6711650  16.8341780
  23.8953640  48.2141320  17.4899360  23.9426500  46.8458600  16.8438120
  20.6724570  50.4600680  24.2862040  21.0027580  49.5921740  24.0540680
  21.1015570  50.6659200  25.1167000  25.2686490  48.7909690  21.9464010
  24.9682030  48.6674660  22.8467920  25.1623980  47.9318280  21.5379740
  21.1614780  51.3271270  27.0243670  20.7245770  51.5072070  27.8567820
  21.7292460  52.0845890  26.8825390  36.7976960  50.8288270  31.3120980
  36.1978950  50.8880830  30.5684900  36.9270860  49.8893250  31.4417830
  38.0378410  48.5706090  16.6490690  37.2071370  48.6382740  17.1197920
  38.2150240  49.4610210  16.3457550  37.4934870  45.3153570  19.1524890
  38.2553780  45.8850220  19.2584580  37.5089240  44.7480770  19.9233200
  20.9939210  43.8391500  23.3832550  20.3388050  43.5703140  22.7392250
  21.8317160  43.7295980  22.9334530  38.4994840  46.1703670  23.9966820
  38.8703670  45.3870990  23.5902790  39.1396770  46.8592770  23.8184120
  35.4828600  47.5540250  29.4097140  34.6688440  47.9837410  29.6722930
  35.8902800  48.1658660  28.7966190  37.5454040  45.6087940  16.3097410
  37.8202880  46.5166820  16.1816630  37.3564780  45.5450470  17.2459400
  33.9429650  38.6332790  17.6051040  34.3614530  38.4463770  16.7647700
  33.6365710  37.7811840  17.9153970  37.4419380  43.5456930  21.3026840
  37.0662980  42.7784860  20.8708130  36.7122500  43.9279630  21.7901770
  22.0315140  44.2244070  27.9235890  22.3988180  44.1371470  28.8031910
  21.4625960  43.4610620  27.8242750  21.5831140  41.1353160  31.8294310
  20.6887190  41.1019920  32.1688020  22.1228690  41.3339950  32.5945560
  20.2077290  41.0490430  19.3257880  19.3041370  41.3120630  19.1509540
  20.6917910  41.3201600  18.5457840  36.7170340  41.7714420  24.6034080
  37.2407820  41.2777070  23.9724250  37.3029760  41.9064780  25.3481650
  22.7504500  40.1055970  17.2352260  23.4596200  39.6839190  16.7499540
  22.0344440  40.1731200  16.6035610  22.3978660  36.1595300  16.2754910
  23.1206790  36.7004240  16.5936130  22.6703180  35.8858720  15.3996450
  36.2070310  41.0287770  20.5426490  36.7029430  40.7958640  21.3275370
  36.0086380  40.1899610  20.1264130  22.0870850  35.4101490  26.1777530
  22.7347040  34.8598870  25.7372690  22.5072690  35.6644640  26.9993340
  37.6357470  39.6648720  23.0764170  37.5256750  39.5104760  24.0146440
  38.3965060  39.1369660  22.8339580  38.5247740  37.4956640  16.3170310
  39.4497050  37.3637820  16.1088600  38.5023530  37.5749460  17.2706760
  38.5986230  38.2667300  18.9427020  37.8037730  38.2012420  19.4719930
  38.8029510  39.2017940  18.9312370  35.5404650  52.3058850  22.9365410
  36.1363720  51.9843420  22.2599830  35.7982800  51.8330670  23.7278680
  21.8402850  35.5657160  28.9202850  21.4917670  36.0220980  29.6861030
  21.5090550  34.6714290  29.0025280  23.4467220  48.7376760  33.0856040
  23.4036850  48.3669670  33.9670500  23.5778230  49.6754330  33.2257860
  27.1473250  50.2936350  28.6865760  26.9064610  50.5610910  27.7996280
  28.0875890  50.4642080  28.7416620  38.4077410  52.3130730  29.4876400
  37.9135690  52.7099600  28.7703530  37.7990700  51.6879940  29.8813680
  22.5123490  35.0933360  32.1953620  23.0606480  34.9121410  31.4319730
  22.5778800  34.3027470  32.7309930  23.2855250  51.6839010  30.2053820
  22.6915570  51.5523710  30.9443860  23.2779090  50.8477150  29.7395920
  36.0916860  52.9554150  26.7663140  35.6319830  53.7069960  26.3921160
  35.4629320  52.2360620  26.7077940  22.9167480  49.0497390  29.1561860
  22.1901540  48.4302680  29.0887810  22.9776630  49.4438000  28.2859940
  26.5212580  51.2642390  25.9411270  27.0377600  50.6529750  25.4159530
  27.1709960  51.7671170  26.4322280  29.2608080  52.1550880  26.7680250
  29.5485890  51.9005180  25.8913260  29.7731300  51.6028240  27.3585820
  36.8944730  36.2279420  23.4034670  36.8333130  35.2840640  23.2565690
  37.6736760  36.3359510  23.9488130  21.1997480  52.3671780  22.3658620
  21.0319520  51.7342460  23.0640510  20.3331990  52.5731180  22.0152810
  21.8225500  36.1988560  19.8690480  22.5804860  36.3117440  19.2954510
  21.3602670  37.0357760  19.8233910  28.3639310  38.3127830  22.8592790
  27.5513820  37.9384720  22.5188670  28.8680950  37.5572910  23.1613980
  36.0098890  35.3791840  19.3716140  36.2049520  36.2775290  19.6383570
  35.2228760  35.1478920  19.8649090  22.8060180  51.0605010  19.8108760
  22.2807800  51.4413040  19.1070720  22.7304760  51.6855780  20.5318470
  24.1950650  36.7252610  18.4092450  24.7243410  35.9382410  18.2800400
  24.8278970  37.4043800  18.6427980  26.3888490  36.4627750  21.4637840
  25.7591230  35.7615060  21.6307970  25.8493630  37.2231880  21.2471000
  29.3280440  53.0766980  34.1348450  30.2547750  52.8411250  34.1784410
  29.3130870  53.9038980  33.6534480  37.5625500  52.6192550  21.1322700
  37.7377690  51.9330290  20.4883620  36.8647070  53.1439600  20.7399370
  25.4053150  53.0087390  18.6858010  26.1371970  52.7246670  18.1381900
  25.6646820  52.7700670  19.5757390  24.5667940  49.1252120  18.6904340
  23.9376820  49.5937220  19.2390170  24.6815770  48.2801340  19.1250530
  35.8958000  52.3036840  33.9589490  36.6883320  51.8086070  33.7515450
  36.1891150  52.9826980  34.5665100  32.0217660  43.1757780   4.8405540
  31.9411710  42.2612390   4.5697250  31.6082080  43.6724850   4.1345250
  30.1535700  44.9536800   6.7214810  29.3777800  44.4737240   7.0113380
  30.8048630  44.2742450   6.5470970  24.1701530  45.2656610   7.5990570
  23.3386410  45.0105320   7.9987080  24.7782510  45.3367380   8.3348490
  34.1743130  49.3596990   5.5013940  33.7124660  48.5884230   5.8301110
  34.9868680  49.3863060   6.0066390  24.1502790  49.2996700   7.7948590
  24.4530830  48.4094440   7.6158810  24.8946380  49.8566920   7.5670840
  20.5426490  42.8264150   7.2672660  21.1142600  42.0586350   7.2676300
  20.5428030  43.1252910   6.3579270  30.4006440  51.6455000   5.1217930
  29.7817880  52.1012500   4.5512370  31.2558220  51.8006460   4.7207630
  29.5944690  47.6293990   6.7284970  29.5252970  46.6883930   6.5674100
  30.3564550  47.7195400   7.3007540  21.7851360  38.2348510   9.0541590
  21.6054200  37.3374260   9.3344350  21.3831440  38.7820380   9.7288540
  30.6249860  40.4364370   6.9553900  31.0014680  39.5636250   6.8427570
  30.5269370  40.7723070   6.0644340  24.7554870  38.8090000   2.4171340
  24.8621620  39.7093730   2.7240100  23.8447230  38.7607970   2.1265990
  34.4073980  37.9314810   3.8882240  35.2283600  37.4411380   3.9307720
  34.4408060  38.5212470   4.6414080  22.4038030  40.7309010   7.6623930
  23.0848140  40.9947380   8.2811330  22.0886080  39.8909880   7.9961940
  26.5962600  41.7776370   6.7496520  27.1040820  42.2757340   7.3901540
  27.1275840  41.0011570   6.5735880  38.6973530  39.9481560  10.4525870
  37.9925700  40.3363270   9.9340980  38.9631450  40.6431850  11.0546800
  24.8798700  36.4174930  11.0159940  24.8817140  36.9347320  10.2105840
  24.0503010  35.9405110  10.9929870  31.2669790  46.5294240   2.5149840
  30.6487060  46.9943690   1.9512560  31.7793040  47.2221720   2.9319350
  26.1301550  46.0570110   9.1933440  25.7970930  46.6839030   9.8354510
  26.3068230  46.5831990   8.4135110  34.6435460  39.8715190   6.6609780
  33.9391030  40.1600080   7.2412890  35.0047620  40.6815300   6.3009340
  24.5614030  38.1284890   9.0230390  24.9030840  38.9726940   8.7284260
  23.6229840  38.2768630   9.1395730  25.3420650  48.0250910  11.0082620
  25.9594650  48.7001990  10.7267070  24.4813770  48.4338890  10.9170120
  36.2598240  49.4890320   8.9237260  35.5761760  50.1589430   8.9153930
  36.7992530  49.6870970   8.1582120  37.7122380  39.3169980   7.0518990
  36.7647290  39.3508960   7.1834420  38.0372370  40.1308930   7.4368350
  28.2441920  35.6167160   5.3474980  28.5516900  35.0614050   4.6310480
  27.3142620  35.7511620   5.1647970  33.7956980  51.3334450   7.6382440
  33.8084140  50.9296740   6.7704700  33.2432200  52.1081740   7.5343870
  35.0902400  48.0550670   2.7272610  34.9798730  47.1125000   2.8522030
  35.0870650  48.4166310   3.6135370  33.1942420  46.2364290   8.9665050
  33.6111210  46.0224400   8.1318510  33.9182240  46.4937080   9.5373670
  30.6322680  43.6815990   2.0835100  29.7051960  43.6153370   2.3123570
  30.7847500  44.6196120   1.9690340  37.1404520  44.6351510   9.0581290
  36.3123150  44.7044600   8.5831420  37.7355000  45.2205820   8.5897120
  34.6619970  45.2436290   2.5870350  34.0432390  44.9055840   1.9396650
  34.6444420  44.5996050   3.2949540  34.1046530  41.4220830  10.0036160
  33.6917710  42.2474540  10.2576150  33.3722480  40.8365870   9.8112520
  26.2379320  44.2080730   4.8654830  25.8336320  43.4957980   4.3700730
  26.3242440  43.8633970   5.7542870  26.7061020  47.8948290   7.0294040
  26.4089310  47.2893760   6.3501820  27.6560840  47.9325600   6.9183400
  24.9507940  40.9823940   8.6453870  25.5022530  41.0919280   7.8707120
  25.4651450  41.3561540   9.3609100  34.7946630  51.4680160  10.6917140
  34.3177190  52.2752350  10.4989750  34.1108420  50.8158490  10.8443350
  25.7979450  47.6329980  13.6801840  24.9007980  47.8569950  13.9275240
  25.8232320  47.7564920  12.7313240  24.6250670  44.5043300  12.2559210
  24.4858440  45.3766100  12.6246610  23.7432030  44.1616110  12.1107150
  30.9480050  49.4219170   3.5624340  31.3875960  50.1643500   3.1479730
  30.8866940  49.6645740   4.4863300  26.4231020  50.4465000  14.4644360
  26.3946450  50.8507950  13.5972790  26.2595990  49.5175360  14.3015960
  22.9383950  43.1025710   2.3661480  22.8181550  43.8287800   1.7542750
  22.6284840  42.3328620   1.8889390  38.3745840  51.2292100  15.7608530
  38.8505560  51.7074990  16.4397610  38.9953000  51.1609590  15.0354030
  20.5769320  46.2740850   8.1730120  20.6549740  46.4089620   7.2285840
  21.1911000  45.5656740   8.3658240  21.8216950  47.9741040   4.5836300
  21.4145030  48.1155630   3.7289900  22.7129960  47.6901200   4.3807510
  37.7779090  48.4204950  12.9208540  37.9042150  48.1816830  12.0025720
  37.8200470  47.5889490  13.3930620  31.6395830  52.1232950  11.4903350
  32.1540500  52.0340960  12.2925780  30.7964910  52.4692650  11.7831260
  26.0938610  52.1886820   2.6958970  25.9181090  51.2722360   2.4826770
  25.2394350  52.5474110   2.9356770  32.8826290  51.5438560   3.5533840
  33.3383240  50.7627940   3.8672460  33.2218810  52.2545380   4.0975020
  37.6303100  40.4737410  13.8858280  37.0147370  40.9817080  13.3573740
  37.3099520  39.5735740  13.8284220  20.6328840  47.3155020  10.7124580
  20.7959880  46.8460380   9.8943950  21.0981290  46.8078580  11.3773420
  25.4047610  36.4460780   5.7485150  24.9615760  37.2270320   5.4169670
  25.9632600  36.7690670   6.4556090  29.6917420  39.3129300  11.3520470
  29.2296790  39.5212320  12.1640410  29.2895530  38.4988650  11.0491140
  34.6921930  40.5338250  12.4817130  33.8415520  40.2344000  12.8026200
  34.5323720  40.7780260  11.5700950  31.7871640  42.0340000  14.5815920
  32.1125050  41.2003750  14.2418150  32.5751970  42.5568520  14.7294250
  27.4423510  36.9908110   7.6074750  27.7395840  37.8970940   7.5266770
  27.9909070  36.5026890   6.9934320  25.1961830  41.5694350   3.4766400
  24.9702750  41.3531520   4.3813020  24.4154360  42.0022810   3.1312370
  32.4259590  41.5757720   2.0757050  31.8268480  42.2993520   1.8920670
  32.9739200  41.5134500   1.2933500  27.6361040  42.4679930  14.1426670
  27.5404640  41.5274660  13.9927070  28.4793020  42.6895000  13.7474740
  31.0324460  40.2121260   4.1060330  31.4254030  40.5293460   3.2929020
  31.3941310  39.3333140   4.2204850  22.7671580  38.8793600  12.2960450
  22.3734970  39.7268810  12.5033230  22.0789980  38.2419970  12.4869090
  29.3416630  38.9628570  15.3657190  28.6514950  38.7700770  16.0003280
  30.0848930  39.2463210  15.8981490  20.0688630  36.8022060   6.3290530
  19.7801680  37.3724920   7.0415510  20.8134390  36.3226510   6.6921760
  31.6179600  42.8027010   8.2011110  30.8860720  43.3113820   8.5501210
  31.2203940  41.9856990   7.8999890  28.0556990  39.4781210   6.6063600
  28.0593050  39.0371160   5.7568140  28.9508110  39.7998540   6.7135420
  23.9059370  39.3607700   5.5657810  23.5659420  39.8382930   6.3224860
  23.1436690  38.9072820   5.2058910  32.0805510  38.2560690   7.6134050
  32.0978250  38.7069340   8.4575900  31.8321090  37.3566330   7.8267490
  35.5076260  35.6692870  13.4520430  35.8322030  34.9382530  13.9778410
  35.5432770  35.3506510  12.5501420  22.2067820  46.6906450  12.8720390
  21.8222610  46.0500120  13.4703350  22.5180010  47.3942570  13.4415120
  28.3564960  43.5382990   8.3529010  28.7235090  43.0641560   9.0990350
  28.1670020  44.4124560   8.6937350  21.2205450  38.2826680   4.4822480
  20.9352370  37.9182350   5.3201100  21.1584310  37.5507140   3.8685620
  26.1464330  42.5791630  10.6713220  25.8421400  43.4583610  10.8963580
  27.1010790  42.6391420  10.7070660  35.4334100  45.7817980   7.0606460
  36.1533220  46.2773270   6.6702570  35.2315920  45.1035870   6.4160330
  30.8152900  45.8527040  12.9475460  30.7490210  44.9322710  12.6933050
  30.1858040  45.9502480  13.6620100  24.7183520  46.4533000   4.9058880
  25.2362190  45.6501260   4.8515770  24.2667540  46.3912140   5.7475710
  22.2028060  43.4194370  11.8184580  21.8443000  44.0848220  12.4057920
  21.9082620  42.5877920  12.1897200  25.4041180  43.8778610  14.7024130
  25.1041320  44.0235790  13.8051950  26.1752420  43.3183900  14.6097520
  30.7469630  48.6747610  12.6979260  30.7614170  47.7428570  12.4798170
  30.0394730  48.7607370  13.3369030  36.9580840  45.3154950  12.0447840
  36.2329030  45.9083730  11.8477230  37.4856300  45.3078490  11.2461210
  32.4880430  47.0415120   5.5431690  32.8404250  46.4443250   4.8833060
  31.6042760  46.7159350   5.7139940  28.5743710  47.8012810   2.9502100
  29.2614840  48.3482020   3.3309690  27.7876130  48.3453540   2.9851710
  27.8770920  44.8058840   2.5627460  28.3333700  45.6164090   2.7887650
  27.5259130  44.4881980   3.3945950  30.1803530  50.3165180   9.7919760
  30.8245750  50.5224560  10.4693180  30.5432970  49.5553580   9.3390610
  23.7782700  35.1496490   3.0349980  23.6497330  35.1414390   3.9834900
  22.9544720  35.4879580   2.6840990  31.4535610  48.3197530   8.5097210
  32.0957840  47.6190690   8.6229380  31.9784960  49.0995970   8.3294100
  33.2273230  49.1192430  11.7133270  33.5629470  49.7059120  12.3911190
  32.3073570  48.9885140  11.9431060  20.7776630  36.9087610  12.4956680
  20.0635150  37.1084530  13.1009290  21.1971670  36.1327180  12.8671480
  21.0649220  50.8967870  13.4823210  21.1740340  49.9562610  13.3418600
  20.4129780  51.1622620  12.8336940  29.0561810  49.1683760  14.8821330
  28.7358680  48.4493000  15.4267020  28.3820170  49.8438830  14.9557390
  32.2715410  39.4009920  10.2458130  32.6396230  38.5805130  10.5737700
  31.4113610  39.4611810  10.6613780  27.6061470  40.6352810   2.4703570
  26.8977620  41.1039150   2.9117180  27.8905950  39.9774820   3.1048760
  29.2317400  42.0549510  10.4696100  29.7302650  42.5295330  11.1347950
  29.3740350  41.1313030  10.6766130  31.6376900  37.3603470   3.9099360
  31.5144680  37.3789600   2.9608870  32.5861460  37.4082410   4.0297760
  28.7253690  52.5958770   3.1827340  28.9795190  52.5580160   2.2606710
  27.7766170  52.4692100   3.1755590  36.4384260  38.2717470  11.3124490
  35.9357860  39.0122870  11.6518300  37.2540920  38.6601470  10.9961280
  34.7306270  43.5150650   4.7585850  33.7896410  43.5300880   4.9333540
  35.0450340  42.7286610   5.2046150  36.7331850  50.6859500   6.4340110
  36.8579270  51.5090670   6.9063920  37.5997410  50.4750230   6.0864260
  24.2049380  52.7790710   6.1057240  24.9411860  52.2306170   6.3765810
  24.5890300  53.6446720   5.9663230  21.0894860  48.8464280   1.9798750
  20.1634640  49.0885420   1.9704160  21.5551290  49.6738540   1.8583500
  23.2107660  51.9636780  15.2942820  24.0120390  52.2848830  15.7078220
  22.6959480  51.6032360  16.0162730  32.0472290  48.0716650  15.2418230
  31.4410450  48.0948250  14.5013980  31.7426400  47.3399690  15.7785480
  33.4772660  51.7996940  13.8527640  34.4294410  51.7154960  13.8027880
  33.3300880  52.4638650  14.5261430  20.9305470  44.4510240  14.2378870
  21.4344490  43.8717520  14.8095100  20.1912890  44.7350470  14.7755240
  27.9843410  45.8581230  13.7714390  27.2189080  46.4266230  13.6869060
  28.1659370  45.5657440  12.8782620  35.1266760  47.5886560  14.3289410
  35.8676230  47.9262320  13.8256870  34.3639440  47.7578620  13.7759180
  22.9628550  42.5939830  15.1328940  23.0033890  42.2953700  16.0414170
  23.8174050  42.9947440  14.9736460  24.9034360  41.1731930  13.1003430
  24.3730820  40.6822880  12.4726770  25.5722430  41.6016130  12.5661360
  33.8012420  45.6401390  12.8644620  34.2153440  45.7946470  13.7135040
  32.8663420  45.7656610  13.0270400  34.2734590  42.9797550  14.8683770
  34.8555360  42.2249870  14.7804250  34.4496360  43.5104990  14.0915250
  25.3906660  38.1394300  13.1800720  25.2963530  37.5215050  12.4551590
  24.8104050  38.8660590  12.9530630  28.1568100  36.6967540  10.2128110
  27.7085400  36.7191800   9.3673660  27.5233300  36.2986560  10.8098410
  28.5627650  45.5921870  10.8340550  28.9815760  46.4354600  10.6616790
  27.6436280  45.7293910  10.6047330  30.8991550  43.3238050  12.2178390
  31.0187760  42.7279190  12.9573230  31.7585550  43.3607740  11.7979690
  33.2379450  43.8775240  10.7940900  32.7114670  44.4017860  10.1906040
  33.5810790  44.5102630  11.4250630  26.4135070  51.8974880  11.9498280
  25.8756160  52.6220940  11.6306980  26.6669030  51.4205220  11.1595620
  27.6660320  39.8659400  13.4754210  28.2560010  39.5575250  14.1632030
  26.8480560  39.3939150  13.6314110  32.4853750  39.4825210  13.7087230
  31.7969270  38.8206750  13.6437220  33.2059770  39.0363480  14.1535690
  29.2697280  53.1326090  12.2084930  29.1955980  54.0361230  12.5157300
  28.3676120  52.8137990  12.1807000  20.6724570  50.4600680   5.5118550
  21.0027580  49.5921740   5.2797190  21.1015570  50.6659200   6.3423510
  25.2686490  48.7909690   3.1720520  24.9682030  48.6674660   4.0724430
  25.1623980  47.9318280   2.7636250  21.1614780  51.3271270   8.2500180
  20.7245770  51.5072070   9.0824330  21.7292460  52.0845890   8.1081900
  36.7976960  50.8288270  12.5377490  36.1978950  50.8880830  11.7941410
  36.9270860  49.8893250  12.6674340  20.9939210  43.8391500   4.6089060
  20.3388050  43.5703140   3.9648760  21.8317160  43.7295980   4.1591040
  38.4994840  46.1703670   5.2223330  38.8703670  45.3870990   4.8159300
  39.1396770  46.8592770   5.0440630  35.4828600  47.5540250  10.6353650
  34.6688440  47.9837410  10.8979440  35.8902800  48.1658660  10.0222700
  37.4419380  43.5456930   2.5283350  37.0662980  42.7784860   2.0964640
  36.7122500  43.9279630   3.0158280  22.0315140  44.2244070   9.1492400
  22.3988180  44.1371470  10.0288420  21.4625960  43.4610620   9.0499260
  36.8319000  42.6928450  12.1622870  36.6005090  42.4641200  11.2620820
  37.0923550  43.6128000  12.1167760  21.5831140  41.1353160  13.0550820
  20.6887190  41.1019920  13.3944530  22.1228690  41.3339950  13.8202070
  35.2707070  37.9184880  14.9402570  36.1477250  37.9268280  15.3236570
  35.2827910  37.1815720  14.3294920  36.7170340  41.7714420   5.8290590
  37.2407820  41.2777070   5.1980760  37.3029760  41.9064780   6.5738160
  36.8960060  41.8554290   9.3510140  35.9462770  41.8217830   9.4655130
  37.0773070  42.7654400   9.1159910  36.2070310  41.0287770   1.7683000
  36.7029430  40.7958640   2.5531880  36.0086380  40.1899610   1.3520640
  22.0870850  35.4101490   7.4034040  22.7347040  34.8598870   6.9629200
  22.5072690  35.6644640   8.2249850  37.6357470  39.6648720   4.3020680
  37.5256750  39.5104760   5.2402950  38.3965060  39.1369660   4.0596090
  35.9823190  35.6042850  10.7603680  36.6195410  36.2176990  11.1262870
  36.1298080  35.6403510   9.8152910  35.5404650  52.3058850   4.1621920
  36.1363720  51.9843420   3.4856340  35.7982800  51.8330670   4.9535190
  21.8402850  35.5657160  10.1459360  21.4917670  36.0220980  10.9117540
  21.5090550  34.6714290  10.2281790  23.4467220  48.7376760  14.3112550
  23.4036850  48.3669670  15.1927010  23.5778230  49.6754330  14.4514370
  27.1473250  50.2936350   9.9122270  26.9064610  50.5610910   9.0252790
  28.0875890  50.4642080   9.9673130  29.3527670  36.7569040  13.6678780
  29.2916560  37.3490870  14.4174190  30.2928050  36.6495000  13.5229040
  31.9902230  36.4139100  13.3071070  32.6042640  36.7318390  12.6452150
  32.5351790  35.9287690  13.9266930  38.4077410  52.3130730  10.7132910
  37.9135690  52.7099600   9.9960040  37.7990700  51.6879940  11.1070190
  22.5123490  35.0933360  13.4210130  23.0606480  34.9121410  12.6576240
  22.5778800  34.3027470  13.9566440  23.2855250  51.6839010  11.4310330
  22.6915570  51.5523710  12.1700370  23.2779090  50.8477150  10.9652430
  32.7310270  34.9771240   9.6340360  31.8570110  35.3106350   9.4313290
  32.6221020  34.5044420  10.4592230  33.6382250  37.1842110  11.0182080
  33.3095610  36.3693870  10.6383810  34.5864550  37.1411920  10.8947770
  36.0916860  52.9554150   7.9919650  35.6319830  53.7069960   7.6177670
  35.4629320  52.2360620   7.9334450  22.9167480  49.0497390  10.3818370
  22.1901540  48.4302680  10.3144320  22.9776630  49.4438000   9.5116450
  26.5212580  51.2642390   7.1667780  27.0377600  50.6529750   6.6416040
  27.1709960  51.7671170   7.6578790  29.2608080  52.1550880   7.9936760
  29.5485890  51.9005180   7.1169770  29.7731300  51.6028240   8.5842330
  30.4785090  35.8941080   8.5733270  29.6956880  36.3686580   8.8530030
  30.1848020  34.9895910   8.4646450  35.0306160  36.5964180   6.6182360
  35.4714250  36.5409280   5.7703960  34.7613750  37.5122190   6.6892540
  36.8944730  36.2279420   4.6291180  36.8333130  35.2840640   4.4822200
  37.6736760  36.3359510   5.1744640  21.1997480  52.3671780   3.5915130
  21.0319520  51.7342460   4.2897020  20.3331990  52.5731180   3.2409320
  28.3639310  38.3127830   4.0849300  27.5513820  37.9384720   3.7445180
  28.8680950  37.5572910   4.3870490  32.8664290  34.9770280   5.3232370
  33.4693660  35.5490490   5.7980890  32.1257280  35.5409720   5.1006270
  26.3888490  36.4627750   2.6894350  25.7591230  35.7615060   2.8564480
  25.8493630  37.2231880   2.4727510  29.3280440  53.0766980  15.3604960
  30.2547750  52.8411250  15.4040920  29.3130870  53.9038980  14.8790990
  37.5625500  52.6192550   2.3579210  37.7377690  51.9330290   1.7140130
  36.8647070  53.1439600   1.9655880  26.5144050  35.7411730  15.1246840
  26.2328320  36.2445330  14.3607660  26.8963750  34.9433480  14.7588970
  33.1159510  35.1565310  15.7027310  33.0024960  35.4759920  16.5978830
  33.9329250  35.5577820  15.4064590  35.8958000  52.3036840  15.1846000
  36.6883320  51.8086070  14.9771960  36.1891150  52.9826980  15.7921610
  32.0217660  24.4014290  61.1636010  31.9411710  23.4868900  60.8927720
  31.6082080  24.8981360  60.4575720  30.1535700  26.1793310  63.0445280
  29.3777800  25.6993750  63.3343850  30.8048630  25.4998960  62.8701440
  24.1701530  26.4913120  63.9221040  23.3386410  26.2361830  64.3217550
  24.7782510  26.5623890  64.6578960  34.1743130  30.5853500  61.8244410
  33.7124660  29.8140740  62.1531580  34.9868680  30.6119570  62.3296860
  24.1502790  30.5253210  64.1179060  24.4530830  29.6350950  63.9389280
  24.8946380  31.0823430  63.8901310  22.5793480  21.4515010  57.7063430
  21.6910180  21.7930980  57.6043310  22.8634670  21.2515330  56.8144260
  20.5426490  24.0520660  63.5903130  21.1142600  23.2842860  63.5906770
  20.5428030  24.3509420  62.6809740  30.4006440  32.8711510  61.4448400
  29.7817880  33.3269010  60.8742840  31.2558220  33.0262970  61.0438100
  29.5944690  28.8550500  63.0515440  29.5252970  27.9140440  62.8904570
  30.3564550  28.9451910  63.6238010  21.7851360  19.4605020  65.3772060
  21.6054200  18.5630770  65.6574820  21.3831440  20.0076890  66.0519010
  30.6249860  21.6620880  63.2784370  31.0014680  20.7892760  63.1658040
  30.5269370  21.9979580  62.3874810  24.7554870  20.0346510  58.7401810
  24.8621620  20.9350240  59.0470570  23.8447230  19.9864480  58.4496460
  34.4073980  19.1571320  60.2112710  35.2283600  18.6667890  60.2538190
  34.4408060  19.7468980  60.9644550  22.4038030  21.9565520  63.9854400
  23.0848140  22.2203890  64.6041800  22.0886080  21.1166390  64.3192410
  26.5962600  23.0032880  63.0726990  27.1040820  23.5013850  63.7132010
  27.1275840  22.2268080  62.8966350  38.6973530  21.1738070  66.7756340
  37.9925700  21.5619780  66.2571450  38.9631450  21.8688360  67.3777270
  24.8798700  17.6431440  67.3390410  24.8817140  18.1603830  66.5336310
  24.0503010  17.1661620  67.3160340  31.2669790  27.7550750  58.8380310
  30.6487060  28.2200200  58.2743030  31.7793040  28.4478230  59.2549820
  26.1301550  27.2826620  65.5163910  25.7970930  27.9095540  66.1584980
  26.3068230  27.8088500  64.7365580  34.6435460  21.0971700  62.9840250
  33.9391030  21.3856590  63.5643360  35.0047620  21.9071810  62.6239810
  24.5614030  19.3541400  65.3460860  24.9030840  20.1983450  65.0514730
  23.6229840  19.5025140  65.4626200  25.3420650  29.2507420  67.3313090
  25.9594650  29.9258500  67.0497540  24.4813770  29.6595400  67.2400590
  20.6352990  28.4407280  56.2119940  20.2580970  28.9294380  55.4804840
  20.8926060  29.1132560  56.8426470  36.2598240  30.7146830  65.2467730
  35.5761760  31.3845940  65.2384400  36.7992530  30.9127480  64.4812590
  37.7122380  20.5426490  63.3749460  36.7647290  20.5765470  63.5064890
  38.0372370  21.3565440  63.7598820  28.2441920  16.8423670  61.6705450
  28.5516900  16.2870560  60.9540950  27.3142620  16.9768130  61.4878440
  33.7956980  32.5590960  63.9612910  33.8084140  32.1553250  63.0935170
  33.2432200  33.3338250  63.8574340  35.0902400  29.2807180  59.0503080
  34.9798730  28.3381510  59.1752500  35.0870650  29.6422820  59.9365840
  33.1942420  27.4620800  65.2895520  33.6111210  27.2480910  64.4548980
  33.9182240  27.7193590  65.8604140  30.6322680  24.9072500  58.4065570
  29.7051960  24.8409880  58.6354040  30.7847500  25.8452630  58.2920810
  30.6191760  21.1789500  55.4032730  29.6795430  21.3403460  55.4885190
  30.9375020  21.8975180  54.8568720  37.1404520  25.8608020  65.3811760
  36.3123150  25.9301110  64.9061890  37.7355000  26.4462330  64.9127590
  34.6619970  26.4692800  58.9100820  34.0432390  26.1312350  58.2627120
  34.6444420  25.8252560  59.6180010  34.1046530  22.6477340  66.3266630
  33.6917710  23.4731050  66.5806620  33.3722480  22.0622380  66.1342990
  26.2379320  25.4337240  61.1885300  25.8336320  24.7214490  60.6931200
  26.3242440  25.0890480  62.0773340  26.7061020  29.1204800  63.3524510
  26.4089310  28.5150270  62.6732290  27.6560840  29.1582110  63.2413870
  24.9507940  22.2080450  64.9684340  25.5022530  22.3175790  64.1937590
  25.4651450  22.5818050  65.6839570  34.7946630  32.6936670  67.0147610
  34.3177190  33.5008860  66.8220220  34.1108420  32.0415000  67.1673820
  32.8384670  25.7079610  55.9173570  33.2777950  24.8702040  55.7711390
  33.5513090  26.3409010  56.0037710  30.9480050  30.6475680  59.8854810
  31.3875960  31.3900010  59.4710200  30.8866940  30.8902250  60.8093770
  36.4201810  16.9622420  54.2314610  36.1074470  17.0549250  55.1313680
  37.1814280  17.5403450  54.1812040  22.9383950  24.3282220  58.6891950
  22.8181550  25.0544310  58.0773220  22.6284840  23.5585130  58.2119860
  20.5769320  27.4997360  64.4960590  20.6549740  27.6346130  63.5516310
  21.1911000  26.7913250  64.6888710  21.8216950  29.1997550  60.9066770
  21.4145030  29.3412140  60.0520370  22.7129960  28.9157710  60.7037980
  33.6150230  33.6344800  57.2417820  33.4551370  33.3447740  58.1399650
  33.4496940  32.8584930  56.7063050  26.0938610  33.4143330  59.0189440
  25.9181090  32.4978870  58.8057240  25.2394350  33.7730620  59.2587240
  33.3176360  31.1432360  55.8015820  32.6241520  31.1409650  55.1418100
  34.0599220  30.7191680  55.3709990  32.8826290  32.7695070  59.8764310
  33.3383240  31.9884450  60.1902930  33.2218810  33.4801890  60.4205490
  20.6328840  28.5411530  67.0355050  20.7959880  28.0716890  66.2174420
  21.0981290  28.0335090  67.7003890  25.4047610  17.6717290  62.0715620
  24.9615760  18.4526830  61.7400140  25.9632600  17.9947180  62.7786560
  28.5206430  17.2927990  56.9521450  27.8960610  17.2887860  57.6774760
  28.4336550  16.4258950  56.5557420  27.4423510  18.2164620  63.9305220
  27.7395840  19.1227450  63.8497240  27.9909070  17.7283400  63.3164790
  25.1961830  22.7950860  59.7996870  24.9702750  22.5788030  60.7043490
  24.4154360  23.2279320  59.4542840  32.4259590  22.8014230  58.3987520
  31.8268480  23.5250030  58.2151140  32.9739200  22.7391010  57.6163970
  31.0324460  21.4377770  60.4290800  31.4254030  21.7549970  59.6159490
  31.3941310  20.5589650  60.5435320  20.0688630  18.0278570  62.6521000
  19.7801680  18.5981430  63.3645980  20.8134390  17.5483020  63.0152230
  20.2558860  21.9698690  53.8623720  20.1733530  22.9129450  54.0038710
  19.9041920  21.8273600  52.9836070  31.6179600  24.0283520  64.5241580
  30.8860720  24.5370330  64.8731680  31.2203940  23.2113500  64.2230360
  28.0556990  20.7037720  62.9294070  28.0593050  20.2627670  62.0798610
  28.9508110  21.0255050  63.0365890  23.9059370  20.5864210  61.8888280
  23.5659420  21.0639440  62.6455330  23.1436690  20.1329330  61.5289380
  28.1177140  21.7049800  55.9200830  28.2389960  21.6636280  56.8686650
  27.7325650  22.5673950  55.7647560  32.0805510  19.4817200  63.9364520
  32.0978250  19.9325850  64.7806370  31.8321090  18.5822840  64.1497960
  27.1298640  24.0150940  55.3184130  26.5615540  23.5669190  54.6920040
  27.8387640  24.3743720  54.7849280  28.3564960  24.7639500  64.6759480
  28.7235090  24.2898070  65.4220820  28.1670020  25.6381070  65.0167820
  21.2205450  19.5083190  60.8052950  20.9352370  19.1438860  61.6431570
  21.1584310  18.7763650  60.1916090  26.1464330  23.8048140  66.9943690
  25.8421400  24.6840120  67.2194050  27.1010790  23.8647930  67.0301130
  24.6746120  28.0109130  57.5910540  23.9008380  27.4706750  57.4309260
  25.4040750  27.4915740  57.2528300  35.4334100  27.0074490  63.3836930
  36.1533220  27.5029780  62.9933040  35.2315920  26.3292380  62.7390800
  30.8944040  18.4012450  57.5266320  30.0808650  17.9025620  57.4511630
  30.7005990  19.2410700  57.1102670  33.6092430  22.7732100  55.8228480
  34.4972050  23.0849330  55.6479820  33.5797520  21.9004350  55.4309060
  24.7183520  27.6789510  61.2289350  25.2362190  26.8757770  61.1746240
  24.2667540  27.6168650  62.0706180  29.6053020  28.9455790  56.5016650
  29.9468720  29.6898020  56.0059970  28.7765730  29.2586910  56.8641480
  35.8806700  24.0843940  55.2908340  35.7970420  24.5158160  54.4404780
  36.6000890  24.5442290  55.7235160  36.9093950  30.9386200  58.0190470
  36.2670110  30.2841820  58.2934190  36.5224610  31.3441290  57.2431140
  32.4880430  28.2671630  61.8662160  32.8404250  27.6699760  61.2063530
  31.6042760  27.9415860  62.0370410  28.5743710  29.0269320  59.2732570
  29.2614840  29.5738530  59.6540160  27.7876130  29.5710050  59.3082180
  20.7136110  24.6442140  54.7649650  21.5830960  24.9266940  55.0485570
  20.2226430  25.4578010  54.6498460  27.8770920  26.0315350  58.8857930
  28.3333700  26.8420600  59.1118120  27.5259130  25.7138490  59.7176420
  30.1803530  31.5421690  66.1150230  30.8245750  31.7481070  66.7923650
  30.5432970  30.7810090  65.6621080  23.7782700  16.3753000  59.3580450
  23.6497330  16.3670900  60.3065370  22.9544720  16.7136090  59.0071460
  31.4535610  29.5454040  64.8327680  32.0957840  28.8447200  64.9459850
  31.9784960  30.3252480  64.6524570  35.2991330  29.8302660  54.5566820
  35.0728910  29.1133100  55.1491460  34.9087530  29.5815100  53.7188570
  21.0807360  33.8569520  55.3311280  21.4405000  34.4558860  54.6768550
  20.9399700  34.4029410  56.1046310  34.8807580  27.7474600  56.2180980
  34.5929280  28.2087290  57.0058860  35.6759750  27.2872370  56.4865200
  27.0975980  31.2400720  56.1484950  27.0886080  31.9730410  55.5329460
  26.1774340  30.9932300  56.2411910  22.6982620  26.4615610  56.8931710
  22.0910570  27.2014510  56.9027010  23.1731970  26.5514970  56.0669910
  32.2715410  20.6266430  66.5688600  32.6396230  19.8061640  66.8968170
  31.4113610  20.6868320  66.9844250  35.6377440  19.5823370  57.3776160
  35.0090600  19.6869040  56.6634390  35.1429360  19.8020150  58.1670040
  30.0835580  31.3028960  54.8110140  30.1847560  31.0992950  53.8812120
  29.1837320  31.0487240  55.0157920  27.6061470  21.8609320  58.7934040
  26.8977620  22.3295660  59.2347650  27.8905950  21.2031330  59.4279230
  29.2317400  23.2806020  66.7926570  29.7302650  23.7551840  67.4578420
  29.3740350  22.3569540  66.9996600  31.6376900  18.5859980  60.2329830
  31.5144680  18.6046110  59.2839340  32.5861460  18.6338920  60.3528230
  28.7253690  33.8215280  59.5057810  28.9795190  33.7836670  58.5837180
  27.7766170  33.6948610  59.4986060  25.8096490  20.1694400  56.1684750
  26.6587020  20.6064550  56.1024940  25.4427760  20.4814660  56.9956810
  36.4384260  19.4973980  67.6354960  35.9357860  20.2379380  67.9748770
  37.2540920  19.8857980  67.3191750  34.7306270  24.7407160  61.0816320
  33.7896410  24.7557390  61.2564010  35.0450340  23.9543120  61.5276620
  24.7087910  26.4226760  54.6420280  25.4751180  26.3108120  55.2045710
  24.7862600  25.7264730  53.9897050  23.4034670  23.8551830  55.3253170
  23.4838260  22.9079340  55.4370570  24.2954420  24.1858710  55.4313830
  36.7331850  31.9116010  62.7570580  36.8579270  32.7347180  63.2294390
  37.5997410  31.7006740  62.4094730  24.2049380  34.0047220  62.4287710
  24.9411860  33.4562680  62.6996280  24.5890300  34.8703230  62.2893700
  21.0894860  30.0720790  58.3029220  20.1634640  30.3141930  58.2934630
  21.5551290  30.8995050  58.1813970  27.3151690  33.1777530  54.2513280
  28.1080300  33.4666360  53.7995070  26.7956040  32.7469700  53.5725760
  36.3681860  32.4047660  55.6750020  36.0823370  31.9912800  54.8604200
  36.1701410  33.3335370  55.5550540  27.8329090  28.3980940  54.1155630
  27.7279730  27.7833290  54.8417010  27.6653310  27.8746830  53.3318640
  31.0731820  27.4600970  54.7197620  30.5241920  27.9070270  55.3640360
  31.6951080  26.9550220  55.2435290  26.7406940  26.4191890  56.6162920
  27.1623360  26.2531760  57.4594310  26.8657780  25.6092120  56.1218060
  29.2534580  25.4429500  53.8640020  29.7740240  24.7278520  53.4981170
  29.9002980  26.0815370  54.1640530  28.1568100  17.9224050  66.5358580
  27.7085400  17.9448310  65.6904130  27.5233300  17.5243070  67.1328880
  28.5627650  26.8178380  67.1571020  28.9815760  27.6611110  66.9847260
  27.6436280  26.9550420  66.9277800  33.2379450  25.1031750  67.1171370
  32.7114670  25.6274370  66.5136510  33.5810790  25.7359140  67.7481100
  25.6365840  22.4925120  53.5621080  25.4354900  21.6292480  53.9234420
  25.4657890  22.4058480  52.6242680  33.1154150  17.3033350  56.0907960
  33.3956440  16.4601250  56.4467380  32.3419880  17.5356460  56.6046710
  24.4348640  19.5925740  53.5498960  24.7374540  19.5993170  52.6418110
  25.1743230  19.2423600  54.0466620  27.6533570  18.5360360  54.5355160
  27.3055570  17.8584350  53.9557610  27.8546340  18.0749870  55.3498550
  29.8182610  33.5241110  56.1541760  30.7133400  33.8626080  56.1760520
  29.8500240  32.8020520  55.5266040  23.4578770  28.8968160  54.3828760
  23.8953640  29.4397830  55.0386340  23.9426500  28.0715110  54.3925100
  20.6724570  31.6857190  61.8349020  21.0027580  30.8178250  61.6027660
  21.1015570  31.8915710  62.6653980  25.2686490  30.0166200  59.4950990
  24.9682030  29.8931170  60.3954900  25.1623980  29.1574790  59.0866720
  21.1614780  32.5527780  64.5730650  20.7245770  32.7328580  65.4054800
  21.7292460  33.3102400  64.4312370  38.0378410  29.7962600  54.1977670
  37.2071370  29.8639250  54.6684900  38.2150240  30.6866720  53.8944530
  37.4934870  26.5410080  56.7011870  38.2553780  27.1106730  56.8071560
  37.5089240  25.9737280  57.4720180  20.9939210  25.0648010  60.9319530
  20.3388050  24.7959650  60.2879230  21.8317160  24.9552490  60.4821510
  38.4994840  27.3960180  61.5453800  38.8703670  26.6127500  61.1389770
  39.1396770  28.0849280  61.3671100  35.4828600  28.7796760  66.9584120
  34.6688440  29.2093920  67.2209910  35.8902800  29.3915170  66.3453170
  37.5454040  26.8344450  53.8584390  37.8202880  27.7423330  53.7303610
  37.3564780  26.7706980  54.7946380  33.9429650  19.8589300  55.1538020
  34.3614530  19.6720280  54.3134680  33.6365710  19.0068350  55.4640950
  37.4419380  24.7713440  58.8513820  37.0662980  24.0041370  58.4195110
  36.7122500  25.1536140  59.3388750  22.0315140  25.4500580  65.4722870
  22.3988180  25.3627980  66.3518890  21.4625960  24.6867130  65.3729730
  20.2077290  22.2746940  56.8744860  19.3041370  22.5377140  56.6996520
  20.6917910  22.5458110  56.0944820  36.7170340  22.9970930  62.1521060
  37.2407820  22.5033580  61.5211230  37.3029760  23.1321290  62.8968630
  36.8960060  23.0810800  65.6740610  35.9462770  23.0474340  65.7885600
  37.0773070  23.9910910  65.4390380  22.7504500  21.3312480  54.7839240
  23.4596200  20.9095700  54.2986520  22.0344440  21.3987710  54.1522590
  22.3978660  17.3851810  53.8241890  23.1206790  17.9260750  54.1423110
  22.6703180  17.1115230  52.9483430  36.2070310  22.2544280  58.0913470
  36.7029430  22.0215150  58.8762350  36.0086380  21.4156120  57.6751110
  22.0870850  16.6358000  63.7264510  22.7347040  16.0855380  63.2859670
  22.5072690  16.8901150  64.5480320  37.6357470  20.8905230  60.6251150
  37.5256750  20.7361270  61.5633420  38.3965060  20.3626170  60.3826560
  35.9823190  16.8299360  67.0834150  36.6195410  17.4433500  67.4493340
  36.1298080  16.8660020  66.1383380  38.5247740  18.7213150  53.8657290
  39.4497050  18.5894330  53.6575580  38.5023530  18.8005970  54.8193740
  38.5986230  19.4923810  56.4914000  37.8037730  19.4268930  57.0206910
  38.8029510  20.4274450  56.4799350  35.5404650  33.5315360  60.4852390
  36.1363720  33.2099930  59.8086810  35.7982800  33.0587180  61.2765660
  21.8402850  16.7913670  66.4689830  21.4917670  17.2477490  67.2348010
  21.5090550  15.8970800  66.5512260  27.1473250  31.5192860  66.2352740
  26.9064610  31.7867420  65.3483260  28.0875890  31.6898590  66.2903600
  38.4077410  33.5387240  67.0363380  37.9135690  33.9356110  66.3190510
  37.7990700  32.9136450  67.4300660  32.7310270  16.2027750  65.9570830
  31.8570110  16.5362860  65.7543760  32.6221020  15.7300930  66.7822700
  33.6382250  18.4098620  67.3412550  33.3095610  17.5950380  66.9614280
  34.5864550  18.3668430  67.2178240  36.0916860  34.1810660  64.3150120
  35.6319830  34.9326470  63.9408140  35.4629320  33.4617130  64.2564920
  22.9167480  30.2753900  66.7048840  22.1901540  29.6559190  66.6374790
  22.9776630  30.6694510  65.8346920  26.5212580  32.4898900  63.4898250
  27.0377600  31.8786260  62.9646510  27.1709960  32.9927680  63.9809260
  29.2608080  33.3807390  64.3167230  29.5485890  33.1261690  63.4400240
  29.7731300  32.8284750  64.9072800  30.4785090  17.1197590  64.8963740
  29.6956880  17.5943090  65.1760500  30.1848020  16.2152420  64.7876920
  35.0306160  17.8220690  62.9412830  35.4714250  17.7665790  62.0934430
  34.7613750  18.7378700  63.0123010  36.8944730  17.4535930  60.9521650
  36.8333130  16.5097150  60.8052670  37.6736760  17.5616020  61.4975110
  21.1997480  33.5928290  59.9145600  21.0319520  32.9598970  60.6127490
  20.3331990  33.7987690  59.5639790  21.8225500  17.4245070  57.4177460
  22.5804860  17.5373950  56.8441490  21.3602670  18.2614270  57.3720890
  28.3639310  19.5384340  60.4079770  27.5513820  19.1641230  60.0675650
  28.8680950  18.7829420  60.7100960  32.8664290  16.2026790  61.6462840
  33.4693660  16.7747000  62.1211360  32.1257280  16.7666230  61.4236740
  36.0098890  16.6048350  56.9203120  36.2049520  17.5031800  57.1870550
  35.2228760  16.3735430  57.4136070  22.8060180  32.2861520  57.3595740
  22.2807800  32.6669550  56.6557700  22.7304760  32.9112290  58.0805450
  24.1950650  17.9509120  55.9579430  24.7243410  17.1638920  55.8287380
  24.8278970  18.6300310  56.1914960  26.3888490  17.6884260  59.0124820
  25.7591230  16.9871570  59.1794950  25.8493630  18.4488390  58.7957980
  37.5625500  33.8449060  58.6809680  37.7377690  33.1586800  58.0370600
  36.8647070  34.3696110  58.2886350  25.4053150  34.2343900  56.2344990
  26.1371970  33.9503180  55.6868880  25.6646820  33.9957180  57.1244370
  24.5667940  30.3508630  56.2391320  23.9376820  30.8193730  56.7877150
  24.6815770  29.5057850  56.6737510  24.1701530  26.4913120  45.1477550
  23.3386410  26.2361830  45.5474060  24.7782510  26.5623890  45.8835470
  24.1502790  30.5253210  45.3435570  24.4530830  29.6350950  45.1645790
  24.8946380  31.0823430  45.1157820  22.5793480  21.4515010  38.9319940
  21.6910180  21.7930980  38.8299820  22.8634670  21.2515330  38.0400770
  20.5426490  24.0520660  44.8159640  21.1142600  23.2842860  44.8163280
  20.5428030  24.3509420  43.9066250  29.5944690  28.8550500  44.2771950
  29.5252970  27.9140440  44.1161080  30.3564550  28.9451910  44.8494520
  21.7851360  19.4605020  46.6028570  21.6054200  18.5630770  46.8831330
  21.3831440  20.0076890  47.2775520  30.6249860  21.6620880  44.5040880
  31.0014680  20.7892760  44.3914550  30.5269370  21.9979580  43.6131320
  24.7554870  20.0346510  39.9658320  24.8621620  20.9350240  40.2727080
  23.8447230  19.9864480  39.6752970  34.4073980  19.1571320  41.4369220
  35.2283600  18.6667890  41.4794700  34.4408060  19.7468980  42.1901060
  22.4038030  21.9565520  45.2110910  23.0848140  22.2203890  45.8298310
  22.0886080  21.1166390  45.5448920  26.5962600  23.0032880  44.2983500
  27.1040820  23.5013850  44.9388520  27.1275840  22.2268080  44.1222860
  38.6973530  21.1738070  48.0012850  37.9925700  21.5619780  47.4827960
  38.9631450  21.8688360  48.6033780  24.8798700  17.6431440  48.5646920
  24.8817140  18.1603830  47.7592820  24.0503010  17.1661620  48.5416850
  26.1301550  27.2826620  46.7420420  25.7970930  27.9095540  47.3841490
  26.3068230  27.8088500  45.9622090  34.6435460  21.0971700  44.2096760
  33.9391030  21.3856590  44.7899870  35.0047620  21.9071810  43.8496320
  24.5614030  19.3541400  46.5717370  24.9030840  20.1983450  46.2771240
  23.6229840  19.5025140  46.6882710  25.3420650  29.2507420  48.5569600
  25.9594650  29.9258500  48.2754050  24.4813770  29.6595400  48.4657100
  20.6352990  28.4407280  37.4376450  20.2580970  28.9294380  36.7061350
  20.8926060  29.1132560  38.0682980  37.7122380  20.5426490  44.6005970
  36.7647290  20.5765470  44.7321400  38.0372370  21.3565440  44.9855330
  28.2441920  16.8423670  42.8961960  28.5516900  16.2870560  42.1797460
  27.3142620  16.9768130  42.7134950  33.1942420  27.4620800  46.5152030
  33.6111210  27.2480910  45.6805490  33.9182240  27.7193590  47.0860650
  37.1404520  25.8608020  46.6068270  36.3123150  25.9301110  46.1318400
  37.7355000  26.4462330  46.1384100  34.1046530  22.6477340  47.5523140
  33.6917710  23.4731050  47.8063130  33.3722480  22.0622380  47.3599500
  26.2379320  25.4337240  42.4141810  25.8336320  24.7214490  41.9187710
  26.3242440  25.0890480  43.3029850  26.7061020  29.1204800  44.5781020
  26.4089310  28.5150270  43.8988800  27.6560840  29.1582110  44.4670380
  24.9507940  22.2080450  46.1940850  25.5022530  22.3175790  45.4194100
  25.4651450  22.5818050  46.9096080  34.7946630  32.6936670  48.2404120
  34.3177190  33.5008860  48.0476730  34.1108420  32.0415000  48.3930330
  25.7979450  28.8586490  51.2288820  24.9007980  29.0826460  51.4762220
  25.8232320  28.9821430  50.2800220  24.6250670  25.7299810  49.8046190
  24.4858440  26.6022610  50.1733590  23.7432030  25.3872620  49.6594130
  26.4231020  31.6721510  52.0131340  26.3946450  32.0764460  51.1459770
  26.2595990  30.7431870  51.8502940  36.4201810  16.9622420  35.4571120
  36.1074470  17.0549250  36.3570190  37.1814280  17.5403450  35.4068550
  22.9383950  24.3282220  39.9148460  22.8181550  25.0544310  39.3029730
  22.6284840  23.5585130  39.4376370  38.3745840  32.4548610  53.3095510
  38.8505560  32.9331500  53.9884590  38.9953000  32.3866100  52.5841010
  20.5769320  27.4997360  45.7217100  20.6549740  27.6346130  44.7772820
  21.1911000  26.7913250  45.9145220  21.8216950  29.1997550  42.1323280
  21.4145030  29.3412140  41.2776880  22.7129960  28.9157710  41.9294490
  37.7779090  29.6461460  50.4695520  37.9042150  29.4073340  49.5512700
  37.8200470  28.8146000  50.9417600  31.6395830  33.3489460  49.0390330
  32.1540500  33.2597470  49.8412760  30.7964910  33.6949160  49.3318240
  26.0938610  33.4143330  40.2445950  25.9181090  32.4978870  40.0313750
  25.2394350  33.7730620  40.4843750  37.6303100  21.6993920  51.4345260
  37.0147370  22.2073590  50.9060720  37.3099520  20.7992250  51.3771200
  20.6328840  28.5411530  48.2611560  20.7959880  28.0716890  47.4430930
  21.0981290  28.0335090  48.9260400  25.4047610  17.6717290  43.2972130
  24.9615760  18.4526830  42.9656650  25.9632600  17.9947180  44.0043070
  29.6917420  20.5385810  48.9007450  29.2296790  20.7468830  49.7127390
  29.2895530  19.7245160  48.5978120  34.6921930  21.7594760  50.0304110
  33.8415520  21.4600510  50.3513180  34.5323720  22.0036770  49.1187930
  31.7871640  23.2596510  52.1302900  32.1125050  22.4260260  51.7905130
  32.5751970  23.7825030  52.2781230  28.5206430  17.2927990  38.1777960
  27.8960610  17.2887860  38.9031270  28.4336550  16.4258950  37.7813930
  27.4423510  18.2164620  45.1561730  27.7395840  19.1227450  45.0753750
  27.9909070  17.7283400  44.5421300  25.1961830  22.7950860  41.0253380
  24.9702750  22.5788030  41.9300000  24.4154360  23.2279320  40.6799350
  27.6361040  23.6936440  51.6913650  27.5404640  22.7531170  51.5414050
  28.4793020  23.9151510  51.2961720  31.0324460  21.4377770  41.6547310
  31.4254030  21.7549970  40.8416000  31.3941310  20.5589650  41.7691830
  22.7671580  20.1050110  49.8447430  22.3734970  20.9525320  50.0520210
  22.0789980  19.4676480  50.0356070  29.3416630  20.1885080  52.9144170
  28.6514950  19.9957280  53.5490260  30.0848930  20.4719720  53.4468470
  20.0688630  18.0278570  43.8777510  19.7801680  18.5981430  44.5902490
  20.8134390  17.5483020  44.2408740  20.2558860  21.9698690  35.0880230
  20.1733530  22.9129450  35.2295220  19.9041920  21.8273600  34.2092580
  31.6179600  24.0283520  45.7498090  30.8860720  24.5370330  46.0988190
  31.2203940  23.2113500  45.4486870  28.0556990  20.7037720  44.1550580
  28.0593050  20.2627670  43.3055120  28.9508110  21.0255050  44.2622400
  23.9059370  20.5864210  43.1144790  23.5659420  21.0639440  43.8711840
  23.1436690  20.1329330  42.7545890  28.1177140  21.7049800  37.1457340
  28.2389960  21.6636280  38.0943160  27.7325650  22.5673950  36.9904070
  32.0805510  19.4817200  45.1621030  32.0978250  19.9325850  46.0062880
  31.8321090  18.5822840  45.3754470  27.1298640  24.0150940  36.5440640
  26.5615540  23.5669190  35.9176550  27.8387640  24.3743720  36.0105790
  35.5076260  16.8949380  51.0007410  35.8322030  16.1639040  51.5265390
  35.5432770  16.5763020  50.0988400  22.2067820  27.9162960  50.4207370
  21.8222610  27.2756630  51.0190330  22.5180010  28.6199080  50.9902100
  28.3564960  24.7639500  45.9015990  28.7235090  24.2898070  46.6477330
  28.1670020  25.6381070  46.2424330  21.2205450  19.5083190  42.0309460
  20.9352370  19.1438860  42.8688080  21.1584310  18.7763650  41.4172600
  26.1464330  23.8048140  48.2200200  25.8421400  24.6840120  48.4450560
  27.1010790  23.8647930  48.2557640  24.6746120  28.0109130  38.8167050
  23.9008380  27.4706750  38.6565770  25.4040750  27.4915740  38.4784810
  30.8944040  18.4012450  38.7522830  30.0808650  17.9025620  38.6768140
  30.7005990  19.2410700  38.3359180  30.8152900  27.0783550  50.4962440
  30.7490210  26.1579220  50.2420030  30.1858040  27.1758990  51.2107080
  24.7183520  27.6789510  42.4545860  25.2362190  26.8757770  42.4002750
  24.2667540  27.6168650  43.2962690  22.2028060  24.6450880  49.3671560
  21.8443000  25.3104730  49.9544900  21.9082620  23.8134430  49.7384180
  25.4041180  25.1035120  52.2511110  25.1041320  25.2492300  51.3538930
  26.1752420  24.5440410  52.1584500  30.7469630  29.9004120  50.2466240
  30.7614170  28.9685080  50.0285150  30.0394730  29.9863880  50.8856010
  36.9580840  26.5411460  49.5934820  36.2329030  27.1340240  49.3964210
  37.4856300  26.5335000  48.7948190  20.7136110  24.6442140  35.9906160
  21.5830960  24.9266940  36.2742080  20.2226430  25.4578010  35.8754970
  27.8770920  26.0315350  40.1114440  28.3333700  26.8420600  40.3374630
  27.5259130  25.7138490  40.9432930  30.1803530  31.5421690  47.3406740
  30.8245750  31.7481070  48.0180160  30.5432970  30.7810090  46.8877590
  23.7782700  16.3753000  40.5836960  23.6497330  16.3670900  41.5321880
  22.9544720  16.7136090  40.2327970  31.4535610  29.5454040  46.0584190
  32.0957840  28.8447200  46.1716360  31.9784960  30.3252480  45.8781080
  33.2273230  30.3448940  49.2620250  33.5629470  30.9315630  49.9398170
  32.3073570  30.2141650  49.4918040  21.0807360  33.8569520  36.5567790
  21.4405000  34.4558860  35.9025060  20.9399700  34.4029410  37.3302820
  20.7776630  18.1344120  50.0443660  20.0635150  18.3341040  50.6496270
  21.1971670  17.3583690  50.4158460  21.0649220  32.1224380  51.0310190
  21.1740340  31.1819120  50.8905580  20.4129780  32.3879130  50.3823920
  29.0561810  30.3940270  52.4308310  28.7358680  29.6749510  52.9754000
  28.3820170  31.0695340  52.5044370  22.6982620  26.4615610  38.1188220
  22.0910570  27.2014510  38.1283520  23.1731970  26.5514970  37.2926420
  32.2715410  20.6266430  47.7945110  32.6396230  19.8061640  48.1224680
  31.4113610  20.6868320  48.2100760  35.6377440  19.5823370  38.6032670
  35.0090600  19.6869040  37.8890900  35.1429360  19.8020150  39.3926550
  27.6061470  21.8609320  40.0190550  26.8977620  22.3295660  40.4604160
  27.8905950  21.2031330  40.6535740  29.2317400  23.2806020  48.0183080
  29.7302650  23.7551840  48.6834930  29.3740350  22.3569540  48.2253110
  31.6376900  18.5859980  41.4586340  31.5144680  18.6046110  40.5095850
  32.5861460  18.6338920  41.5784740  25.8096490  20.1694400  37.3941260
  26.6587020  20.6064550  37.3281450  25.4427760  20.4814660  38.2213320
  36.4384260  19.4973980  48.8611470  35.9357860  20.2379380  49.2005280
  37.2540920  19.8857980  48.5448260  24.7087910  26.4226760  35.8676790
  25.4751180  26.3108120  36.4302220  24.7862600  25.7264730  35.2153560
  23.4034670  23.8551830  36.5509680  23.4838260  22.9079340  36.6627080
  24.2954420  24.1858710  36.6570340  24.2049380  34.0047220  43.6544220
  24.9411860  33.4562680  43.9252790  24.5890300  34.8703230  43.5150210
  21.0894860  30.0720790  39.5285730  20.1634640  30.3141930  39.5191140
  21.5551290  30.8995050  39.4070480  23.2107660  33.1893290  52.8429800
  24.0120390  33.5105340  53.2565200  22.6959480  32.8288870  53.5649710
  32.0472290  29.2973160  52.7905210  31.4410450  29.3204760  52.0500960
  31.7426400  28.5656200  53.3272460  33.4772660  33.0253450  51.4014620
  34.4294410  32.9411470  51.3514860  33.3300880  33.6895160  52.0748410
  20.9305470  25.6766750  51.7865850  21.4344490  25.0974030  52.3582080
  20.1912890  25.9606980  52.3242220  27.9843410  27.0837740  51.3201370
  27.2189080  27.6522740  51.2356040  28.1659370  26.7913950  50.4269600
  35.1266760  28.8143070  51.8776390  35.8676230  29.1518830  51.3743850
  34.3639440  28.9835130  51.3246160  22.9628550  23.8196340  52.6815920
  23.0033890  23.5210210  53.5901150  23.8174050  24.2203950  52.5223440
  26.7406940  26.4191890  37.8419430  27.1623360  26.2531760  38.6850820
  26.8657780  25.6092120  37.3474570  24.9034360  22.3988440  50.6490410
  24.3730820  21.9079390  50.0213750  25.5722430  22.8272640  50.1148340
  33.8012420  26.8657900  50.4131600  34.2153440  27.0202980  51.2622020
  32.8663420  26.9913120  50.5757380  34.2734590  24.2054060  52.4170750
  34.8555360  23.4506380  52.3291230  34.4496360  24.7361500  51.6402230
  25.3906660  19.3650810  50.7287700  25.2963530  18.7471560  50.0038570
  24.8104050  20.0917100  50.5017610  28.1568100  17.9224050  47.7615090
  27.7085400  17.9448310  46.9160640  27.5233300  17.5243070  48.3585390
  28.5627650  26.8178380  48.3827530  28.9815760  27.6611110  48.2103770
  27.6436280  26.9550420  48.1534310  30.8991550  24.5494560  49.7665370
  31.0187760  23.9535700  50.5060210  31.7585550  24.5864250  49.3466670
  33.2379450  25.1031750  48.3427880  32.7114670  25.6274370  47.7393020
  33.5810790  25.7359140  48.9737610  25.6365840  22.4925120  34.7877590
  25.4354900  21.6292480  35.1490930  25.4657890  22.4058480  33.8499190
  26.4135070  33.1231390  49.4985260  25.8756160  33.8477450  49.1793960
  26.6669030  32.6461730  48.7082600  27.6660320  21.0915910  51.0241190
  28.2560010  20.7831760  51.7119010  26.8480560  20.6195660  51.1801090
  32.4853750  20.7081720  51.2574210  31.7969270  20.0463260  51.1924200
  33.2059770  20.2619990  51.7022670  33.1154150  17.3033350  37.3164470
  33.3956440  16.4601250  37.6723890  32.3419880  17.5356460  37.8303220
  24.4348640  19.5925740  34.7755470  24.7374540  19.5993170  33.8674620
  25.1743230  19.2423600  35.2723130  29.2697280  34.3582600  49.7571910
  29.1955980  35.2617740  50.0644280  28.3676120  34.0394500  49.7293980
  27.6533570  18.5360360  35.7611670  27.3055570  17.8584350  35.1814120
  27.8546340  18.0749870  36.5755060  23.4578770  28.8968160  35.6085270
  23.8953640  29.4397830  36.2642850  23.9426500  28.0715110  35.6181610
  20.6724570  31.6857190  43.0605530  21.0027580  30.8178250  42.8284170
  21.1015570  31.8915710  43.8910490  25.2686490  30.0166200  40.7207500
  24.9682030  29.8931170  41.6211410  25.1623980  29.1574790  40.3123230
  21.1614780  32.5527780  45.7987160  20.7245770  32.7328580  46.6311310
  21.7292460  33.3102400  45.6568880  36.7976960  32.0544780  50.0864470
  36.1978950  32.1137340  49.3428390  36.9270860  31.1149760  50.2161320
  20.9939210  25.0648010  42.1576040  20.3388050  24.7959650  41.5135740
  21.8317160  24.9552490  41.7078020  35.4828600  28.7796760  48.1840630
  34.6688440  29.2093920  48.4466420  35.8902800  29.3915170  47.5709680
  33.9429650  19.8589300  36.3794530  34.3614530  19.6720280  35.5391190
  33.6365710  19.0068350  36.6897460  22.0315140  25.4500580  46.6979380
  22.3988180  25.3627980  47.5775400  21.4625960  24.6867130  46.5986240
  36.8319000  23.9184960  49.7109850  36.6005090  23.6897710  48.8107800
  37.0923550  24.8384510  49.6654740  21.5831140  22.3609670  50.6037800
  20.6887190  22.3276430  50.9431510  22.1228690  22.5596460  51.3689050
  35.2707070  19.1441390  52.4889550  36.1477250  19.1524790  52.8723550
  35.2827910  18.4072230  51.8781900  20.2077290  22.2746940  38.1001370
  19.3041370  22.5377140  37.9253030  20.6917910  22.5458110  37.3201330
  36.7170340  22.9970930  43.3777570  37.2407820  22.5033580  42.7467740
  37.3029760  23.1321290  44.1225140  36.8960060  23.0810800  46.8997120
  35.9462770  23.0474340  47.0142110  37.0773070  23.9910910  46.6646890
  22.7504500  21.3312480  36.0095750  23.4596200  20.9095700  35.5243030
  22.0344440  21.3987710  35.3779100  22.3978660  17.3851810  35.0498400
  23.1206790  17.9260750  35.3679620  22.6703180  17.1115230  34.1739940
  36.2070310  22.2544280  39.3169980  36.7029430  22.0215150  40.1018860
  36.0086380  21.4156120  38.9007620  22.0870850  16.6358000  44.9521020
  22.7347040  16.0855380  44.5116180  22.5072690  16.8901150  45.7736830
  37.6357470  20.8905230  41.8507660  37.5256750  20.7361270  42.7889930
  38.3965060  20.3626170  41.6083070  35.9823190  16.8299360  48.3090660
  36.6195410  17.4433500  48.6749850  36.1298080  16.8660020  47.3639890
  38.5247740  18.7213150  35.0913800  39.4497050  18.5894330  34.8832090
  38.5023530  18.8005970  36.0450250  38.5986230  19.4923810  37.7170510
  37.8037730  19.4268930  38.2463420  38.8029510  20.4274450  37.7055860
  21.8402850  16.7913670  47.6946340  21.4917670  17.2477490  48.4604520
  21.5090550  15.8970800  47.7768770  23.4467220  29.9633270  51.8599530
  23.4036850  29.5926180  52.7413990  23.5778230  30.9010840  52.0001350
  27.1473250  31.5192860  47.4609250  26.9064610  31.7867420  46.5739770
  28.0875890  31.6898590  47.5160110  29.3527670  17.9825550  51.2165760
  29.2916560  18.5747380  51.9661170  30.2928050  17.8751510  51.0716020
  31.9902230  17.6395610  50.8558050  32.6042640  17.9574900  50.1939130
  32.5351790  17.1544200  51.4753910  38.4077410  33.5387240  48.2619890
  37.9135690  33.9356110  47.5447020  37.7990700  32.9136450  48.6557170
  22.5123490  16.3189870  50.9697110  23.0606480  16.1377920  50.2063220
  22.5778800  15.5283980  51.5053420  23.2855250  32.9095520  48.9797310
  22.6915570  32.7780220  49.7187350  23.2779090  32.0733660  48.5139410
  32.7310270  16.2027750  47.1827340  31.8570110  16.5362860  46.9800270
  32.6221020  15.7300930  48.0079210  33.6382250  18.4098620  48.5669060
  33.3095610  17.5950380  48.1870790  34.5864550  18.3668430  48.4434750
  22.9167480  30.2753900  47.9305350  22.1901540  29.6559190  47.8631300
  22.9776630  30.6694510  47.0603430  26.5212580  32.4898900  44.7154760
  27.0377600  31.8786260  44.1903020  27.1709960  32.9927680  45.2065770
  29.2608080  33.3807390  45.5423740  29.5485890  33.1261690  44.6656750
  29.7731300  32.8284750  46.1329310  30.4785090  17.1197590  46.1220250
  29.6956880  17.5943090  46.4017010  30.1848020  16.2152420  46.0133430
  35.0306160  17.8220690  44.1669340  35.4714250  17.7665790  43.3190940
  34.7613750  18.7378700  44.2379520  36.8944730  17.4535930  42.1778160
  36.8333130  16.5097150  42.0309180  37.6736760  17.5616020  42.7231620
  21.1997480  33.5928290  41.1402110  21.0319520  32.9598970  41.8384000
  20.3331990  33.7987690  40.7896300  21.8225500  17.4245070  38.6433970
  22.5804860  17.5373950  38.0698000  21.3602670  18.2614270  38.5977400
  28.3639310  19.5384340  41.6336280  27.5513820  19.1641230  41.2932160
  28.8680950  18.7829420  41.9357470  32.8664290  16.2026790  42.8719350
  33.4693660  16.7747000  43.3467870  32.1257280  16.7666230  42.6493250
  36.0098890  16.6048350  38.1459630  36.2049520  17.5031800  38.4127060
  35.2228760  16.3735430  38.6392580  22.8060180  32.2861520  38.5852250
  22.2807800  32.6669550  37.8814210  22.7304760  32.9112290  39.3061960
  24.1950650  17.9509120  37.1835940  24.7243410  17.1638920  37.0543890
  24.8278970  18.6300310  37.4171470  26.3888490  17.6884260  40.2381330
  25.7591230  16.9871570  40.4051460  25.8493630  18.4488390  40.0214490
  29.3280440  34.3023490  52.9091940  30.2547750  34.0667760  52.9527900
  29.3130870  35.1295490  52.4277970  26.5144050  16.9668240  52.6733820
  26.2328320  17.4701840  51.9094640  26.8963750  16.1689990  52.3075950
  25.4053150  34.2343900  37.4601500  26.1371970  33.9503180  36.9125390
  25.6646820  33.9957180  38.3500880  24.5667940  30.3508630  37.4647830
  23.9376820  30.8193730  38.0133660  24.6815770  29.5057850  37.8994020
  33.1159510  16.3821820  53.2514290  33.0024960  16.7016430  54.1465810
  33.9329250  16.7834330  52.9551570  35.8958000  33.5293350  52.7332980
  36.6883320  33.0342580  52.5258940  36.1891150  34.2083490  53.3408590
  32.0217660  24.4014290  23.6149030  31.9411710  23.4868900  23.3440740
  31.6082080  24.8981360  22.9088740  24.1701530  26.4913120  26.3734060
  23.3386410  26.2361830  26.7730570  24.7782510  26.5623890  27.1091980
  24.1502790  30.5253210  26.5692080  24.4530830  29.6350950  26.3902300
  24.8946380  31.0823430  26.3414330  22.5793480  21.4515010  20.1576450
  21.6910180  21.7930980  20.0556330  22.8634670  21.2515330  19.2657280
  20.5426490  24.0520660  26.0416150  21.1142600  23.2842860  26.0419790
  20.5428030  24.3509420  25.1322760  21.7851360  19.4605020  27.8285080
  21.6054200  18.5630770  28.1087840  21.3831440  20.0076890  28.5032030
  30.6249860  21.6620880  25.7297390  31.0014680  20.7892760  25.6171060
  30.5269370  21.9979580  24.8387830  24.7554870  20.0346510  21.1914830
  24.8621620  20.9350240  21.4983590  23.8447230  19.9864480  20.9009480
  34.4073980  19.1571320  22.6625730  35.2283600  18.6667890  22.7051210
  34.4408060  19.7468980  23.4157570  22.4038030  21.9565520  26.4367420
  23.0848140  22.2203890  27.0554820  22.0886080  21.1166390  26.7705430
  26.5962600  23.0032880  25.5240010  27.1040820  23.5013850  26.1645030
  27.1275840  22.2268080  25.3479370  38.6973530  21.1738070  29.2269360
  37.9925700  21.5619780  28.7084470  38.9631450  21.8688360  29.8290290
  24.8798700  17.6431440  29.7903430  24.8817140  18.1603830  28.9849330
  24.0503010  17.1661620  29.7673360  26.1301550  27.2826620  27.9676930
  25.7970930  27.9095540  28.6098000  26.3068230  27.8088500  27.1878600
  34.6435460  21.0971700  25.4353270  33.9391030  21.3856590  26.0156380
  35.0047620  21.9071810  25.0752830  24.5614030  19.3541400  27.7973880
  24.9030840  20.1983450  27.5027750  23.6229840  19.5025140  27.9139220
  25.3420650  29.2507420  29.7826110  25.9594650  29.9258500  29.5010560
  24.4813770  29.6595400  29.6913610  20.6352990  28.4407280  18.6632960
  20.2580970  28.9294380  17.9317860  20.8926060  29.1132560  19.2939490
  37.7122380  20.5426490  25.8262480  36.7647290  20.5765470  25.9577910
  38.0372370  21.3565440  26.2111840  28.2441920  16.8423670  24.1218470
  28.5516900  16.2870560  23.4053970  27.3142620  16.9768130  23.9391460
  30.6322680  24.9072500  20.8578590  29.7051960  24.8409880  21.0867060
  30.7847500  25.8452630  20.7433830  30.6191760  21.1789500  17.8545750
  29.6795430  21.3403460  17.9398210  30.9375020  21.8975180  17.3081740
  34.1046530  22.6477340  28.7779650  33.6917710  23.4731050  29.0319640
  33.3722480  22.0622380  28.5856010  26.2379320  25.4337240  23.6398320
  25.8336320  24.7214490  23.1444220  26.3242440  25.0890480  24.5286360
  24.9507940  22.2080450  27.4197360  25.5022530  22.3175790  26.6450610
  25.4651450  22.5818050  28.1352590  32.8384670  25.7079610  18.3686590
  33.2777950  24.8702040  18.2224410  33.5513090  26.3409010  18.4550730
  24.6250670  25.7299810  31.0302700  24.4858440  26.6022610  31.3990100
  23.7432030  25.3872620  30.8850640  36.4201810  16.9622420  16.6827630
  36.1074470  17.0549250  17.5826700  37.1814280  17.5403450  16.6325060
  22.9383950  24.3282220  21.1404970  22.8181550  25.0544310  20.5286240
  22.6284840  23.5585130  20.6632880  20.5769320  27.4997360  26.9473610
  20.6549740  27.6346130  26.0029330  21.1911000  26.7913250  27.1401730
  21.8216950  29.1997550  23.3579790  21.4145030  29.3412140  22.5033390
  22.7129960  28.9157710  23.1551000  33.6150230  33.6344800  19.6930840
  33.4551370  33.3447740  20.5912670  33.4496940  32.8584930  19.1576070
  26.0938610  33.4143330  21.4702460  25.9181090  32.4978870  21.2570260
  25.2394350  33.7730620  21.7100260  33.3176360  31.1432360  18.2528840
  32.6241520  31.1409650  17.5931120  34.0599220  30.7191680  17.8223010
  20.6328840  28.5411530  29.4868070  20.7959880  28.0716890  28.6687440
  21.0981290  28.0335090  30.1516910  25.4047610  17.6717290  24.5228640
  24.9615760  18.4526830  24.1913160  25.9632600  17.9947180  25.2299580
  29.6917420  20.5385810  30.1263960  29.2296790  20.7468830  30.9383900
  29.2895530  19.7245160  29.8234630  28.5206430  17.2927990  19.4034470
  27.8960610  17.2887860  20.1287780  28.4336550  16.4258950  19.0070440
  27.4423510  18.2164620  26.3818240  27.7395840  19.1227450  26.3010260
  27.9909070  17.7283400  25.7677810  25.1961830  22.7950860  22.2509890
  24.9702750  22.5788030  23.1556510  24.4154360  23.2279320  21.9055860
  32.4259590  22.8014230  20.8500540  31.8268480  23.5250030  20.6664160
  32.9739200  22.7391010  20.0676990  27.6361040  23.6936440  32.9170160
  27.5404640  22.7531170  32.7670560  28.4793020  23.9151510  32.5218230
  31.0324460  21.4377770  22.8803820  31.4254030  21.7549970  22.0672510
  31.3941310  20.5589650  22.9948340  22.7671580  20.1050110  31.0703940
  22.3734970  20.9525320  31.2776720  22.0789980  19.4676480  31.2612580
  29.3416630  20.1885080  34.1400680  28.6514950  19.9957280  34.7746770
  30.0848930  20.4719720  34.6724980  20.0688630  18.0278570  25.1034020
  19.7801680  18.5981430  25.8159000  20.8134390  17.5483020  25.4665250
  20.2558860  21.9698690  16.3136740  20.1733530  22.9129450  16.4551730
  19.9041920  21.8273600  15.4349090  28.0556990  20.7037720  25.3807090
  28.0593050  20.2627670  24.5311630  28.9508110  21.0255050  25.4878910
  23.9059370  20.5864210  24.3401300  23.5659420  21.0639440  25.0968350
  23.1436690  20.1329330  23.9802400  28.1177140  21.7049800  18.3713850
  28.2389960  21.6636280  19.3199670  27.7325650  22.5673950  18.2160580
  32.0805510  19.4817200  26.3877540  32.0978250  19.9325850  27.2319390
  31.8321090  18.5822840  26.6010980  27.1298640  24.0150940  17.7697150
  26.5615540  23.5669190  17.1433060  27.8387640  24.3743720  17.2362300
  35.5076260  16.8949380  32.2263920  35.8322030  16.1639040  32.7521900
  35.5432770  16.5763020  31.3244910  22.2067820  27.9162960  31.6463880
  21.8222610  27.2756630  32.2446840  22.5180010  28.6199080  32.2158610
  28.3564960  24.7639500  27.1272500  28.7235090  24.2898070  27.8733840
  28.1670020  25.6381070  27.4680840  21.2205450  19.5083190  23.2565970
  20.9352370  19.1438860  24.0944590  21.1584310  18.7763650  22.6429110
  26.1464330  23.8048140  29.4456710  25.8421400  24.6840120  29.6707070
  27.1010790  23.8647930  29.4814150  24.6746120  28.0109130  20.0423560
  23.9008380  27.4706750  19.8822280  25.4040750  27.4915740  19.7041320
  30.8944040  18.4012450  19.9779340  30.0808650  17.9025620  19.9024650
  30.7005990  19.2410700  19.5615690  33.6092430  22.7732100  18.2741500
  34.4972050  23.0849330  18.0992840  33.5797520  21.9004350  17.8822080
  24.7183520  27.6789510  23.6802370  25.2362190  26.8757770  23.6259260
  24.2667540  27.6168650  24.5219200  29.6053020  28.9455790  18.9529670
  29.9468720  29.6898020  18.4572990  28.7765730  29.2586910  19.3154500
  22.2028060  24.6450880  30.5928070  21.8443000  25.3104730  31.1801410
  21.9082620  23.8134430  30.9640690  25.4041180  25.1035120  33.4767620
  25.1041320  25.2492300  32.5795440  26.1752420  24.5440410  33.3841010
  35.8806700  24.0843940  17.7421360  35.7970420  24.5158160  16.8917800
  36.6000890  24.5442290  18.1748180  36.9093950  30.9386200  20.4703490
  36.2670110  30.2841820  20.7447210  36.5224610  31.3441290  19.6944160
  28.5743710  29.0269320  21.7245590  29.2614840  29.5738530  22.1053180
  27.7876130  29.5710050  21.7595200  20.7136110  24.6442140  17.2162670
  21.5830960  24.9266940  17.4998590  20.2226430  25.4578010  17.1011480
  27.8770920  26.0315350  21.3370950  28.3333700  26.8420600  21.5631140
  27.5259130  25.7138490  22.1689440  23.7782700  16.3753000  21.8093470
  23.6497330  16.3670900  22.7578390  22.9544720  16.7136090  21.4584480
  35.2991330  29.8302660  17.0079840  35.0728910  29.1133100  17.6004480
  34.9087530  29.5815100  16.1701590  21.0807360  33.8569520  17.7824300
  21.4405000  34.4558860  17.1281570  20.9399700  34.4029410  18.5559330
  20.7776630  18.1344120  31.2700170  20.0635150  18.3341040  31.8752780
  21.1971670  17.3583690  31.6414970  34.8807580  27.7474600  18.6694000
  34.5929280  28.2087290  19.4571880  35.6759750  27.2872370  18.9378220
  21.0649220  32.1224380  32.2566700  21.1740340  31.1819120  32.1162090
  20.4129780  32.3879130  31.6080430  27.0975980  31.2400720  18.5997970
  27.0886080  31.9730410  17.9842480  26.1774340  30.9932300  18.6924930
  22.6982620  26.4615610  19.3444730  22.0910570  27.2014510  19.3540030
  23.1731970  26.5514970  18.5182930  32.2715410  20.6266430  29.0201620
  32.6396230  19.8061640  29.3481190  31.4113610  20.6868320  29.4357270
  35.6377440  19.5823370  19.8289180  35.0090600  19.6869040  19.1147410
  35.1429360  19.8020150  20.6183060  30.0835580  31.3028960  17.2623160
  30.1847560  31.0992950  16.3325140  29.1837320  31.0487240  17.4670940
  27.6061470  21.8609320  21.2447060  26.8977620  22.3295660  21.6860670
  27.8905950  21.2031330  21.8792250  29.2317400  23.2806020  29.2439590
  29.7302650  23.7551840  29.9091440  29.3740350  22.3569540  29.4509620
  31.6376900  18.5859980  22.6842850  31.5144680  18.6046110  21.7352360
  32.5861460  18.6338920  22.8041250  28.7253690  33.8215280  21.9570830
  28.9795190  33.7836670  21.0350200  27.7766170  33.6948610  21.9499080
  25.8096490  20.1694400  18.6197770  26.6587020  20.6064550  18.5537960
  25.4427760  20.4814660  19.4469830  36.4384260  19.4973980  30.0867980
  35.9357860  20.2379380  30.4261790  37.2540920  19.8857980  29.7704770
  34.7306270  24.7407160  23.5329340  33.7896410  24.7557390  23.7077030
  35.0450340  23.9543120  23.9789640  24.7087910  26.4226760  17.0933300
  25.4751180  26.3108120  17.6558730  24.7862600  25.7264730  16.4410070
  23.4034670  23.8551830  17.7766190  23.4838260  22.9079340  17.8883590
  24.2954420  24.1858710  17.8826850  21.0894860  30.0720790  20.7542240
  20.1634640  30.3141930  20.7447650  21.5551290  30.8995050  20.6326990
  23.2107660  33.1893290  34.0686310  24.0120390  33.5105340  34.4821710
  22.6959480  32.8288870  34.7906220  27.3151690  33.1777530  16.7026300
  28.1080300  33.4666360  16.2508090  26.7956040  32.7469700  16.0238780
  36.3681860  32.4047660  18.1263040  36.0823370  31.9912800  17.3117220
  36.1701410  33.3335370  18.0063560  20.9305470  25.6766750  33.0122360
  21.4344490  25.0974030  33.5838590  20.1912890  25.9606980  33.5498730
  27.8329090  28.3980940  16.5668650  27.7279730  27.7833290  17.2930030
  27.6653310  27.8746830  15.7831660  31.0731820  27.4600970  17.1710640
  30.5241920  27.9070270  17.8153380  31.6951080  26.9550220  17.6948310
  22.9628550  23.8196340  33.9072430  23.0033890  23.5210210  34.8157660
  23.8174050  24.2203950  33.7479950  26.7406940  26.4191890  19.0675940
  27.1623360  26.2531760  19.9107330  26.8657780  25.6092120  18.5731080
  24.9034360  22.3988440  31.8746920  24.3730820  21.9079390  31.2470260
  25.5722430  22.8272640  31.3404850  29.2534580  25.4429500  16.3153040
  29.7740240  24.7278520  15.9494190  29.9002980  26.0815370  16.6153550
  25.3906660  19.3650810  31.9544210  25.2963530  18.7471560  31.2295080
  24.8104050  20.0917100  31.7274120  28.1568100  17.9224050  28.9871600
  27.7085400  17.9448310  28.1417150  27.5233300  17.5243070  29.5841900
  25.6365840  22.4925120  16.0134100  25.4354900  21.6292480  16.3747440
  25.4657890  22.4058480  15.0755700  27.6660320  21.0915910  32.2497700
  28.2560010  20.7831760  32.9375520  26.8480560  20.6195660  32.4057600
  32.4853750  20.7081720  32.4830720  31.7969270  20.0463260  32.4180710
  33.2059770  20.2619990  32.9279180  33.1154150  17.3033350  18.5420980
  33.3956440  16.4601250  18.8980400  32.3419880  17.5356460  19.0559730
  24.4348640  19.5925740  16.0011980  24.7374540  19.5993170  15.0931130
  25.1743230  19.2423600  16.4979640  27.6533570  18.5360360  16.9868180
  27.3055570  17.8584350  16.4070630  27.8546340  18.0749870  17.8011570
  29.8182610  33.5241110  18.6054780  30.7133400  33.8626080  18.6273540
  29.8500240  32.8020520  17.9779060  23.4578770  28.8968160  16.8341780
  23.8953640  29.4397830  17.4899360  23.9426500  28.0715110  16.8438120
  20.6724570  31.6857190  24.2862040  21.0027580  30.8178250  24.0540680
  21.1015570  31.8915710  25.1167000  25.2686490  30.0166200  21.9464010
  24.9682030  29.8931170  22.8467920  25.1623980  29.1574790  21.5379740
  21.1614780  32.5527780  27.0243670  20.7245770  32.7328580  27.8567820
  21.7292460  33.3102400  26.8825390  38.0378410  29.7962600  16.6490690
  37.2071370  29.8639250  17.1197920  38.2150240  30.6866720  16.3457550
  37.4934870  26.5410080  19.1524890  38.2553780  27.1106730  19.2584580
  37.5089240  25.9737280  19.9233200  20.9939210  25.0648010  23.3832550
  20.3388050  24.7959650  22.7392250  21.8317160  24.9552490  22.9334530
  37.5454040  26.8344450  16.3097410  37.8202880  27.7423330  16.1816630
  37.3564780  26.7706980  17.2459400  33.9429650  19.8589300  17.6051040
  34.3614530  19.6720280  16.7647700  33.6365710  19.0068350  17.9153970
  37.4419380  24.7713440  21.3026840  37.0662980  24.0041370  20.8708130
  36.7122500  25.1536140  21.7901770  22.0315140  25.4500580  27.9235890
  22.3988180  25.3627980  28.8031910  21.4625960  24.6867130  27.8242750
  21.5831140  22.3609670  31.8294310  20.6887190  22.3276430  32.1688020
  22.1228690  22.5596460  32.5945560  35.2707070  19.1441390  33.7146060
  36.1477250  19.1524790  34.0980060  35.2827910  18.4072230  33.1038410
  20.2077290  22.2746940  19.3257880  19.3041370  22.5377140  19.1509540
  20.6917910  22.5458110  18.5457840  36.7170340  22.9970930  24.6034080
  37.2407820  22.5033580  23.9724250  37.3029760  23.1321290  25.3481650
  22.7504500  21.3312480  17.2352260  23.4596200  20.9095700  16.7499540
  22.0344440  21.3987710  16.6035610  22.3978660  17.3851810  16.2754910
  23.1206790  17.9260750  16.5936130  22.6703180  17.1115230  15.3996450
  36.2070310  22.2544280  20.5426490  36.7029430  22.0215150  21.3275370
  36.0086380  21.4156120  20.1264130  22.0870850  16.6358000  26.1777530
  22.7347040  16.0855380  25.7372690  22.5072690  16.8901150  26.9993340
  37.6357470  20.8905230  23.0764170  37.5256750  20.7361270  24.0146440
  38.3965060  20.3626170  22.8339580  35.9823190  16.8299360  29.5347170
  36.6195410  17.4433500  29.9006360  36.1298080  16.8660020  28.5896400
  38.5247740  18.7213150  16.3170310  39.4497050  18.5894330  16.1088600
  38.5023530  18.8005970  17.2706760  38.5986230  19.4923810  18.9427020
  37.8037730  19.4268930  19.4719930  38.8029510  20.4274450  18.9312370
  21.8402850  16.7913670  28.9202850  21.4917670  17.2477490  29.6861030
  21.5090550  15.8970800  29.0025280  23.4467220  29.9633270  33.0856040
  23.4036850  29.5926180  33.9670500  23.5778230  30.9010840  33.2257860
  29.3527670  17.9825550  32.4422270  29.2916560  18.5747380  33.1917680
  30.2928050  17.8751510  32.2972530  31.9902230  17.6395610  32.0814560
  32.6042640  17.9574900  31.4195640  32.5351790  17.1544200  32.7010420
  22.5123490  16.3189870  32.1953620  23.0606480  16.1377920  31.4319730
  22.5778800  15.5283980  32.7309930  32.7310270  16.2027750  28.4083850
  31.8570110  16.5362860  28.2056780  32.6221020  15.7300930  29.2335720
  33.6382250  18.4098620  29.7925570  33.3095610  17.5950380  29.4127300
  34.5864550  18.3668430  29.6691260  22.9167480  30.2753900  29.1561860
  22.1901540  29.6559190  29.0887810  22.9776630  30.6694510  28.2859940
  30.4785090  17.1197590  27.3476760  29.6956880  17.5943090  27.6273520
  30.1848020  16.2152420  27.2389940  35.0306160  17.8220690  25.3925850
  35.4714250  17.7665790  24.5447450  34.7613750  18.7378700  25.4636030
  36.8944730  17.4535930  23.4034670  36.8333130  16.5097150  23.2565690
  37.6736760  17.5616020  23.9488130  21.1997480  33.5928290  22.3658620
  21.0319520  32.9598970  23.0640510  20.3331990  33.7987690  22.0152810
  21.8225500  17.4245070  19.8690480  22.5804860  17.5373950  19.2954510
  21.3602670  18.2614270  19.8233910  28.3639310  19.5384340  22.8592790
  27.5513820  19.1641230  22.5188670  28.8680950  18.7829420  23.1613980
  32.8664290  16.2026790  24.0975860  33.4693660  16.7747000  24.5724380
  32.1257280  16.7666230  23.8749760  36.0098890  16.6048350  19.3716140
  36.2049520  17.5031800  19.6383570  35.2228760  16.3735430  19.8649090
  22.8060180  32.2861520  19.8108760  22.2807800  32.6669550  19.1070720
  22.7304760  32.9112290  20.5318470  24.1950650  17.9509120  18.4092450
  24.7243410  17.1638920  18.2800400  24.8278970  18.6300310  18.6427980
  26.3888490  17.6884260  21.4637840  25.7591230  16.9871570  21.6307970
  25.8493630  18.4488390  21.2471000  37.5625500  33.8449060  21.1322700
  37.7377690  33.1586800  20.4883620  36.8647070  34.3696110  20.7399370
  26.5144050  16.9668240  33.8990330  26.2328320  17.4701840  33.1351150
  26.8963750  16.1689990  33.5332460  25.4053150  34.2343900  18.6858010
  26.1371970  33.9503180  18.1381900  25.6646820  33.9957180  19.5757390
  24.5667940  30.3508630  18.6904340  23.9376820  30.8193730  19.2390170
  24.6815770  29.5057850  19.1250530  33.1159510  16.3821820  34.4770800
  33.0024960  16.7016430  35.3722320  33.9329250  16.7834330  34.1808080
  32.0217660  24.4014290   4.8405540  31.9411710  23.4868900   4.5697250
  31.6082080  24.8981360   4.1345250  30.1535700  26.1793310   6.7214810
  29.3777800  25.6993750   7.0113380  30.8048630  25.4998960   6.5470970
  24.1701530  26.4913120   7.5990570  23.3386410  26.2361830   7.9987080
  24.7782510  26.5623890   8.3348490  34.1743130  30.5853500   5.5013940
  33.7124660  29.8140740   5.8301110  34.9868680  30.6119570   6.0066390
  24.1502790  30.5253210   7.7948590  24.4530830  29.6350950   7.6158810
  24.8946380  31.0823430   7.5670840  20.5426490  24.0520660   7.2672660
  21.1142600  23.2842860   7.2676300  20.5428030  24.3509420   6.3579270
  30.4006440  32.8711510   5.1217930  29.7817880  33.3269010   4.5512370
  31.2558220  33.0262970   4.7207630  29.5944690  28.8550500   6.7284970
  29.5252970  27.9140440   6.5674100  30.3564550  28.9451910   7.3007540
  21.7851360  19.4605020   9.0541590  21.6054200  18.5630770   9.3344350
  21.3831440  20.0076890   9.7288540  30.6249860  21.6620880   6.9553900
  31.0014680  20.7892760   6.8427570  30.5269370  21.9979580   6.0644340
  24.7554870  20.0346510   2.4171340  24.8621620  20.9350240   2.7240100
  23.8447230  19.9864480   2.1265990  34.4073980  19.1571320   3.8882240
  35.2283600  18.6667890   3.9307720  34.4408060  19.7468980   4.6414080
  22.4038030  21.9565520   7.6623930  23.0848140  22.2203890   8.2811330
  22.0886080  21.1166390   7.9961940  26.5962600  23.0032880   6.7496520
  27.1040820  23.5013850   7.3901540  27.1275840  22.2268080   6.5735880
  38.6973530  21.1738070  10.4525870  37.9925700  21.5619780   9.9340980
  38.9631450  21.8688360  11.0546800  24.8798700  17.6431440  11.0159940
  24.8817140  18.1603830  10.2105840  24.0503010  17.1661620  10.9929870
  31.2669790  27.7550750   2.5149840  30.6487060  28.2200200   1.9512560
  31.7793040  28.4478230   2.9319350  26.1301550  27.2826620   9.1933440
  25.7970930  27.9095540   9.8354510  26.3068230  27.8088500   8.4135110
  34.6435460  21.0971700   6.6609780  33.9391030  21.3856590   7.2412890
  35.0047620  21.9071810   6.3009340  24.5614030  19.3541400   9.0230390
  24.9030840  20.1983450   8.7284260  23.6229840  19.5025140   9.1395730
  25.3420650  29.2507420  11.0082620  25.9594650  29.9258500  10.7267070
  24.4813770  29.6595400  10.9170120  36.2598240  30.7146830   8.9237260
  35.5761760  31.3845940   8.9153930  36.7992530  30.9127480   8.1582120
  37.7122380  20.5426490   7.0518990  36.7647290  20.5765470   7.1834420
  38.0372370  21.3565440   7.4368350  28.2441920  16.8423670   5.3474980
  28.5516900  16.2870560   4.6310480  27.3142620  16.9768130   5.1647970
  33.7956980  32.5590960   7.6382440  33.8084140  32.1553250   6.7704700
  33.2432200  33.3338250   7.5343870  35.0902400  29.2807180   2.7272610
  34.9798730  28.3381510   2.8522030  35.0870650  29.6422820   3.6135370
  33.1942420  27.4620800   8.9665050  33.6111210  27.2480910   8.1318510
  33.9182240  27.7193590   9.5373670  30.6322680  24.9072500   2.0835100
  29.7051960  24.8409880   2.3123570  30.7847500  25.8452630   1.9690340
  37.1404520  25.8608020   9.0581290  36.3123150  25.9301110   8.5831420
  37.7355000  26.4462330   8.5897120  34.6619970  26.4692800   2.5870350
  34.0432390  26.1312350   1.9396650  34.6444420  25.8252560   3.2949540
  34.1046530  22.6477340  10.0036160  33.6917710  23.4731050  10.2576150
  33.3722480  22.0622380   9.8112520  26.2379320  25.4337240   4.8654830
  25.8336320  24.7214490   4.3700730  26.3242440  25.0890480   5.7542870
  26.7061020  29.1204800   7.0294040  26.4089310  28.5150270   6.3501820
  27.6560840  29.1582110   6.9183400  24.9507940  22.2080450   8.6453870
  25.5022530  22.3175790   7.8707120  25.4651450  22.5818050   9.3609100
  34.7946630  32.6936670  10.6917140  34.3177190  33.5008860  10.4989750
  34.1108420  32.0415000  10.8443350  25.7979450  28.8586490  13.6801840
  24.9007980  29.0826460  13.9275240  25.8232320  28.9821430  12.7313240
  24.6250670  25.7299810  12.2559210  24.4858440  26.6022610  12.6246610
  23.7432030  25.3872620  12.1107150  30.9480050  30.6475680   3.5624340
  31.3875960  31.3900010   3.1479730  30.8866940  30.8902250   4.4863300
  26.4231020  31.6721510  14.4644360  26.3946450  32.0764460  13.5972790
  26.2595990  30.7431870  14.3015960  22.9383950  24.3282220   2.3661480
  22.8181550  25.0544310   1.7542750  22.6284840  23.5585130   1.8889390
  38.3745840  32.4548610  15.7608530  38.8505560  32.9331500  16.4397610
  38.9953000  32.3866100  15.0354030  20.5769320  27.4997360   8.1730120
  20.6549740  27.6346130   7.2285840  21.1911000  26.7913250   8.3658240
  21.8216950  29.1997550   4.5836300  21.4145030  29.3412140   3.7289900
  22.7129960  28.9157710   4.3807510  37.7779090  29.6461460  12.9208540
  37.9042150  29.4073340  12.0025720  37.8200470  28.8146000  13.3930620
  31.6395830  33.3489460  11.4903350  32.1540500  33.2597470  12.2925780
  30.7964910  33.6949160  11.7831260  26.0938610  33.4143330   2.6958970
  25.9181090  32.4978870   2.4826770  25.2394350  33.7730620   2.9356770
  32.8826290  32.7695070   3.5533840  33.3383240  31.9884450   3.8672460
  33.2218810  33.4801890   4.0975020  37.6303100  21.6993920  13.8858280
  37.0147370  22.2073590  13.3573740  37.3099520  20.7992250  13.8284220
  20.6328840  28.5411530  10.7124580  20.7959880  28.0716890   9.8943950
  21.0981290  28.0335090  11.3773420  25.4047610  17.6717290   5.7485150
  24.9615760  18.4526830   5.4169670  25.9632600  17.9947180   6.4556090
  29.6917420  20.5385810  11.3520470  29.2296790  20.7468830  12.1640410
  29.2895530  19.7245160  11.0491140  34.6921930  21.7594760  12.4817130
  33.8415520  21.4600510  12.8026200  34.5323720  22.0036770  11.5700950
  31.7871640  23.2596510  14.5815920  32.1125050  22.4260260  14.2418150
  32.5751970  23.7825030  14.7294250  27.4423510  18.2164620   7.6074750
  27.7395840  19.1227450   7.5266770  27.9909070  17.7283400   6.9934320
  25.1961830  22.7950860   3.4766400  24.9702750  22.5788030   4.3813020
  24.4154360  23.2279320   3.1312370  32.4259590  22.8014230   2.0757050
  31.8268480  23.5250030   1.8920670  32.9739200  22.7391010   1.2933500
  27.6361040  23.6936440  14.1426670  27.5404640  22.7531170  13.9927070
  28.4793020  23.9151510  13.7474740  31.0324460  21.4377770   4.1060330
  31.4254030  21.7549970   3.2929020  31.3941310  20.5589650   4.2204850
  22.7671580  20.1050110  12.2960450  22.3734970  20.9525320  12.5033230
  22.0789980  19.4676480  12.4869090  29.3416630  20.1885080  15.3657190
  28.6514950  19.9957280  16.0003280  30.0848930  20.4719720  15.8981490
  20.0688630  18.0278570   6.3290530  19.7801680  18.5981430   7.0415510
  20.8134390  17.5483020   6.6921760  31.6179600  24.0283520   8.2011110
  30.8860720  24.5370330   8.5501210  31.2203940  23.2113500   7.8999890
  28.0556990  20.7037720   6.6063600  28.0593050  20.2627670   5.7568140
  28.9508110  21.0255050   6.7135420  23.9059370  20.5864210   5.5657810
  23.5659420  21.0639440   6.3224860  23.1436690  20.1329330   5.2058910
  32.0805510  19.4817200   7.6134050  32.0978250  19.9325850   8.4575900
  31.8321090  18.5822840   7.8267490  35.5076260  16.8949380  13.4520430
  35.8322030  16.1639040  13.9778410  35.5432770  16.5763020  12.5501420
  22.2067820  27.9162960  12.8720390  21.8222610  27.2756630  13.4703350
  22.5180010  28.6199080  13.4415120  28.3564960  24.7639500   8.3529010
  28.7235090  24.2898070   9.0990350  28.1670020  25.6381070   8.6937350
  21.2205450  19.5083190   4.4822480  20.9352370  19.1438860   5.3201100
  21.1584310  18.7763650   3.8685620  26.1464330  23.8048140  10.6713220
  25.8421400  24.6840120  10.8963580  27.1010790  23.8647930  10.7070660
  35.4334100  27.0074490   7.0606460  36.1533220  27.5029780   6.6702570
  35.2315920  26.3292380   6.4160330  30.8152900  27.0783550  12.9475460
  30.7490210  26.1579220  12.6933050  30.1858040  27.1758990  13.6620100
  24.7183520  27.6789510   4.9058880  25.2362190  26.8757770   4.8515770
  24.2667540  27.6168650   5.7475710  22.2028060  24.6450880  11.8184580
  21.8443000  25.3104730  12.4057920  21.9082620  23.8134430  12.1897200
  25.4041180  25.1035120  14.7024130  25.1041320  25.2492300  13.8051950
  26.1752420  24.5440410  14.6097520  30.7469630  29.9004120  12.6979260
  30.7614170  28.9685080  12.4798170  30.0394730  29.9863880  13.3369030
  36.9580840  26.5411460  12.0447840  36.2329030  27.1340240  11.8477230
  37.4856300  26.5335000  11.2461210  32.4880430  28.2671630   5.5431690
  32.8404250  27.6699760   4.8833060  31.6042760  27.9415860   5.7139940
  28.5743710  29.0269320   2.9502100  29.2614840  29.5738530   3.3309690
  27.7876130  29.5710050   2.9851710  27.8770920  26.0315350   2.5627460
  28.3333700  26.8420600   2.7887650  27.5259130  25.7138490   3.3945950
  30.1803530  31.5421690   9.7919760  30.8245750  31.7481070  10.4693180
  30.5432970  30.7810090   9.3390610  23.7782700  16.3753000   3.0349980
  23.6497330  16.3670900   3.9834900  22.9544720  16.7136090   2.6840990
  31.4535610  29.5454040   8.5097210  32.0957840  28.8447200   8.6229380
  31.9784960  30.3252480   8.3294100  33.2273230  30.3448940  11.7133270
  33.5629470  30.9315630  12.3911190  32.3073570  30.2141650  11.9431060
  20.7776630  18.1344120  12.4956680  20.0635150  18.3341040  13.1009290
  21.1971670  17.3583690  12.8671480  21.0649220  32.1224380  13.4823210
  21.1740340  31.1819120  13.3418600  20.4129780  32.3879130  12.8336940
  29.0561810  30.3940270  14.8821330  28.7358680  29.6749510  15.4267020
  28.3820170  31.0695340  14.9557390  32.2715410  20.6266430  10.2458130
  32.6396230  19.8061640  10.5737700  31.4113610  20.6868320  10.6613780
  27.6061470  21.8609320   2.4703570  26.8977620  22.3295660   2.9117180
  27.8905950  21.2031330   3.1048760  29.2317400  23.2806020  10.4696100
  29.7302650  23.7551840  11.1347950  29.3740350  22.3569540  10.6766130
  31.6376900  18.5859980   3.9099360  31.5144680  18.6046110   2.9608870
  32.5861460  18.6338920   4.0297760  28.7253690  33.8215280   3.1827340
  28.9795190  33.7836670   2.2606710  27.7766170  33.6948610   3.1755590
  36.4384260  19.4973980  11.3124490  35.9357860  20.2379380  11.6518300
  37.2540920  19.8857980  10.9961280  34.7306270  24.7407160   4.7585850
  33.7896410  24.7557390   4.9333540  35.0450340  23.9543120   5.2046150
  36.7331850  31.9116010   6.4340110  36.8579270  32.7347180   6.9063920
  37.5997410  31.7006740   6.0864260  24.2049380  34.0047220   6.1057240
  24.9411860  33.4562680   6.3765810  24.5890300  34.8703230   5.9663230
  21.0894860  30.0720790   1.9798750  20.1634640  30.3141930   1.9704160
  21.5551290  30.8995050   1.8583500  23.2107660  33.1893290  15.2942820
  24.0120390  33.5105340  15.7078220  22.6959480  32.8288870  16.0162730
  32.0472290  29.2973160  15.2418230  31.4410450  29.3204760  14.5013980
  31.7426400  28.5656200  15.7785480  33.4772660  33.0253450  13.8527640
  34.4294410  32.9411470  13.8027880  33.3300880  33.6895160  14.5261430
  20.9305470  25.6766750  14.2378870  21.4344490  25.0974030  14.8095100
  20.1912890  25.9606980  14.7755240  27.9843410  27.0837740  13.7714390
  27.2189080  27.6522740  13.6869060  28.1659370  26.7913950  12.8782620
  35.1266760  28.8143070  14.3289410  35.8676230  29.1518830  13.8256870
  34.3639440  28.9835130  13.7759180  22.9628550  23.8196340  15.1328940
  23.0033890  23.5210210  16.0414170  23.8174050  24.2203950  14.9736460
  24.9034360  22.3988440  13.1003430  24.3730820  21.9079390  12.4726770
  25.5722430  22.8272640  12.5661360  33.8012420  26.8657900  12.8644620
  34.2153440  27.0202980  13.7135040  32.8663420  26.9913120  13.0270400
  34.2734590  24.2054060  14.8683770  34.8555360  23.4506380  14.7804250
  34.4496360  24.7361500  14.0915250  25.3906660  19.3650810  13.1800720
  25.2963530  18.7471560  12.4551590  24.8104050  20.0917100  12.9530630
  28.1568100  17.9224050  10.2128110  27.7085400  17.9448310   9.3673660
  27.5233300  17.5243070  10.8098410  28.5627650  26.8178380  10.8340550
  28.9815760  27.6611110  10.6616790  27.6436280  26.9550420  10.6047330
  30.8991550  24.5494560  12.2178390  31.0187760  23.9535700  12.9573230
  31.7585550  24.5864250  11.7979690  33.2379450  25.1031750  10.7940900
  32.7114670  25.6274370  10.1906040  33.5810790  25.7359140  11.4250630
  26.4135070  33.1231390  11.9498280  25.8756160  33.8477450  11.6306980
  26.6669030  32.6461730  11.1595620  27.6660320  21.0915910  13.4754210
  28.2560010  20.7831760  14.1632030  26.8480560  20.6195660  13.6314110
  32.4853750  20.7081720  13.7087230  31.7969270  20.0463260  13.6437220
  33.2059770  20.2619990  14.1535690  29.2697280  34.3582600  12.2084930
  29.1955980  35.2617740  12.5157300  28.3676120  34.0394500  12.1807000
  20.6724570  31.6857190   5.5118550  21.0027580  30.8178250   5.2797190
  21.1015570  31.8915710   6.3423510  25.2686490  30.0166200   3.1720520
  24.9682030  29.8931170   4.0724430  25.1623980  29.1574790   2.7636250
  21.1614780  32.5527780   8.2500180  20.7245770  32.7328580   9.0824330
  21.7292460  33.3102400   8.1081900  36.7976960  32.0544780  12.5377490
  36.1978950  32.1137340  11.7941410  36.9270860  31.1149760  12.6674340
  20.9939210  25.0648010   4.6089060  20.3388050  24.7959650   3.9648760
  21.8317160  24.9552490   4.1591040  38.4994840  27.3960180   5.2223330
  38.8703670  26.6127500   4.8159300  39.1396770  28.0849280   5.0440630
  35.4828600  28.7796760  10.6353650  34.6688440  29.2093920  10.8979440
  35.8902800  29.3915170  10.0222700  37.4419380  24.7713440   2.5283350
  37.0662980  24.0041370   2.0964640  36.7122500  25.1536140   3.0158280
  22.0315140  25.4500580   9.1492400  22.3988180  25.3627980  10.0288420
  21.4625960  24.6867130   9.0499260  36.8319000  23.9184960  12.1622870
  36.6005090  23.6897710  11.2620820  37.0923550  24.8384510  12.1167760
  21.5831140  22.3609670  13.0550820  20.6887190  22.3276430  13.3944530
  22.1228690  22.5596460  13.8202070  35.2707070  19.1441390  14.9402570
  36.1477250  19.1524790  15.3236570  35.2827910  18.4072230  14.3294920
  36.7170340  22.9970930   5.8290590  37.2407820  22.5033580   5.1980760
  37.3029760  23.1321290   6.5738160  36.8960060  23.0810800   9.3510140
  35.9462770  23.0474340   9.4655130  37.0773070  23.9910910   9.1159910
  36.2070310  22.2544280   1.7683000  36.7029430  22.0215150   2.5531880
  36.0086380  21.4156120   1.3520640  22.0870850  16.6358000   7.4034040
  22.7347040  16.0855380   6.9629200  22.5072690  16.8901150   8.2249850
  37.6357470  20.8905230   4.3020680  37.5256750  20.7361270   5.2402950
  38.3965060  20.3626170   4.0596090  35.9823190  16.8299360  10.7603680
  36.6195410  17.4433500  11.1262870  36.1298080  16.8660020   9.8152910
  35.5404650  33.5315360   4.1621920  36.1363720  33.2099930   3.4856340
  35.7982800  33.0587180   4.9535190  21.8402850  16.7913670  10.1459360
  21.4917670  17.2477490  10.9117540  21.5090550  15.8970800  10.2281790
  23.4467220  29.9633270  14.3112550  23.4036850  29.5926180  15.1927010
  23.5778230  30.9010840  14.4514370  27.1473250  31.5192860   9.9122270
  26.9064610  31.7867420   9.0252790  28.0875890  31.6898590   9.9673130
  29.3527670  17.9825550  13.6678780  29.2916560  18.5747380  14.4174190
  30.2928050  17.8751510  13.5229040  31.9902230  17.6395610  13.3071070
  32.6042640  17.9574900  12.6452150  32.5351790  17.1544200  13.9266930
  38.4077410  33.5387240  10.7132910  37.9135690  33.9356110   9.9960040
  37.7990700  32.9136450  11.1070190  22.5123490  16.3189870  13.4210130
  23.0606480  16.1377920  12.6576240  22.5778800  15.5283980  13.9566440
  23.2855250  32.9095520  11.4310330  22.6915570  32.7780220  12.1700370
  23.2779090  32.0733660  10.9652430  32.7310270  16.2027750   9.6340360
  31.8570110  16.5362860   9.4313290  32.6221020  15.7300930  10.4592230
  33.6382250  18.4098620  11.0182080  33.3095610  17.5950380  10.6383810
  34.5864550  18.3668430  10.8947770  36.0916860  34.1810660   7.9919650
  35.6319830  34.9326470   7.6177670  35.4629320  33.4617130   7.9334450
  22.9167480  30.2753900  10.3818370  22.1901540  29.6559190  10.3144320
  22.9776630  30.6694510   9.5116450  26.5212580  32.4898900   7.1667780
  27.0377600  31.8786260   6.6416040  27.1709960  32.9927680   7.6578790
  29.2608080  33.3807390   7.9936760  29.5485890  33.1261690   7.1169770
  29.7731300  32.8284750   8.5842330  30.4785090  17.1197590   8.5733270
  29.6956880  17.5943090   8.8530030  30.1848020  16.2152420   8.4646450
  35.0306160  17.8220690   6.6182360  35.4714250  17.7665790   5.7703960
  34.7613750  18.7378700   6.6892540  36.8944730  17.4535930   4.6291180
  36.8333130  16.5097150   4.4822200  37.6736760  17.5616020   5.1744640
  21.1997480  33.5928290   3.5915130  21.0319520  32.9598970   4.2897020
  20.3331990  33.7987690   3.2409320  28.3639310  19.5384340   4.0849300
  27.5513820  19.1641230   3.7445180  28.8680950  18.7829420   4.3870490
  32.8664290  16.2026790   5.3232370  33.4693660  16.7747000   5.7980890
  32.1257280  16.7666230   5.1006270  26.3888490  17.6884260   2.6894350
  25.7591230  16.9871570   2.8564480  25.8493630  18.4488390   2.4727510
  29.3280440  34.3023490  15.3604960  30.2547750  34.0667760  15.4040920
  29.3130870  35.1295490  14.8790990  37.5625500  33.8449060   2.3579210
  37.7377690  33.1586800   1.7140130  36.8647070  34.3696110   1.9655880
  26.5144050  16.9668240  15.1246840  26.2328320  17.4701840  14.3607660
  26.8963750  16.1689990  14.7588970  33.1159510  16.3821820  15.7027310
  33.0024960  16.7016430  16.5978830  33.9329250  16.7834330  15.4064590
  35.8958000  33.5293350  15.1846000  36.6883320  33.0342580  14.9771960
  36.1891150  34.2083490  15.7921610  32.0217660   5.6270800  61.1636010
  31.9411710   4.7125410  60.8927720  31.6082080   6.1237870  60.4575720
  30.1535700   7.4049820  63.0445280  29.3777800   6.9250260  63.3343850
  30.8048630   6.7255470  62.8701440  24.1701530   7.7169630  63.9221040
  23.3386410   7.4618340  64.3217550  24.7782510   7.7880400  64.6578960
  34.1743130  11.8110010  61.8244410  33.7124660  11.0397250  62.1531580
  34.9868680  11.8376080  62.3296860  24.1502790  11.7509720  64.1179060
  24.4530830  10.8607460  63.9389280  24.8946380  12.3079940  63.8901310
  22.5793480   2.6771520  57.7063430  21.6910180   3.0187490  57.6043310
  22.8634670   2.4771840  56.8144260  20.5426490   5.2777170  63.5903130
  21.1142600   4.5099370  63.5906770  20.5428030   5.5765930  62.6809740
  30.4006440  14.0968020  61.4448400  29.7817880  14.5525520  60.8742840
  31.2558220  14.2519480  61.0438100  29.5944690  10.0807010  63.0515440
  29.5252970   9.1396950  62.8904570  30.3564550  10.1708420  63.6238010
  30.6249860   2.8877390  63.2784370  31.0014680   2.0149270  63.1658040
  30.5269370   3.2236090  62.3874810  22.4038030   3.1822030  63.9854400
  23.0848140   3.4460400  64.6041800  22.0886080   2.3422900  64.3192410
  26.5962600   4.2289390  63.0726990  27.1040820   4.7270360  63.7132010
  27.1275840   3.4524590  62.8966350  38.6973530   2.3994580  66.7756340
  37.9925700   2.7876290  66.2571450  38.9631450   3.0944870  67.3777270
  31.2669790   8.9807260  58.8380310  30.6487060   9.4456710  58.2743030
  31.7793040   9.6734740  59.2549820  26.1301550   8.5083130  65.5163910
  25.7970930   9.1352050  66.1584980  26.3068230   9.0345010  64.7365580
  34.6435460   2.3228210  62.9840250  33.9391030   2.6113100  63.5643360
  35.0047620   3.1328320  62.6239810  25.3420650  10.4763930  67.3313090
  25.9594650  11.1515010  67.0497540  24.4813770  10.8851910  67.2400590
  20.6352990   9.6663790  56.2119940  20.2580970  10.1550890  55.4804840
  20.8926060  10.3389070  56.8426470  36.2598240  11.9403340  65.2467730
  35.5761760  12.6102450  65.2384400  36.7992530  12.1383990  64.4812590
  37.7122380   1.7683000  63.3749460  36.7647290   1.8021980  63.5064890
  38.0372370   2.5821950  63.7598820  33.7956980  13.7847470  63.9612910
  33.8084140  13.3809760  63.0935170  33.2432200  14.5594760  63.8574340
  35.0902400  10.5063690  59.0503080  34.9798730   9.5638020  59.1752500
  35.0870650  10.8679330  59.9365840  33.1942420   8.6877310  65.2895520
  33.6111210   8.4737420  64.4548980  33.9182240   8.9450100  65.8604140
  30.6322680   6.1329010  58.4065570  29.7051960   6.0666390  58.6354040
  30.7847500   7.0709140  58.2920810  30.6191760   2.4046010  55.4032730
  29.6795430   2.5659970  55.4885190  30.9375020   3.1231690  54.8568720
  37.1404520   7.0864530  65.3811760  36.3123150   7.1557620  64.9061890
  37.7355000   7.6718840  64.9127590  34.6619970   7.6949310  58.9100820
  34.0432390   7.3568860  58.2627120  34.6444420   7.0509070  59.6180010
  34.1046530   3.8733850  66.3266630  33.6917710   4.6987560  66.5806620
  33.3722480   3.2878890  66.1342990  26.2379320   6.6593750  61.1885300
  25.8336320   5.9471000  60.6931200  26.3242440   6.3146990  62.0773340
  26.7061020  10.3461310  63.3524510  26.4089310   9.7406780  62.6732290
  27.6560840  10.3838620  63.2413870  24.9507940   3.4336960  64.9684340
  25.5022530   3.5432300  64.1937590  25.4651450   3.8074560  65.6839570
  34.7946630  13.9193180  67.0147610  34.3177190  14.7265370  66.8220220
  34.1108420  13.2671510  67.1673820  32.8384670   6.9336120  55.9173570
  33.2777950   6.0958550  55.7711390  33.5513090   7.5665520  56.0037710
  30.9480050  11.8732190  59.8854810  31.3875960  12.6156520  59.4710200
  30.8866940  12.1158760  60.8093770  22.9383950   5.5538730  58.6891950
  22.8181550   6.2800820  58.0773220  22.6284840   4.7841640  58.2119860
  20.5769320   8.7253870  64.4960590  20.6549740   8.8602640  63.5516310
  21.1911000   8.0169760  64.6888710  21.8216950  10.4254060  60.9066770
  21.4145030  10.5668650  60.0520370  22.7129960  10.1414220  60.7037980
  33.6150230  14.8601310  57.2417820  33.4551370  14.5704250  58.1399650
  33.4496940  14.0841440  56.7063050  26.0938610  14.6399840  59.0189440
  25.9181090  13.7235380  58.8057240  25.2394350  14.9987130  59.2587240
  33.3176360  12.3688870  55.8015820  32.6241520  12.3666160  55.1418100
  34.0599220  11.9448190  55.3709990  32.8826290  13.9951580  59.8764310
  33.3383240  13.2140960  60.1902930  33.2218810  14.7058400  60.4205490
  20.6328840   9.7668040  67.0355050  20.7959880   9.2973400  66.2174420
  21.0981290   9.2591600  67.7003890  25.1961830   4.0207370  59.7996870
  24.9702750   3.8044540  60.7043490  24.4154360   4.4535830  59.4542840
  32.4259590   4.0270740  58.3987520  31.8268480   4.7506540  58.2151140
  32.9739200   3.9647520  57.6163970  31.0324460   2.6634280  60.4290800
  31.4254030   2.9806480  59.6159490  31.3941310   1.7846160  60.5435320
  20.2558860   3.1955200  53.8623720  20.1733530   4.1385960  54.0038710
  19.9041920   3.0530110  52.9836070  31.6179600   5.2540030  64.5241580
  30.8860720   5.7626840  64.8731680  31.2203940   4.4370010  64.2230360
  28.1177140   2.9306310  55.9200830  28.2389960   2.8892790  56.8686650
  27.7325650   3.7930460  55.7647560  27.1298640   5.2407450  55.3184130
  26.5615540   4.7925700  54.6920040  27.8387640   5.6000230  54.7849280
  28.3564960   5.9896010  64.6759480  28.7235090   5.5154580  65.4220820
  28.1670020   6.8637580  65.0167820  26.1464330   5.0304650  66.9943690
  25.8421400   5.9096630  67.2194050  27.1010790   5.0904440  67.0301130
  24.6746120   9.2365640  57.5910540  23.9008380   8.6963260  57.4309260
  25.4040750   8.7172250  57.2528300  35.4334100   8.2331000  63.3836930
  36.1533220   8.7286290  62.9933040  35.2315920   7.5548890  62.7390800
  33.6092430   3.9988610  55.8228480  34.4972050   4.3105840  55.6479820
  33.5797520   3.1260860  55.4309060  24.7183520   8.9046020  61.2289350
  25.2362190   8.1014280  61.1746240  24.2667540   8.8425160  62.0706180
  29.6053020  10.1712300  56.5016650  29.9468720  10.9154530  56.0059970
  28.7765730  10.4843420  56.8641480  35.8806700   5.3100450  55.2908340
  35.7970420   5.7414670  54.4404780  36.6000890   5.7698800  55.7235160
  36.9093950  12.1642710  58.0190470  36.2670110  11.5098330  58.2934190
  36.5224610  12.5697800  57.2431140  32.4880430   9.4928140  61.8662160
  32.8404250   8.8956270  61.2063530  31.6042760   9.1672370  62.0370410
  28.5743710  10.2525830  59.2732570  29.2614840  10.7995040  59.6540160
  27.7876130  10.7966560  59.3082180  20.7136110   5.8698650  54.7649650
  21.5830960   6.1523450  55.0485570  20.2226430   6.6834520  54.6498460
  27.8770920   7.2571860  58.8857930  28.3333700   8.0677110  59.1118120
  27.5259130   6.9395000  59.7176420  30.1803530  12.7678200  66.1150230
  30.8245750  12.9737580  66.7923650  30.5432970  12.0066600  65.6621080
  31.4535610  10.7710550  64.8327680  32.0957840  10.0703710  64.9459850
  31.9784960  11.5508990  64.6524570  35.2991330  11.0559170  54.5566820
  35.0728910  10.3389610  55.1491460  34.9087530  10.8071610  53.7188570
  21.0807360  15.0826030  55.3311280  21.4405000  15.6815370  54.6768550
  20.9399700  15.6285920  56.1046310  34.8807580   8.9731110  56.2180980
  34.5929280   9.4343800  57.0058860  35.6759750   8.5128880  56.4865200
  27.0975980  12.4657230  56.1484950  27.0886080  13.1986920  55.5329460
  26.1774340  12.2188810  56.2411910  22.6982620   7.6872120  56.8931710
  22.0910570   8.4271020  56.9027010  23.1731970   7.7771480  56.0669910
  30.0835580  12.5285470  54.8110140  30.1847560  12.3249460  53.8812120
  29.1837320  12.2743750  55.0157920  27.6061470   3.0865830  58.7934040
  26.8977620   3.5552170  59.2347650  27.8905950   2.4287840  59.4279230
  29.2317400   4.5062530  66.7926570  29.7302650   4.9808350  67.4578420
  29.3740350   3.5826050  66.9996600  28.7253690  15.0471790  59.5057810
  28.9795190  15.0093180  58.5837180  27.7766170  14.9205120  59.4986060
  34.7306270   5.9663670  61.0816320  33.7896410   5.9813900  61.2564010
  35.0450340   5.1799630  61.5276620  24.7087910   7.6483270  54.6420280
  25.4751180   7.5364630  55.2045710  24.7862600   6.9521240  53.9897050
  23.4034670   5.0808340  55.3253170  23.4838260   4.1335850  55.4370570
  24.2954420   5.4115220  55.4313830  36.7331850  13.1372520  62.7570580
  36.8579270  13.9603690  63.2294390  37.5997410  12.9263250  62.4094730
  24.2049380  15.2303730  62.4287710  24.9411860  14.6819190  62.6996280
  24.5890300  16.0959740  62.2893700  21.0894860  11.2977300  58.3029220
  20.1634640  11.5398440  58.2934630  21.5551290  12.1251560  58.1813970
  27.3151690  14.4034040  54.2513280  28.1080300  14.6922870  53.7995070
  26.7956040  13.9726210  53.5725760  36.3681860  13.6304170  55.6750020
  36.0823370  13.2169310  54.8604200  36.1701410  14.5591880  55.5550540
  27.8329090   9.6237450  54.1155630  27.7279730   9.0089800  54.8417010
  27.6653310   9.1003340  53.3318640  31.0731820   8.6857480  54.7197620
  30.5241920   9.1326780  55.3640360  31.6951080   8.1806730  55.2435290
  26.7406940   7.6448400  56.6162920  27.1623360   7.4788270  57.4594310
  26.8657780   6.8348630  56.1218060  29.2534580   6.6686010  53.8640020
  29.7740240   5.9535030  53.4981170  29.9002980   7.3071880  54.1640530
  28.5627650   8.0434890  67.1571020  28.9815760   8.8867620  66.9847260
  27.6436280   8.1806930  66.9277800  33.2379450   6.3288260  67.1171370
  32.7114670   6.8530880  66.5136510  33.5810790   6.9615650  67.7481100
  25.6365840   3.7181630  53.5621080  25.4354900   2.8548990  53.9234420
  25.4657890   3.6314990  52.6242680  29.8182610  14.7497620  56.1541760
  30.7133400  15.0882590  56.1760520  29.8500240  14.0277030  55.5266040
  23.4578770  10.1224670  54.3828760  23.8953640  10.6654340  55.0386340
  23.9426500   9.2971620  54.3925100  20.6724570  12.9113700  61.8349020
  21.0027580  12.0434760  61.6027660  21.1015570  13.1172220  62.6653980
  25.2686490  11.2422710  59.4950990  24.9682030  11.1187680  60.3954900
  25.1623980  10.3831300  59.0866720  21.1614780  13.7784290  64.5730650
  20.7245770  13.9585090  65.4054800  21.7292460  14.5358910  64.4312370
  38.0378410  11.0219110  54.1977670  37.2071370  11.0895760  54.6684900
  38.2150240  11.9123230  53.8944530  37.4934870   7.7666590  56.7011870
  38.2553780   8.3363240  56.8071560  37.5089240   7.1993790  57.4720180
  20.9939210   6.2904520  60.9319530  20.3388050   6.0216160  60.2879230
  21.8317160   6.1809000  60.4821510  38.4994840   8.6216690  61.5453800
  38.8703670   7.8384010  61.1389770  39.1396770   9.3105790  61.3671100
  35.4828600  10.0053270  66.9584120  34.6688440  10.4350430  67.2209910
  35.8902800  10.6171680  66.3453170  37.5454040   8.0600960  53.8584390
  37.8202880   8.9679840  53.7303610  37.3564780   7.9963490  54.7946380
  37.4419380   5.9969950  58.8513820  37.0662980   5.2297880  58.4195110
  36.7122500   6.3792650  59.3388750  22.0315140   6.6757090  65.4722870
  22.3988180   6.5884490  66.3518890  21.4625960   5.9123640  65.3729730
  20.2077290   3.5003450  56.8744860  19.3041370   3.7633650  56.6996520
  20.6917910   3.7714620  56.0944820  36.7170340   4.2227440  62.1521060
  37.2407820   3.7290090  61.5211230  37.3029760   4.3577800  62.8968630
  36.8960060   4.3067310  65.6740610  35.9462770   4.2730850  65.7885600
  37.0773070   5.2167420  65.4390380  22.7504500   2.5568990  54.7839240
  23.4596200   2.1352210  54.2986520  22.0344440   2.6244220  54.1522590
  36.2070310   3.4800790  58.0913470  36.7029430   3.2471660  58.8762350
  36.0086380   2.6412630  57.6751110  37.6357470   2.1161740  60.6251150
  37.5256750   1.9617780  61.5633420  38.3965060   1.5882680  60.3826560
  35.5404650  14.7571870  60.4852390  36.1363720  14.4356440  59.8086810
  35.7982800  14.2843690  61.2765660  27.1473250  12.7449370  66.2352740
  26.9064610  13.0123930  65.3483260  28.0875890  12.9155100  66.2903600
  38.4077410  14.7643750  67.0363380  37.9135690  15.1612620  66.3190510
  37.7990700  14.1392960  67.4300660  36.0916860  15.4067170  64.3150120
  35.6319830  16.1582980  63.9408140  35.4629320  14.6873640  64.2564920
  22.9167480  11.5010410  66.7048840  22.1901540  10.8815700  66.6374790
  22.9776630  11.8951020  65.8346920  26.5212580  13.7155410  63.4898250
  27.0377600  13.1042770  62.9646510  27.1709960  14.2184190  63.9809260
  29.2608080  14.6063900  64.3167230  29.5485890  14.3518200  63.4400240
  29.7731300  14.0541260  64.9072800  21.1997480  14.8184800  59.9145600
  21.0319520  14.1855480  60.6127490  20.3331990  15.0244200  59.5639790
  22.8060180  13.5118030  57.3595740  22.2807800  13.8926060  56.6557700
  22.7304760  14.1368800  58.0805450  37.5625500  15.0705570  58.6809680
  37.7377690  14.3843310  58.0370600  36.8647070  15.5952620  58.2886350
  25.4053150  15.4600410  56.2344990  26.1371970  15.1759690  55.6868880
  25.6646820  15.2213690  57.1244370  24.5667940  11.5765140  56.2391320
  23.9376820  12.0450240  56.7877150  24.6815770  10.7314360  56.6737510
  32.0217660   5.6270800  42.3892520  31.9411710   4.7125410  42.1184230
  31.6082080   6.1237870  41.6832230  30.1535700   7.4049820  44.2701790
  29.3777800   6.9250260  44.5600360  30.8048630   6.7255470  44.0957950
  24.1701530   7.7169630  45.1477550  23.3386410   7.4618340  45.5474060
  24.7782510   7.7880400  45.8835470  34.1743130  11.8110010  43.0500920
  33.7124660  11.0397250  43.3788090  34.9868680  11.8376080  43.5553370
  24.1502790  11.7509720  45.3435570  24.4530830  10.8607460  45.1645790
  24.8946380  12.3079940  45.1157820  22.5793480   2.6771520  38.9319940
  21.6910180   3.0187490  38.8299820  22.8634670   2.4771840  38.0400770
  20.5426490   5.2777170  44.8159640  21.1142600   4.5099370  44.8163280
  20.5428030   5.5765930  43.9066250  30.4006440  14.0968020  42.6704910
  29.7817880  14.5525520  42.0999350  31.2558220  14.2519480  42.2694610
  29.5944690  10.0807010  44.2771950  29.5252970   9.1396950  44.1161080
  30.3564550  10.1708420  44.8494520  30.6249860   2.8877390  44.5040880
  31.0014680   2.0149270  44.3914550  30.5269370   3.2236090  43.6131320
  22.4038030   3.1822030  45.2110910  23.0848140   3.4460400  45.8298310
  22.0886080   2.3422900  45.5448920  26.5962600   4.2289390  44.2983500
  27.1040820   4.7270360  44.9388520  27.1275840   3.4524590  44.1222860
  38.6973530   2.3994580  48.0012850  37.9925700   2.7876290  47.4827960
  38.9631450   3.0944870  48.6033780  31.2669790   8.9807260  40.0636820
  30.6487060   9.4456710  39.4999540  31.7793040   9.6734740  40.4806330
  26.1301550   8.5083130  46.7420420  25.7970930   9.1352050  47.3841490
  26.3068230   9.0345010  45.9622090  34.6435460   2.3228210  44.2096760
  33.9391030   2.6113100  44.7899870  35.0047620   3.1328320  43.8496320
  25.3420650  10.4763930  48.5569600  25.9594650  11.1515010  48.2754050
  24.4813770  10.8851910  48.4657100  20.6352990   9.6663790  37.4376450
  20.2580970  10.1550890  36.7061350  20.8926060  10.3389070  38.0682980
  36.2598240  11.9403340  46.4724240  35.5761760  12.6102450  46.4640910
  36.7992530  12.1383990  45.7069100  37.7122380   1.7683000  44.6005970
  36.7647290   1.8021980  44.7321400  38.0372370   2.5821950  44.9855330
  33.7956980  13.7847470  45.1869420  33.8084140  13.3809760  44.3191680
  33.2432200  14.5594760  45.0830850  35.0902400  10.5063690  40.2759590
  34.9798730   9.5638020  40.4009010  35.0870650  10.8679330  41.1622350
  33.1942420   8.6877310  46.5152030  33.6111210   8.4737420  45.6805490
  33.9182240   8.9450100  47.0860650  30.6322680   6.1329010  39.6322080
  29.7051960   6.0666390  39.8610550  30.7847500   7.0709140  39.5177320
  30.6191760   2.4046010  36.6289240  29.6795430   2.5659970  36.7141700
  30.9375020   3.1231690  36.0825230  37.1404520   7.0864530  46.6068270
  36.3123150   7.1557620  46.1318400  37.7355000   7.6718840  46.1384100
  34.6619970   7.6949310  40.1357330  34.0432390   7.3568860  39.4883630
  34.6444420   7.0509070  40.8436520  34.1046530   3.8733850  47.5523140
  33.6917710   4.6987560  47.8063130  33.3722480   3.2878890  47.3599500
  26.2379320   6.6593750  42.4141810  25.8336320   5.9471000  41.9187710
  26.3242440   6.3146990  43.3029850  26.7061020  10.3461310  44.5781020
  26.4089310   9.7406780  43.8988800  27.6560840  10.3838620  44.4670380
  24.9507940   3.4336960  46.1940850  25.5022530   3.5432300  45.4194100
  25.4651450   3.8074560  46.9096080  34.7946630  13.9193180  48.2404120
  34.3177190  14.7265370  48.0476730  34.1108420  13.2671510  48.3930330
  25.7979450  10.0843000  51.2288820  24.9007980  10.3082970  51.4762220
  25.8232320  10.2077940  50.2800220  32.8384670   6.9336120  37.1430080
  33.2777950   6.0958550  36.9967900  33.5513090   7.5665520  37.2294220
  24.6250670   6.9556320  49.8046190  24.4858440   7.8279120  50.1733590
  23.7432030   6.6129130  49.6594130  30.9480050  11.8732190  41.1111320
  31.3875960  12.6156520  40.6966710  30.8866940  12.1158760  42.0350280
  26.4231020  12.8978020  52.0131340  26.3946450  13.3020970  51.1459770
  26.2595990  11.9688380  51.8502940  22.9383950   5.5538730  39.9148460
  22.8181550   6.2800820  39.3029730  22.6284840   4.7841640  39.4376370
  38.3745840  13.6805120  53.3095510  38.8505560  14.1588010  53.9884590
  38.9953000  13.6122610  52.5841010  20.5769320   8.7253870  45.7217100
  20.6549740   8.8602640  44.7772820  21.1911000   8.0169760  45.9145220
  21.8216950  10.4254060  42.1323280  21.4145030  10.5668650  41.2776880
  22.7129960  10.1414220  41.9294490  37.7779090  10.8717970  50.4695520
  37.9042150  10.6329850  49.5512700  37.8200470  10.0402510  50.9417600
  31.6395830  14.5745970  49.0390330  32.1540500  14.4853980  49.8412760
  30.7964910  14.9205670  49.3318240  33.6150230  14.8601310  38.4674330
  33.4551370  14.5704250  39.3656160  33.4496940  14.0841440  37.9319560
  26.0938610  14.6399840  40.2445950  25.9181090  13.7235380  40.0313750
  25.2394350  14.9987130  40.4843750  33.3176360  12.3688870  37.0272330
  32.6241520  12.3666160  36.3674610  34.0599220  11.9448190  36.5966500
  32.8826290  13.9951580  41.1020820  33.3383240  13.2140960  41.4159440
  33.2218810  14.7058400  41.6462000  37.6303100   2.9250430  51.4345260
  37.0147370   3.4330100  50.9060720  37.3099520   2.0248760  51.3771200
  20.6328840   9.7668040  48.2611560  20.7959880   9.2973400  47.4430930
  21.0981290   9.2591600  48.9260400  34.6921930   2.9851270  50.0304110
  33.8415520   2.6857020  50.3513180  34.5323720   3.2293280  49.1187930
  31.7871640   4.4853020  52.1302900  32.1125050   3.6516770  51.7905130
  32.5751970   5.0081540  52.2781230  25.1961830   4.0207370  41.0253380
  24.9702750   3.8044540  41.9300000  24.4154360   4.4535830  40.6799350
  32.4259590   4.0270740  39.6244030  31.8268480   4.7506540  39.4407650
  32.9739200   3.9647520  38.8420480  27.6361040   4.9192950  51.6913650
  27.5404640   3.9787680  51.5414050  28.4793020   5.1408020  51.2961720
  31.0324460   2.6634280  41.6547310  31.4254030   2.9806480  40.8416000
  31.3941310   1.7846160  41.7691830  20.2558860   3.1955200  35.0880230
  20.1733530   4.1385960  35.2295220  19.9041920   3.0530110  34.2092580
  31.6179600   5.2540030  45.7498090  30.8860720   5.7626840  46.0988190
  31.2203940   4.4370010  45.4486870  28.1177140   2.9306310  37.1457340
  28.2389960   2.8892790  38.0943160  27.7325650   3.7930460  36.9904070
  27.1298640   5.2407450  36.5440640  26.5615540   4.7925700  35.9176550
  27.8387640   5.6000230  36.0105790  22.2067820   9.1419470  50.4207370
  21.8222610   8.5013140  51.0190330  22.5180010   9.8455590  50.9902100
  28.3564960   5.9896010  45.9015990  28.7235090   5.5154580  46.6477330
  28.1670020   6.8637580  46.2424330  26.1464330   5.0304650  48.2200200
  25.8421400   5.9096630  48.4450560  27.1010790   5.0904440  48.2557640
  24.6746120   9.2365640  38.8167050  23.9008380   8.6963260  38.6565770
  25.4040750   8.7172250  38.4784810  35.4334100   8.2331000  44.6093440
  36.1533220   8.7286290  44.2189550  35.2315920   7.5548890  43.9647310
  30.8152900   8.3040060  50.4962440  30.7490210   7.3835730  50.2420030
  30.1858040   8.4015500  51.2107080  33.6092430   3.9988610  37.0484990
  34.4972050   4.3105840  36.8736330  33.5797520   3.1260860  36.6565570
  24.7183520   8.9046020  42.4545860  25.2362190   8.1014280  42.4002750
  24.2667540   8.8425160  43.2962690  29.6053020  10.1712300  37.7273160
  29.9468720  10.9154530  37.2316480  28.7765730  10.4843420  38.0897990
  22.2028060   5.8707390  49.3671560  21.8443000   6.5361240  49.9544900
  21.9082620   5.0390940  49.7384180  25.4041180   6.3291630  52.2511110
  25.1041320   6.4748810  51.3538930  26.1752420   5.7696920  52.1584500
  30.7469630  11.1260630  50.2466240  30.7614170  10.1941590  50.0285150
  30.0394730  11.2120390  50.8856010  35.8806700   5.3100450  36.5164850
  35.7970420   5.7414670  35.6661290  36.6000890   5.7698800  36.9491670
  36.9580840   7.7667970  49.5934820  36.2329030   8.3596750  49.3964210
  37.4856300   7.7591510  48.7948190  36.9093950  12.1642710  39.2446980
  36.2670110  11.5098330  39.5190700  36.5224610  12.5697800  38.4687650
  32.4880430   9.4928140  43.0918670  32.8404250   8.8956270  42.4320040
  31.6042760   9.1672370  43.2626920  28.5743710  10.2525830  40.4989080
  29.2614840  10.7995040  40.8796670  27.7876130  10.7966560  40.5338690
  20.7136110   5.8698650  35.9906160  21.5830960   6.1523450  36.2742080
  20.2226430   6.6834520  35.8754970  27.8770920   7.2571860  40.1114440
  28.3333700   8.0677110  40.3374630  27.5259130   6.9395000  40.9432930
  30.1803530  12.7678200  47.3406740  30.8245750  12.9737580  48.0180160
  30.5432970  12.0066600  46.8877590  31.4535610  10.7710550  46.0584190
  32.0957840  10.0703710  46.1716360  31.9784960  11.5508990  45.8781080
  35.2991330  11.0559170  35.7823330  35.0728910  10.3389610  36.3747970
  34.9087530  10.8071610  34.9445080  33.2273230  11.5705450  49.2620250
  33.5629470  12.1572140  49.9398170  32.3073570  11.4398160  49.4918040
  21.0807360  15.0826030  36.5567790  21.4405000  15.6815370  35.9025060
  20.9399700  15.6285920  37.3302820  34.8807580   8.9731110  37.4437490
  34.5929280   9.4343800  38.2315370  35.6759750   8.5128880  37.7121710
  21.0649220  13.3480890  51.0310190  21.1740340  12.4075630  50.8905580
  20.4129780  13.6135640  50.3823920  29.0561810  11.6196780  52.4308310
  28.7358680  10.9006020  52.9754000  28.3820170  12.2951850  52.5044370
  27.0975980  12.4657230  37.3741460  27.0886080  13.1986920  36.7585970
  26.1774340  12.2188810  37.4668420  22.6982620   7.6872120  38.1188220
  22.0910570   8.4271020  38.1283520  23.1731970   7.7771480  37.2926420
  30.0835580  12.5285470  36.0366650  30.1847560  12.3249460  35.1068630
  29.1837320  12.2743750  36.2414430  27.6061470   3.0865830  40.0190550
  26.8977620   3.5552170  40.4604160  27.8905950   2.4287840  40.6535740
  29.2317400   4.5062530  48.0183080  29.7302650   4.9808350  48.6834930
  29.3740350   3.5826050  48.2253110  28.7253690  15.0471790  40.7314320
  28.9795190  15.0093180  39.8093690  27.7766170  14.9205120  40.7242570
  34.7306270   5.9663670  42.3072830  33.7896410   5.9813900  42.4820520
  35.0450340   5.1799630  42.7533130  24.7087910   7.6483270  35.8676790
  25.4751180   7.5364630  36.4302220  24.7862600   6.9521240  35.2153560
  23.4034670   5.0808340  36.5509680  23.4838260   4.1335850  36.6627080
  24.2954420   5.4115220  36.6570340  36.7331850  13.1372520  43.9827090
  36.8579270  13.9603690  44.4550900  37.5997410  12.9263250  43.6351240
  24.2049380  15.2303730  43.6544220  24.9411860  14.6819190  43.9252790
  24.5890300  16.0959740  43.5150210  21.0894860  11.2977300  39.5285730
  20.1634640  11.5398440  39.5191140  21.5551290  12.1251560  39.4070480
  23.2107660  14.4149800  52.8429800  24.0120390  14.7361850  53.2565200
  22.6959480  14.0545380  53.5649710  27.3151690  14.4034040  35.4769790
  28.1080300  14.6922870  35.0251580  26.7956040  13.9726210  34.7982270
  32.0472290  10.5229670  52.7905210  31.4410450  10.5461270  52.0500960
  31.7426400   9.7912710  53.3272460  33.4772660  14.2509960  51.4014620
  34.4294410  14.1667980  51.3514860  33.3300880  14.9151670  52.0748410
  36.3681860  13.6304170  36.9006530  36.0823370  13.2169310  36.0860710
  36.1701410  14.5591880  36.7807050  20.9305470   6.9023260  51.7865850
  21.4344490   6.3230540  52.3582080  20.1912890   7.1863490  52.3242220
  27.8329090   9.6237450  35.3412140  27.7279730   9.0089800  36.0673520
  27.6653310   9.1003340  34.5575150  27.9843410   8.3094250  51.3201370
  27.2189080   8.8779250  51.2356040  28.1659370   8.0170460  50.4269600
  31.0731820   8.6857480  35.9454130  30.5241920   9.1326780  36.5896870
  31.6951080   8.1806730  36.4691800  35.1266760  10.0399580  51.8776390
  35.8676230  10.3775340  51.3743850  34.3639440  10.2091640  51.3246160
  22.9628550   5.0452850  52.6815920  23.0033890   4.7466720  53.5901150
  23.8174050   5.4460460  52.5223440  26.7406940   7.6448400  37.8419430
  27.1623360   7.4788270  38.6850820  26.8657780   6.8348630  37.3474570
  24.9034360   3.6244950  50.6490410  24.3730820   3.1335900  50.0213750
  25.5722430   4.0529150  50.1148340  29.2534580   6.6686010  35.0896530
  29.7740240   5.9535030  34.7237680  29.9002980   7.3071880  35.3897040
  33.8012420   8.0914410  50.4131600  34.2153440   8.2459490  51.2622020
  32.8663420   8.2169630  50.5757380  34.2734590   5.4310570  52.4170750
  34.8555360   4.6762890  52.3291230  34.4496360   5.9618010  51.6402230
  28.5627650   8.0434890  48.3827530  28.9815760   8.8867620  48.2103770
  27.6436280   8.1806930  48.1534310  30.8991550   5.7751070  49.7665370
  31.0187760   5.1792210  50.5060210  31.7585550   5.8120760  49.3466670
  33.2379450   6.3288260  48.3427880  32.7114670   6.8530880  47.7393020
  33.5810790   6.9615650  48.9737610  25.6365840   3.7181630  34.7877590
  25.4354900   2.8548990  35.1490930  25.4657890   3.6314990  33.8499190
  26.4135070  14.3487900  49.4985260  25.8756160  15.0733960  49.1793960
  26.6669030  13.8718240  48.7082600  27.6660320   2.3172420  51.0241190
  28.2560010   2.0088270  51.7119010  26.8480560   1.8452170  51.1801090
  29.2697280  15.5839110  49.7571910  29.1955980  16.4874250  50.0644280
  28.3676120  15.2651010  49.7293980  29.8182610  14.7497620  37.3798270
  30.7133400  15.0882590  37.4017030  29.8500240  14.0277030  36.7522550
  23.4578770  10.1224670  35.6085270  23.8953640  10.6654340  36.2642850
  23.9426500   9.2971620  35.6181610  20.6724570  12.9113700  43.0605530
  21.0027580  12.0434760  42.8284170  21.1015570  13.1172220  43.8910490
  25.2686490  11.2422710  40.7207500  24.9682030  11.1187680  41.6211410
  25.1623980  10.3831300  40.3123230  21.1614780  13.7784290  45.7987160
  20.7245770  13.9585090  46.6311310  21.7292460  14.5358910  45.6568880
  36.7976960  13.2801290  50.0864470  36.1978950  13.3393850  49.3428390
  36.9270860  12.3406270  50.2161320  38.0378410  11.0219110  35.4234180
  37.2071370  11.0895760  35.8941410  38.2150240  11.9123230  35.1201040
  37.4934870   7.7666590  37.9268380  38.2553780   8.3363240  38.0328070
  37.5089240   7.1993790  38.6976690  20.9939210   6.2904520  42.1576040
  20.3388050   6.0216160  41.5135740  21.8317160   6.1809000  41.7078020
  38.4994840   8.6216690  42.7710310  38.8703670   7.8384010  42.3646280
  39.1396770   9.3105790  42.5927610  35.4828600  10.0053270  48.1840630
  34.6688440  10.4350430  48.4466420  35.8902800  10.6171680  47.5709680
  37.5454040   8.0600960  35.0840900  37.8202880   8.9679840  34.9560120
  37.3564780   7.9963490  36.0202890  37.4419380   5.9969950  40.0770330
  37.0662980   5.2297880  39.6451620  36.7122500   6.3792650  40.5645260
  22.0315140   6.6757090  46.6979380  22.3988180   6.5884490  47.5775400
  21.4625960   5.9123640  46.5986240  36.8319000   5.1441470  49.7109850
  36.6005090   4.9154220  48.8107800  37.0923550   6.0641020  49.6654740
  21.5831140   3.5866180  50.6037800  20.6887190   3.5532940  50.9431510
  22.1228690   3.7852970  51.3689050  20.2077290   3.5003450  38.1001370
  19.3041370   3.7633650  37.9253030  20.6917910   3.7714620  37.3201330
  36.7170340   4.2227440  43.3777570  37.2407820   3.7290090  42.7467740
  37.3029760   4.3577800  44.1225140  36.8960060   4.3067310  46.8997120
  35.9462770   4.2730850  47.0142110  37.0773070   5.2167420  46.6646890
  22.7504500   2.5568990  36.0095750  23.4596200   2.1352210  35.5243030
  22.0344440   2.6244220  35.3779100  36.2070310   3.4800790  39.3169980
  36.7029430   3.2471660  40.1018860  36.0086380   2.6412630  38.9007620
  37.6357470   2.1161740  41.8507660  37.5256750   1.9617780  42.7889930
  38.3965060   1.5882680  41.6083070  35.5404650  14.7571870  41.7108900
  36.1363720  14.4356440  41.0343320  35.7982800  14.2843690  42.5022170
  23.4467220  11.1889780  51.8599530  23.4036850  10.8182690  52.7413990
  23.5778230  12.1267350  52.0001350  27.1473250  12.7449370  47.4609250
  26.9064610  13.0123930  46.5739770  28.0875890  12.9155100  47.5160110
  38.4077410  14.7643750  48.2619890  37.9135690  15.1612620  47.5447020
  37.7990700  14.1392960  48.6557170  23.2855250  14.1352030  48.9797310
  22.6915570  14.0036730  49.7187350  23.2779090  13.2990170  48.5139410
  36.0916860  15.4067170  45.5406630  35.6319830  16.1582980  45.1664650
  35.4629320  14.6873640  45.4821430  22.9167480  11.5010410  47.9305350
  22.1901540  10.8815700  47.8631300  22.9776630  11.8951020  47.0603430
  26.5212580  13.7155410  44.7154760  27.0377600  13.1042770  44.1903020
  27.1709960  14.2184190  45.2065770  29.2608080  14.6063900  45.5423740
  29.5485890  14.3518200  44.6656750  29.7731300  14.0541260  46.1329310
  21.1997480  14.8184800  41.1402110  21.0319520  14.1855480  41.8384000
  20.3331990  15.0244200  40.7896300  22.8060180  13.5118030  38.5852250
  22.2807800  13.8926060  37.8814210  22.7304760  14.1368800  39.3061960
  29.3280440  15.5280000  52.9091940  30.2547750  15.2924270  52.9527900
  29.3130870  16.3552000  52.4277970  37.5625500  15.0705570  39.9066190
  37.7377690  14.3843310  39.2627110  36.8647070  15.5952620  39.5142860
  25.4053150  15.4600410  37.4601500  26.1371970  15.1759690  36.9125390
  25.6646820  15.2213690  38.3500880  24.5667940  11.5765140  37.4647830
  23.9376820  12.0450240  38.0133660  24.6815770  10.7314360  37.8994020
  35.8958000  14.7549860  52.7332980  36.6883320  14.2599090  52.5258940
  36.1891150  15.4340000  53.3408590  32.0217660   5.6270800  23.6149030
  31.9411710   4.7125410  23.3440740  31.6082080   6.1237870  22.9088740
  30.1535700   7.4049820  25.4958300  29.3777800   6.9250260  25.7856870
  30.8048630   6.7255470  25.3214460  24.1701530   7.7169630  26.3734060
  23.3386410   7.4618340  26.7730570  24.7782510   7.7880400  27.1091980
  34.1743130  11.8110010  24.2757430  33.7124660  11.0397250  24.6044600
  34.9868680  11.8376080  24.7809880  24.1502790  11.7509720  26.5692080
  24.4530830  10.8607460  26.3902300  24.8946380  12.3079940  26.3414330
  22.5793480   2.6771520  20.1576450  21.6910180   3.0187490  20.0556330
  22.8634670   2.4771840  19.2657280  20.5426490   5.2777170  26.0416150
  21.1142600   4.5099370  26.0419790  20.5428030   5.5765930  25.1322760
  30.4006440  14.0968020  23.8961420  29.7817880  14.5525520  23.3255860
  31.2558220  14.2519480  23.4951120  29.5944690  10.0807010  25.5028460
  29.5252970   9.1396950  25.3417590  30.3564550  10.1708420  26.0751030
  30.6249860   2.8877390  25.7297390  31.0014680   2.0149270  25.6171060
  30.5269370   3.2236090  24.8387830  22.4038030   3.1822030  26.4367420
  23.0848140   3.4460400  27.0554820  22.0886080   2.3422900  26.7705430
  26.5962600   4.2289390  25.5240010  27.1040820   4.7270360  26.1645030
  27.1275840   3.4524590  25.3479370  38.6973530   2.3994580  29.2269360
  37.9925700   2.7876290  28.7084470  38.9631450   3.0944870  29.8290290
  31.2669790   8.9807260  21.2893330  30.6487060   9.4456710  20.7256050
  31.7793040   9.6734740  21.7062840  26.1301550   8.5083130  27.9676930
  25.7970930   9.1352050  28.6098000  26.3068230   9.0345010  27.1878600
  34.6435460   2.3228210  25.4353270  33.9391030   2.6113100  26.0156380
  35.0047620   3.1328320  25.0752830  25.3420650  10.4763930  29.7826110
  25.9594650  11.1515010  29.5010560  24.4813770  10.8851910  29.6913610
  20.6352990   9.6663790  18.6632960  20.2580970  10.1550890  17.9317860
  20.8926060  10.3389070  19.2939490  36.2598240  11.9403340  27.6980750
  35.5761760  12.6102450  27.6897420  36.7992530  12.1383990  26.9325610
  37.7122380   1.7683000  25.8262480  36.7647290   1.8021980  25.9577910
  38.0372370   2.5821950  26.2111840  33.7956980  13.7847470  26.4125930
  33.8084140  13.3809760  25.5448190  33.2432200  14.5594760  26.3087360
  35.0902400  10.5063690  21.5016100  34.9798730   9.5638020  21.6265520
  35.0870650  10.8679330  22.3878860  33.1942420   8.6877310  27.7408540
  33.6111210   8.4737420  26.9062000  33.9182240   8.9450100  28.3117160
  30.6322680   6.1329010  20.8578590  29.7051960   6.0666390  21.0867060
  30.7847500   7.0709140  20.7433830  30.6191760   2.4046010  17.8545750
  29.6795430   2.5659970  17.9398210  30.9375020   3.1231690  17.3081740
  37.1404520   7.0864530  27.8324780  36.3123150   7.1557620  27.3574910
  37.7355000   7.6718840  27.3640610  34.6619970   7.6949310  21.3613840
  34.0432390   7.3568860  20.7140140  34.6444420   7.0509070  22.0693030
  34.1046530   3.8733850  28.7779650  33.6917710   4.6987560  29.0319640
  33.3722480   3.2878890  28.5856010  26.2379320   6.6593750  23.6398320
  25.8336320   5.9471000  23.1444220  26.3242440   6.3146990  24.5286360
  26.7061020  10.3461310  25.8037530  26.4089310   9.7406780  25.1245310
  27.6560840  10.3838620  25.6926890  24.9507940   3.4336960  27.4197360
  25.5022530   3.5432300  26.6450610  25.4651450   3.8074560  28.1352590
  34.7946630  13.9193180  29.4660630  34.3177190  14.7265370  29.2733240
  34.1108420  13.2671510  29.6186840  25.7979450  10.0843000  32.4545330
  24.9007980  10.3082970  32.7018730  25.8232320  10.2077940  31.5056730
  32.8384670   6.9336120  18.3686590  33.2777950   6.0958550  18.2224410
  33.5513090   7.5665520  18.4550730  24.6250670   6.9556320  31.0302700
  24.4858440   7.8279120  31.3990100  23.7432030   6.6129130  30.8850640
  30.9480050  11.8732190  22.3367830  31.3875960  12.6156520  21.9223220
  30.8866940  12.1158760  23.2606790  26.4231020  12.8978020  33.2387850
  26.3946450  13.3020970  32.3716280  26.2595990  11.9688380  33.0759450
  22.9383950   5.5538730  21.1404970  22.8181550   6.2800820  20.5286240
  22.6284840   4.7841640  20.6632880  38.3745840  13.6805120  34.5352020
  38.8505560  14.1588010  35.2141100  38.9953000  13.6122610  33.8097520
  20.5769320   8.7253870  26.9473610  20.6549740   8.8602640  26.0029330
  21.1911000   8.0169760  27.1401730  21.8216950  10.4254060  23.3579790
  21.4145030  10.5668650  22.5033390  22.7129960  10.1414220  23.1551000
  37.7779090  10.8717970  31.6952030  37.9042150  10.6329850  30.7769210
  37.8200470  10.0402510  32.1674110  31.6395830  14.5745970  30.2646840
  32.1540500  14.4853980  31.0669270  30.7964910  14.9205670  30.5574750
  33.6150230  14.8601310  19.6930840  33.4551370  14.5704250  20.5912670
  33.4496940  14.0841440  19.1576070  26.0938610  14.6399840  21.4702460
  25.9181090  13.7235380  21.2570260  25.2394350  14.9987130  21.7100260
  33.3176360  12.3688870  18.2528840  32.6241520  12.3666160  17.5931120
  34.0599220  11.9448190  17.8223010  32.8826290  13.9951580  22.3277330
  33.3383240  13.2140960  22.6415950  33.2218810  14.7058400  22.8718510
  37.6303100   2.9250430  32.6601770  37.0147370   3.4330100  32.1317230
  37.3099520   2.0248760  32.6027710  20.6328840   9.7668040  29.4868070
  20.7959880   9.2973400  28.6687440  21.0981290   9.2591600  30.1516910
  34.6921930   2.9851270  31.2560620  33.8415520   2.6857020  31.5769690
  34.5323720   3.2293280  30.3444440  31.7871640   4.4853020  33.3559410
  32.1125050   3.6516770  33.0161640  32.5751970   5.0081540  33.5037740
  25.1961830   4.0207370  22.2509890  24.9702750   3.8044540  23.1556510
  24.4154360   4.4535830  21.9055860  32.4259590   4.0270740  20.8500540
  31.8268480   4.7506540  20.6664160  32.9739200   3.9647520  20.0676990
  27.6361040   4.9192950  32.9170160  27.5404640   3.9787680  32.7670560
  28.4793020   5.1408020  32.5218230  31.0324460   2.6634280  22.8803820
  31.4254030   2.9806480  22.0672510  31.3941310   1.7846160  22.9948340
  20.2558860   3.1955200  16.3136740  20.1733530   4.1385960  16.4551730
  19.9041920   3.0530110  15.4349090  31.6179600   5.2540030  26.9754600
  30.8860720   5.7626840  27.3244700  31.2203940   4.4370010  26.6743380
  28.1177140   2.9306310  18.3713850  28.2389960   2.8892790  19.3199670
  27.7325650   3.7930460  18.2160580  27.1298640   5.2407450  17.7697150
  26.5615540   4.7925700  17.1433060  27.8387640   5.6000230  17.2362300
  22.2067820   9.1419470  31.6463880  21.8222610   8.5013140  32.2446840
  22.5180010   9.8455590  32.2158610  28.3564960   5.9896010  27.1272500
  28.7235090   5.5154580  27.8733840  28.1670020   6.8637580  27.4680840
  26.1464330   5.0304650  29.4456710  25.8421400   5.9096630  29.6707070
  27.1010790   5.0904440  29.4814150  24.6746120   9.2365640  20.0423560
  23.9008380   8.6963260  19.8822280  25.4040750   8.7172250  19.7041320
  35.4334100   8.2331000  25.8349950  36.1533220   8.7286290  25.4446060
  35.2315920   7.5548890  25.1903820  30.8152900   8.3040060  31.7218950
  30.7490210   7.3835730  31.4676540  30.1858040   8.4015500  32.4363590
  33.6092430   3.9988610  18.2741500  34.4972050   4.3105840  18.0992840
  33.5797520   3.1260860  17.8822080  24.7183520   8.9046020  23.6802370
  25.2362190   8.1014280  23.6259260  24.2667540   8.8425160  24.5219200
  29.6053020  10.1712300  18.9529670  29.9468720  10.9154530  18.4572990
  28.7765730  10.4843420  19.3154500  22.2028060   5.8707390  30.5928070
  21.8443000   6.5361240  31.1801410  21.9082620   5.0390940  30.9640690
  25.4041180   6.3291630  33.4767620  25.1041320   6.4748810  32.5795440
  26.1752420   5.7696920  33.3841010  30.7469630  11.1260630  31.4722750
  30.7614170  10.1941590  31.2541660  30.0394730  11.2120390  32.1112520
  35.8806700   5.3100450  17.7421360  35.7970420   5.7414670  16.8917800
  36.6000890   5.7698800  18.1748180  36.9580840   7.7667970  30.8191330
  36.2329030   8.3596750  30.6220720  37.4856300   7.7591510  30.0204700
  36.9093950  12.1642710  20.4703490  36.2670110  11.5098330  20.7447210
  36.5224610  12.5697800  19.6944160  32.4880430   9.4928140  24.3175180
  32.8404250   8.8956270  23.6576550  31.6042760   9.1672370  24.4883430
  28.5743710  10.2525830  21.7245590  29.2614840  10.7995040  22.1053180
  27.7876130  10.7966560  21.7595200  20.7136110   5.8698650  17.2162670
  21.5830960   6.1523450  17.4998590  20.2226430   6.6834520  17.1011480
  27.8770920   7.2571860  21.3370950  28.3333700   8.0677110  21.5631140
  27.5259130   6.9395000  22.1689440  30.1803530  12.7678200  28.5663250
  30.8245750  12.9737580  29.2436670  30.5432970  12.0066600  28.1134100
  31.4535610  10.7710550  27.2840700  32.0957840  10.0703710  27.3972870
  31.9784960  11.5508990  27.1037590  35.2991330  11.0559170  17.0079840
  35.0728910  10.3389610  17.6004480  34.9087530  10.8071610  16.1701590
  33.2273230  11.5705450  30.4876760  33.5629470  12.1572140  31.1654680
  32.3073570  11.4398160  30.7174550  21.0807360  15.0826030  17.7824300
  21.4405000  15.6815370  17.1281570  20.9399700  15.6285920  18.5559330
  34.8807580   8.9731110  18.6694000  34.5929280   9.4343800  19.4571880
  35.6759750   8.5128880  18.9378220  21.0649220  13.3480890  32.2566700
  21.1740340  12.4075630  32.1162090  20.4129780  13.6135640  31.6080430
  29.0561810  11.6196780  33.6564820  28.7358680  10.9006020  34.2010510
  28.3820170  12.2951850  33.7300880  27.0975980  12.4657230  18.5997970
  27.0886080  13.1986920  17.9842480  26.1774340  12.2188810  18.6924930
  22.6982620   7.6872120  19.3444730  22.0910570   8.4271020  19.3540030
  23.1731970   7.7771480  18.5182930  30.0835580  12.5285470  17.2623160
  30.1847560  12.3249460  16.3325140  29.1837320  12.2743750  17.4670940
  27.6061470   3.0865830  21.2447060  26.8977620   3.5552170  21.6860670
  27.8905950   2.4287840  21.8792250  29.2317400   4.5062530  29.2439590
  29.7302650   4.9808350  29.9091440  29.3740350   3.5826050  29.4509620
  28.7253690  15.0471790  21.9570830  28.9795190  15.0093180  21.0350200
  27.7766170  14.9205120  21.9499080  34.7306270   5.9663670  23.5329340
  33.7896410   5.9813900  23.7077030  35.0450340   5.1799630  23.9789640
  24.7087910   7.6483270  17.0933300  25.4751180   7.5364630  17.6558730
  24.7862600   6.9521240  16.4410070  23.4034670   5.0808340  17.7766190
  23.4838260   4.1335850  17.8883590  24.2954420   5.4115220  17.8826850
  36.7331850  13.1372520  25.2083600  36.8579270  13.9603690  25.6807410
  37.5997410  12.9263250  24.8607750  24.2049380  15.2303730  24.8800730
  24.9411860  14.6819190  25.1509300  24.5890300  16.0959740  24.7406720
  21.0894860  11.2977300  20.7542240  20.1634640  11.5398440  20.7447650
  21.5551290  12.1251560  20.6326990  23.2107660  14.4149800  34.0686310
  24.0120390  14.7361850  34.4821710  22.6959480  14.0545380  34.7906220
  27.3151690  14.4034040  16.7026300  28.1080300  14.6922870  16.2508090
  26.7956040  13.9726210  16.0238780  32.0472290  10.5229670  34.0161720
  31.4410450  10.5461270  33.2757470  31.7426400   9.7912710  34.5528970
  33.4772660  14.2509960  32.6271130  34.4294410  14.1667980  32.5771370
  33.3300880  14.9151670  33.3004920  36.3681860  13.6304170  18.1263040
  36.0823370  13.2169310  17.3117220  36.1701410  14.5591880  18.0063560
  20.9305470   6.9023260  33.0122360  21.4344490   6.3230540  33.5838590
  20.1912890   7.1863490  33.5498730  27.8329090   9.6237450  16.5668650
  27.7279730   9.0089800  17.2930030  27.6653310   9.1003340  15.7831660
  27.9843410   8.3094250  32.5457880  27.2189080   8.8779250  32.4612550
  28.1659370   8.0170460  31.6526110  31.0731820   8.6857480  17.1710640
  30.5241920   9.1326780  17.8153380  31.6951080   8.1806730  17.6948310
  35.1266760  10.0399580  33.1032900  35.8676230  10.3775340  32.6000360
  34.3639440  10.2091640  32.5502670  22.9628550   5.0452850  33.9072430
  23.0033890   4.7466720  34.8157660  23.8174050   5.4460460  33.7479950
  26.7406940   7.6448400  19.0675940  27.1623360   7.4788270  19.9107330
  26.8657780   6.8348630  18.5731080  24.9034360   3.6244950  31.8746920
  24.3730820   3.1335900  31.2470260  25.5722430   4.0529150  31.3404850
  29.2534580   6.6686010  16.3153040  29.7740240   5.9535030  15.9494190
  29.9002980   7.3071880  16.6153550  33.8012420   8.0914410  31.6388110
  34.2153440   8.2459490  32.4878530  32.8663420   8.2169630  31.8013890
  34.2734590   5.4310570  33.6427260  34.8555360   4.6762890  33.5547740
  34.4496360   5.9618010  32.8658740  28.5627650   8.0434890  29.6084040
  28.9815760   8.8867620  29.4360280  27.6436280   8.1806930  29.3790820
  30.8991550   5.7751070  30.9921880  31.0187760   5.1792210  31.7316720
  31.7585550   5.8120760  30.5723180  33.2379450   6.3288260  29.5684390
  32.7114670   6.8530880  28.9649530  33.5810790   6.9615650  30.1994120
  25.6365840   3.7181630  16.0134100  25.4354900   2.8548990  16.3747440
  25.4657890   3.6314990  15.0755700  26.4135070  14.3487900  30.7241770
  25.8756160  15.0733960  30.4050470  26.6669030  13.8718240  29.9339110
  27.6660320   2.3172420  32.2497700  28.2560010   2.0088270  32.9375520
  26.8480560   1.8452170  32.4057600  29.2697280  15.5839110  30.9828420
  29.1955980  16.4874250  31.2900790  28.3676120  15.2651010  30.9550490
  29.8182610  14.7497620  18.6054780  30.7133400  15.0882590  18.6273540
  29.8500240  14.0277030  17.9779060  23.4578770  10.1224670  16.8341780
  23.8953640  10.6654340  17.4899360  23.9426500   9.2971620  16.8438120
  20.6724570  12.9113700  24.2862040  21.0027580  12.0434760  24.0540680
  21.1015570  13.1172220  25.1167000  25.2686490  11.2422710  21.9464010
  24.9682030  11.1187680  22.8467920  25.1623980  10.3831300  21.5379740
  21.1614780  13.7784290  27.0243670  20.7245770  13.9585090  27.8567820
  21.7292460  14.5358910  26.8825390  36.7976960  13.2801290  31.3120980
  36.1978950  13.3393850  30.5684900  36.9270860  12.3406270  31.4417830
  38.0378410  11.0219110  16.6490690  37.2071370  11.0895760  17.1197920
  38.2150240  11.9123230  16.3457550  37.4934870   7.7666590  19.1524890
  38.2553780   8.3363240  19.2584580  37.5089240   7.1993790  19.9233200
  20.9939210   6.2904520  23.3832550  20.3388050   6.0216160  22.7392250
  21.8317160   6.1809000  22.9334530  38.4994840   8.6216690  23.9966820
  38.8703670   7.8384010  23.5902790  39.1396770   9.3105790  23.8184120
  35.4828600  10.0053270  29.4097140  34.6688440  10.4350430  29.6722930
  35.8902800  10.6171680  28.7966190  37.5454040   8.0600960  16.3097410
  37.8202880   8.9679840  16.1816630  37.3564780   7.9963490  17.2459400
  37.4419380   5.9969950  21.3026840  37.0662980   5.2297880  20.8708130
  36.7122500   6.3792650  21.7901770  22.0315140   6.6757090  27.9235890
  22.3988180   6.5884490  28.8031910  21.4625960   5.9123640  27.8242750
  36.8319000   5.1441470  30.9366360  36.6005090   4.9154220  30.0364310
  37.0923550   6.0641020  30.8911250  21.5831140   3.5866180  31.8294310
  20.6887190   3.5532940  32.1688020  22.1228690   3.7852970  32.5945560
  20.2077290   3.5003450  19.3257880  19.3041370   3.7633650  19.1509540
  20.6917910   3.7714620  18.5457840  36.7170340   4.2227440  24.6034080
  37.2407820   3.7290090  23.9724250  37.3029760   4.3577800  25.3481650
  36.8960060   4.3067310  28.1253630  35.9462770   4.2730850  28.2398620
  37.0773070   5.2167420  27.8903400  22.7504500   2.5568990  17.2352260
  23.4596200   2.1352210  16.7499540  22.0344440   2.6244220  16.6035610
  36.2070310   3.4800790  20.5426490  36.7029430   3.2471660  21.3275370
  36.0086380   2.6412630  20.1264130  37.6357470   2.1161740  23.0764170
  37.5256750   1.9617780  24.0146440  38.3965060   1.5882680  22.8339580
  35.5404650  14.7571870  22.9365410  36.1363720  14.4356440  22.2599830
  35.7982800  14.2843690  23.7278680  23.4467220  11.1889780  33.0856040
  23.4036850  10.8182690  33.9670500  23.5778230  12.1267350  33.2257860
  27.1473250  12.7449370  28.6865760  26.9064610  13.0123930  27.7996280
  28.0875890  12.9155100  28.7416620  38.4077410  14.7643750  29.4876400
  37.9135690  15.1612620  28.7703530  37.7990700  14.1392960  29.8813680
  23.2855250  14.1352030  30.2053820  22.6915570  14.0036730  30.9443860
  23.2779090  13.2990170  29.7395920  36.0916860  15.4067170  26.7663140
  35.6319830  16.1582980  26.3921160  35.4629320  14.6873640  26.7077940
  22.9167480  11.5010410  29.1561860  22.1901540  10.8815700  29.0887810
  22.9776630  11.8951020  28.2859940  26.5212580  13.7155410  25.9411270
  27.0377600  13.1042770  25.4159530  27.1709960  14.2184190  26.4322280
  29.2608080  14.6063900  26.7680250  29.5485890  14.3518200  25.8913260
  29.7731300  14.0541260  27.3585820  21.1997480  14.8184800  22.3658620
  21.0319520  14.1855480  23.0640510  20.3331990  15.0244200  22.0152810
  22.8060180  13.5118030  19.8108760  22.2807800  13.8926060  19.1070720
  22.7304760  14.1368800  20.5318470  29.3280440  15.5280000  34.1348450
  30.2547750  15.2924270  34.1784410  29.3130870  16.3552000  33.6534480
  37.5625500  15.0705570  21.1322700  37.7377690  14.3843310  20.4883620
  36.8647070  15.5952620  20.7399370  25.4053150  15.4600410  18.6858010
  26.1371970  15.1759690  18.1381900  25.6646820  15.2213690  19.5757390
  24.5667940  11.5765140  18.6904340  23.9376820  12.0450240  19.2390170
  24.6815770  10.7314360  19.1250530  35.8958000  14.7549860  33.9589490
  36.6883320  14.2599090  33.7515450  36.1891150  15.4340000  34.5665100
  32.0217660   5.6270800   4.8405540  31.9411710   4.7125410   4.5697250
  31.6082080   6.1237870   4.1345250  30.1535700   7.4049820   6.7214810
  29.3777800   6.9250260   7.0113380  30.8048630   6.7255470   6.5470970
  24.1701530   7.7169630   7.5990570  23.3386410   7.4618340   7.9987080
  24.7782510   7.7880400   8.3348490  34.1743130  11.8110010   5.5013940
  33.7124660  11.0397250   5.8301110  34.9868680  11.8376080   6.0066390
  24.1502790  11.7509720   7.7948590  24.4530830  10.8607460   7.6158810
  24.8946380  12.3079940   7.5670840  20.5426490   5.2777170   7.2672660
  21.1142600   4.5099370   7.2676300  20.5428030   5.5765930   6.3579270
  30.4006440  14.0968020   5.1217930  29.7817880  14.5525520   4.5512370
  31.2558220  14.2519480   4.7207630  29.5944690  10.0807010   6.7284970
  29.5252970   9.1396950   6.5674100  30.3564550  10.1708420   7.3007540
  30.6249860   2.8877390   6.9553900  31.0014680   2.0149270   6.8427570
  30.5269370   3.2236090   6.0644340  22.4038030   3.1822030   7.6623930
  23.0848140   3.4460400   8.2811330  22.0886080   2.3422900   7.9961940
  26.5962600   4.2289390   6.7496520  27.1040820   4.7270360   7.3901540
  27.1275840   3.4524590   6.5735880  38.6973530   2.3994580  10.4525870
  37.9925700   2.7876290   9.9340980  38.9631450   3.0944870  11.0546800
  31.2669790   8.9807260   2.5149840  30.6487060   9.4456710   1.9512560
  31.7793040   9.6734740   2.9319350  26.1301550   8.5083130   9.1933440
  25.7970930   9.1352050   9.8354510  26.3068230   9.0345010   8.4135110
  34.6435460   2.3228210   6.6609780  33.9391030   2.6113100   7.2412890
  35.0047620   3.1328320   6.3009340  25.3420650  10.4763930  11.0082620
  25.9594650  11.1515010  10.7267070  24.4813770  10.8851910  10.9170120
  36.2598240  11.9403340   8.9237260  35.5761760  12.6102450   8.9153930
  36.7992530  12.1383990   8.1582120  37.7122380   1.7683000   7.0518990
  36.7647290   1.8021980   7.1834420  38.0372370   2.5821950   7.4368350
  33.7956980  13.7847470   7.6382440  33.8084140  13.3809760   6.7704700
  33.2432200  14.5594760   7.5343870  35.0902400  10.5063690   2.7272610
  34.9798730   9.5638020   2.8522030  35.0870650  10.8679330   3.6135370
  33.1942420   8.6877310   8.9665050  33.6111210   8.4737420   8.1318510
  33.9182240   8.9450100   9.5373670  30.6322680   6.1329010   2.0835100
  29.7051960   6.0666390   2.3123570  30.7847500   7.0709140   1.9690340
  37.1404520   7.0864530   9.0581290  36.3123150   7.1557620   8.5831420
  37.7355000   7.6718840   8.5897120  34.6619970   7.6949310   2.5870350
  34.0432390   7.3568860   1.9396650  34.6444420   7.0509070   3.2949540
  34.1046530   3.8733850  10.0036160  33.6917710   4.6987560  10.2576150
  33.3722480   3.2878890   9.8112520  26.2379320   6.6593750   4.8654830
  25.8336320   5.9471000   4.3700730  26.3242440   6.3146990   5.7542870
  26.7061020  10.3461310   7.0294040  26.4089310   9.7406780   6.3501820
  27.6560840  10.3838620   6.9183400  24.9507940   3.4336960   8.6453870
  25.5022530   3.5432300   7.8707120  25.4651450   3.8074560   9.3609100
  34.7946630  13.9193180  10.6917140  34.3177190  14.7265370  10.4989750
  34.1108420  13.2671510  10.8443350  25.7979450  10.0843000  13.6801840
  24.9007980  10.3082970  13.9275240  25.8232320  10.2077940  12.7313240
  24.6250670   6.9556320  12.2559210  24.4858440   7.8279120  12.6246610
  23.7432030   6.6129130  12.1107150  30.9480050  11.8732190   3.5624340
  31.3875960  12.6156520   3.1479730  30.8866940  12.1158760   4.4863300
  26.4231020  12.8978020  14.4644360  26.3946450  13.3020970  13.5972790
  26.2595990  11.9688380  14.3015960  22.9383950   5.5538730   2.3661480
  22.8181550   6.2800820   1.7542750  22.6284840   4.7841640   1.8889390
  38.3745840  13.6805120  15.7608530  38.8505560  14.1588010  16.4397610
  38.9953000  13.6122610  15.0354030  20.5769320   8.7253870   8.1730120
  20.6549740   8.8602640   7.2285840  21.1911000   8.0169760   8.3658240
  21.8216950  10.4254060   4.5836300  21.4145030  10.5668650   3.7289900
  22.7129960  10.1414220   4.3807510  37.7779090  10.8717970  12.9208540
  37.9042150  10.6329850  12.0025720  37.8200470  10.0402510  13.3930620
  31.6395830  14.5745970  11.4903350  32.1540500  14.4853980  12.2925780
  30.7964910  14.9205670  11.7831260  26.0938610  14.6399840   2.6958970
  25.9181090  13.7235380   2.4826770  25.2394350  14.9987130   2.9356770
  32.8826290  13.9951580   3.5533840  33.3383240  13.2140960   3.8672460
  33.2218810  14.7058400   4.0975020  37.6303100   2.9250430  13.8858280
  37.0147370   3.4330100  13.3573740  37.3099520   2.0248760  13.8284220
  20.6328840   9.7668040  10.7124580  20.7959880   9.2973400   9.8943950
  21.0981290   9.2591600  11.3773420  34.6921930   2.9851270  12.4817130
  33.8415520   2.6857020  12.8026200  34.5323720   3.2293280  11.5700950
  31.7871640   4.4853020  14.5815920  32.1125050   3.6516770  14.2418150
  32.5751970   5.0081540  14.7294250  25.1961830   4.0207370   3.4766400
  24.9702750   3.8044540   4.3813020  24.4154360   4.4535830   3.1312370
  32.4259590   4.0270740   2.0757050  31.8268480   4.7506540   1.8920670
  32.9739200   3.9647520   1.2933500  27.6361040   4.9192950  14.1426670
  27.5404640   3.9787680  13.9927070  28.4793020   5.1408020  13.7474740
  31.0324460   2.6634280   4.1060330  31.4254030   2.9806480   3.2929020
  31.3941310   1.7846160   4.2204850  31.6179600   5.2540030   8.2011110
  30.8860720   5.7626840   8.5501210  31.2203940   4.4370010   7.8999890
  22.2067820   9.1419470  12.8720390  21.8222610   8.5013140  13.4703350
  22.5180010   9.8455590  13.4415120  28.3564960   5.9896010   8.3529010
  28.7235090   5.5154580   9.0990350  28.1670020   6.8637580   8.6937350
  26.1464330   5.0304650  10.6713220  25.8421400   5.9096630  10.8963580
  27.1010790   5.0904440  10.7070660  35.4334100   8.2331000   7.0606460
  36.1533220   8.7286290   6.6702570  35.2315920   7.5548890   6.4160330
  30.8152900   8.3040060  12.9475460  30.7490210   7.3835730  12.6933050
  30.1858040   8.4015500  13.6620100  24.7183520   8.9046020   4.9058880
  25.2362190   8.1014280   4.8515770  24.2667540   8.8425160   5.7475710
  22.2028060   5.8707390  11.8184580  21.8443000   6.5361240  12.4057920
  21.9082620   5.0390940  12.1897200  25.4041180   6.3291630  14.7024130
  25.1041320   6.4748810  13.8051950  26.1752420   5.7696920  14.6097520
  30.7469630  11.1260630  12.6979260  30.7614170  10.1941590  12.4798170
  30.0394730  11.2120390  13.3369030  36.9580840   7.7667970  12.0447840
  36.2329030   8.3596750  11.8477230  37.4856300   7.7591510  11.2461210
  32.4880430   9.4928140   5.5431690  32.8404250   8.8956270   4.8833060
  31.6042760   9.1672370   5.7139940  28.5743710  10.2525830   2.9502100
  29.2614840  10.7995040   3.3309690  27.7876130  10.7966560   2.9851710
  27.8770920   7.2571860   2.5627460  28.3333700   8.0677110   2.7887650
  27.5259130   6.9395000   3.3945950  30.1803530  12.7678200   9.7919760
  30.8245750  12.9737580  10.4693180  30.5432970  12.0066600   9.3390610
  31.4535610  10.7710550   8.5097210  32.0957840  10.0703710   8.6229380
  31.9784960  11.5508990   8.3294100  33.2273230  11.5705450  11.7133270
  33.5629470  12.1572140  12.3911190  32.3073570  11.4398160  11.9431060
  21.0649220  13.3480890  13.4823210  21.1740340  12.4075630  13.3418600
  20.4129780  13.6135640  12.8336940  29.0561810  11.6196780  14.8821330
  28.7358680  10.9006020  15.4267020  28.3820170  12.2951850  14.9557390
  27.6061470   3.0865830   2.4703570  26.8977620   3.5552170   2.9117180
  27.8905950   2.4287840   3.1048760  29.2317400   4.5062530  10.4696100
  29.7302650   4.9808350  11.1347950  29.3740350   3.5826050  10.6766130
  28.7253690  15.0471790   3.1827340  28.9795190  15.0093180   2.2606710
  27.7766170  14.9205120   3.1755590  34.7306270   5.9663670   4.7585850
  33.7896410   5.9813900   4.9333540  35.0450340   5.1799630   5.2046150
  36.7331850  13.1372520   6.4340110  36.8579270  13.9603690   6.9063920
  37.5997410  12.9263250   6.0864260  24.2049380  15.2303730   6.1057240
  24.9411860  14.6819190   6.3765810  24.5890300  16.0959740   5.9663230
  21.0894860  11.2977300   1.9798750  20.1634640  11.5398440   1.9704160
  21.5551290  12.1251560   1.8583500  23.2107660  14.4149800  15.2942820
  24.0120390  14.7361850  15.7078220  22.6959480  14.0545380  16.0162730
  32.0472290  10.5229670  15.2418230  31.4410450  10.5461270  14.5013980
  31.7426400   9.7912710  15.7785480  33.4772660  14.2509960  13.8527640
  34.4294410  14.1667980  13.8027880  33.3300880  14.9151670  14.5261430
  20.9305470   6.9023260  14.2378870  21.4344490   6.3230540  14.8095100
  20.1912890   7.1863490  14.7755240  27.9843410   8.3094250  13.7714390
  27.2189080   8.8779250  13.6869060  28.1659370   8.0170460  12.8782620
  35.1266760  10.0399580  14.3289410  35.8676230  10.3775340  13.8256870
  34.3639440  10.2091640  13.7759180  22.9628550   5.0452850  15.1328940
  23.0033890   4.7466720  16.0414170  23.8174050   5.4460460  14.9736460
  24.9034360   3.6244950  13.1003430  24.3730820   3.1335900  12.4726770
  25.5722430   4.0529150  12.5661360  33.8012420   8.0914410  12.8644620
  34.2153440   8.2459490  13.7135040  32.8663420   8.2169630  13.0270400
  34.2734590   5.4310570  14.8683770  34.8555360   4.6762890  14.7804250
  34.4496360   5.9618010  14.0915250  28.5627650   8.0434890  10.8340550
  28.9815760   8.8867620  10.6616790  27.6436280   8.1806930  10.6047330
  30.8991550   5.7751070  12.2178390  31.0187760   5.1792210  12.9573230
  31.7585550   5.8120760  11.7979690  33.2379450   6.3288260  10.7940900
  32.7114670   6.8530880  10.1906040  33.5810790   6.9615650  11.4250630
  26.4135070  14.3487900  11.9498280  25.8756160  15.0733960  11.6306980
  26.6669030  13.8718240  11.1595620  27.6660320   2.3172420  13.4754210
  28.2560010   2.0088270  14.1632030  26.8480560   1.8452170  13.6314110
  29.2697280  15.5839110  12.2084930  29.1955980  16.4874250  12.5157300
  28.3676120  15.2651010  12.1807000  20.6724570  12.9113700   5.5118550
  21.0027580  12.0434760   5.2797190  21.1015570  13.1172220   6.3423510
  25.2686490  11.2422710   3.1720520  24.9682030  11.1187680   4.0724430
  25.1623980  10.3831300   2.7636250  21.1614780  13.7784290   8.2500180
  20.7245770  13.9585090   9.0824330  21.7292460  14.5358910   8.1081900
  36.7976960  13.2801290  12.5377490  36.1978950  13.3393850  11.7941410
  36.9270860  12.3406270  12.6674340  20.9939210   6.2904520   4.6089060
  20.3388050   6.0216160   3.9648760  21.8317160   6.1809000   4.1591040
  38.4994840   8.6216690   5.2223330  38.8703670   7.8384010   4.8159300
  39.1396770   9.3105790   5.0440630  35.4828600  10.0053270  10.6353650
  34.6688440  10.4350430  10.8979440  35.8902800  10.6171680  10.0222700
  37.4419380   5.9969950   2.5283350  37.0662980   5.2297880   2.0964640
  36.7122500   6.3792650   3.0158280  22.0315140   6.6757090   9.1492400
  22.3988180   6.5884490  10.0288420  21.4625960   5.9123640   9.0499260
  36.8319000   5.1441470  12.1622870  36.6005090   4.9154220  11.2620820
  37.0923550   6.0641020  12.1167760  21.5831140   3.5866180  13.0550820
  20.6887190   3.5532940  13.3944530  22.1228690   3.7852970  13.8202070
  36.7170340   4.2227440   5.8290590  37.2407820   3.7290090   5.1980760
  37.3029760   4.3577800   6.5738160  36.8960060   4.3067310   9.3510140
  35.9462770   4.2730850   9.4655130  37.0773070   5.2167420   9.1159910
  36.2070310   3.4800790   1.7683000  36.7029430   3.2471660   2.5531880
  36.0086380   2.6412630   1.3520640  37.6357470   2.1161740   4.3020680
  37.5256750   1.9617780   5.2402950  38.3965060   1.5882680   4.0596090
  35.5404650  14.7571870   4.1621920  36.1363720  14.4356440   3.4856340
  35.7982800  14.2843690   4.9535190  23.4467220  11.1889780  14.3112550
  23.4036850  10.8182690  15.1927010  23.5778230  12.1267350  14.4514370
  27.1473250  12.7449370   9.9122270  26.9064610  13.0123930   9.0252790
  28.0875890  12.9155100   9.9673130  38.4077410  14.7643750  10.7132910
  37.9135690  15.1612620   9.9960040  37.7990700  14.1392960  11.1070190
  23.2855250  14.1352030  11.4310330  22.6915570  14.0036730  12.1700370
  23.2779090  13.2990170  10.9652430  36.0916860  15.4067170   7.9919650
  35.6319830  16.1582980   7.6177670  35.4629320  14.6873640   7.9334450
  22.9167480  11.5010410  10.3818370  22.1901540  10.8815700  10.3144320
  22.9776630  11.8951020   9.5116450  26.5212580  13.7155410   7.1667780
  27.0377600  13.1042770   6.6416040  27.1709960  14.2184190   7.6578790
  29.2608080  14.6063900   7.9936760  29.5485890  14.3518200   7.1169770
  29.7731300  14.0541260   8.5842330  21.1997480  14.8184800   3.5915130
  21.0319520  14.1855480   4.2897020  20.3331990  15.0244200   3.2409320
  29.3280440  15.5280000  15.3604960  30.2547750  15.2924270  15.4040920
  29.3130870  16.3552000  14.8790990  37.5625500  15.0705570   2.3579210
  37.7377690  14.3843310   1.7140130  36.8647070  15.5952620   1.9655880
  35.8958000  14.7549860  15.1846000  36.6883320  14.2599090  14.9771960
  36.1891150  15.4340000  15.7921610  13.2474170  61.9501270  61.1636010
  13.1668220  61.0355880  60.8927720  12.8338590  62.4468340  60.4575720
  11.3792210  63.7280290  63.0445280  10.6034310  63.2480730  63.3343850
  12.0305140  63.0485940  62.8701440   5.3958040  64.0400100  63.9221040
   4.5642920  63.7848810  64.3217550   6.0039020  64.1110870  64.6578960
   3.8049990  59.0001990  57.7063430   2.9166690  59.3417960  57.6043310
   4.0891180  58.8002310  56.8144260   1.7683000  61.6007640  63.5903130
   2.3399110  60.8329840  63.5906770   1.7684540  61.8996400  62.6809740
  10.8201200  66.4037480  63.0515440  10.7509480  65.4627420  62.8904570
  11.5821060  66.4938890  63.6238010   3.0107870  57.0092000  65.3772060
   2.8310710  56.1117750  65.6574820   2.6087950  57.5563870  66.0519010
  11.8506370  59.2107860  63.2784370  12.2271190  58.3379740  63.1658040
  11.7525880  59.5466560  62.3874810   5.9811380  57.5833490  58.7401810
   6.0878130  58.4837220  59.0470570   5.0703740  57.5351460  58.4496460
  15.6330490  56.7058300  60.2112710  16.4540110  56.2154870  60.2538190
  15.6664570  57.2955960  60.9644550   3.6294540  59.5052500  63.9854400
   4.3104650  59.7690870  64.6041800   3.3142590  58.6653370  64.3192410
   7.8219110  60.5519860  63.0726990   8.3297330  61.0500830  63.7132010
   8.3532350  59.7755060  62.8966350  19.9230040  58.7225050  66.7756340
  19.2182210  59.1106760  66.2571450  20.1887960  59.4175340  67.3777270
   6.1055210  55.1918420  67.3390410   6.1073650  55.7090810  66.5336310
   5.2759520  54.7148600  67.3160340  12.4926300  65.3037730  58.8380310
  11.8743570  65.7687180  58.2743030  13.0049550  65.9965210  59.2549820
   7.3558060  64.8313600  65.5163910   7.0227440  65.4582520  66.1584980
   7.5324740  65.3575480  64.7365580  15.8691970  58.6458680  62.9840250
  15.1647540  58.9343570  63.5643360  16.2304130  59.4558790  62.6239810
   5.7870540  56.9028380  65.3460860   6.1287350  57.7470430  65.0514730
   4.8486350  57.0512120  65.4626200   6.5677160  66.7994400  67.3313090
   7.1851160  67.4745480  67.0497540   5.7070280  67.2082380  67.2400590
   1.8609500  65.9894260  56.2119940   1.4837480  66.4781360  55.4804840
   2.1182570  66.6619540  56.8426470  18.9378890  58.0913470  63.3749460
  17.9903800  58.1252450  63.5064890  19.2628880  58.9052420  63.7598820
   9.4698430  54.3910650  61.6705450   9.7773410  53.8357540  60.9540950
   8.5399130  54.5255110  61.4878440  16.3158910  66.8294160  59.0503080
  16.2055240  65.8868490  59.1752500  16.3127160  67.1909800  59.9365840
  14.4198930  65.0107780  65.2895520  14.8367720  64.7967890  64.4548980
  15.1438750  65.2680570  65.8604140  11.8579190  62.4559480  58.4065570
  10.9308470  62.3896860  58.6354040  12.0104010  63.3939610  58.2920810
  11.8448270  58.7276480  55.4032730  10.9051940  58.8890440  55.4885190
  12.1631530  59.4462160  54.8568720  18.3661030  63.4095000  65.3811760
  17.5379660  63.4788090  64.9061890  18.9611510  63.9949310  64.9127590
  15.8876480  64.0179780  58.9100820  15.2688900  63.6799330  58.2627120
  15.8700930  63.3739540  59.6180010  15.3303040  60.1964320  66.3266630
  14.9174220  61.0218030  66.5806620  14.5978990  59.6109360  66.1342990
   7.4635830  62.9824220  61.1885300   7.0592830  62.2701470  60.6931200
   7.5498950  62.6377460  62.0773340   7.9317530  66.6691780  63.3524510
   7.6345820  66.0637250  62.6732290   8.8817350  66.7069090  63.2413870
   6.1764450  59.7567430  64.9684340   6.7279040  59.8662770  64.1937590
   6.6907960  60.1305030  65.6839570  14.0641180  63.2566590  55.9173570
  14.5034460  62.4189020  55.7711390  14.7769600  63.8895990  56.0037710
  17.6458320  54.5109400  54.2314610  17.3330980  54.6036230  55.1313680
  18.4070790  55.0890430  54.1812040   4.1640460  61.8769200  58.6891950
   4.0438060  62.6031290  58.0773220   3.8541350  61.1072110  58.2119860
   1.8025830  65.0484340  64.4960590   1.8806250  65.1833110  63.5516310
   2.4167510  64.3400230  64.6888710   3.0473460  66.7484530  60.9066770
   2.6401540  66.8899120  60.0520370   3.9386470  66.4644690  60.7037980
   1.8585350  66.0898510  67.0355050   2.0216390  65.6203870  66.2174420
   2.3237800  65.5822070  67.7003890   6.6304120  55.2204270  62.0715620
   6.1872270  56.0013810  61.7400140   7.1889110  55.5434160  62.7786560
   9.7462940  54.8414970  56.9521450   9.1217120  54.8374840  57.6774760
   9.6593060  53.9745930  56.5557420   8.6680020  55.7651600  63.9305220
   8.9652350  56.6714430  63.8497240   9.2165580  55.2770380  63.3164790
   6.4218340  60.3437840  59.7996870   6.1959260  60.1275010  60.7043490
   5.6410870  60.7766300  59.4542840  13.6516100  60.3501210  58.3987520
  13.0524990  61.0737010  58.2151140  14.1995710  60.2877990  57.6163970
  12.2580970  58.9864750  60.4290800  12.6510540  59.3036950  59.6159490
  12.6197820  58.1076630  60.5435320  12.8436110  61.5770500  64.5241580
  12.1117230  62.0857310  64.8731680  12.4460450  60.7600480  64.2230360
   9.2813500  58.2524700  62.9294070   9.2849560  57.8114650  62.0798610
  10.1764620  58.5742030  63.0365890   5.1315880  58.1351190  61.8888280
   4.7915930  58.6126420  62.6455330   4.3693200  57.6816310  61.5289380
   9.3433650  59.2536780  55.9200830   9.4646470  59.2123260  56.8686650
   8.9582160  60.1160930  55.7647560  13.3062020  57.0304180  63.9364520
  13.3234760  57.4812830  64.7806370  13.0577600  56.1309820  64.1497960
   8.3555150  61.5637920  55.3184130   7.7872050  61.1156170  54.6920040
   9.0644150  61.9230700  54.7849280   9.5821470  62.3126480  64.6759480
   9.9491600  61.8385050  65.4220820   9.3926530  63.1868050  65.0167820
   2.4461960  57.0570170  60.8052950   2.1608880  56.6925840  61.6431570
   2.3840820  56.3250630  60.1916090   7.3720840  61.3535120  66.9943690
   7.0677910  62.2327100  67.2194050   8.3267300  61.4134910  67.0301130
   5.9002630  65.5596110  57.5910540   5.1264890  65.0193730  57.4309260
   6.6297260  65.0402720  57.2528300  16.6590610  64.5561470  63.3836930
  17.3789730  65.0516760  62.9933040  16.4572430  63.8779360  62.7390800
  12.1200550  55.9499430  57.5266320  11.3065160  55.4512600  57.4511630
  11.9262500  56.7897680  57.1102670  14.8348940  60.3219080  55.8228480
  15.7228560  60.6336310  55.6479820  14.8054030  59.4491330  55.4309060
   5.9440030  65.2276490  61.2289350   6.4618700  64.4244750  61.1746240
   5.4924050  65.1655630  62.0706180  10.8309530  66.4942770  56.5016650
  11.1725230  67.2385000  56.0059970  10.0022240  66.8073890  56.8641480
  17.1063210  61.6330920  55.2908340  17.0226930  62.0645140  54.4404780
  17.8257400  62.0929270  55.7235160  13.7136940  65.8158610  61.8662160
  14.0660760  65.2186740  61.2063530  12.8299270  65.4902840  62.0370410
   9.8000220  66.5756300  59.2732570  10.4871350  67.1225510  59.6540160
   9.0132640  67.1197030  59.3082180   9.1027430  63.5802330  58.8857930
   9.5590210  64.3907580  59.1118120   8.7515640  63.2625470  59.7176420
   5.0039210  53.9239980  59.3580450   4.8753840  53.9157880  60.3065370
   4.1801230  54.2623070  59.0071460  16.5247840  67.3789640  54.5566820
  16.2985420  66.6620080  55.1491460  16.1344040  67.1302080  53.7188570
  16.1064090  65.2961580  56.2180980  15.8185790  65.7574270  57.0058860
  16.9016260  64.8359350  56.4865200   3.9239130  64.0102590  56.8931710
   3.3167080  64.7501490  56.9027010   4.3988480  64.1001950  56.0669910
  13.4971920  58.1753410  66.5688600  13.8652740  57.3548620  66.8968170
  12.6370120  58.2355300  66.9844250  16.8633950  57.1310350  57.3776160
  16.2347110  57.2356020  56.6634390  16.3685870  57.3507130  58.1670040
   8.8317980  59.4096300  58.7934040   8.1234130  59.8782640  59.2347650
   9.1162460  58.7518310  59.4279230  10.4573910  60.8293000  66.7926570
  10.9559160  61.3038820  67.4578420  10.5996860  59.9056520  66.9996600
  12.8633410  56.1346960  60.2329830  12.7401190  56.1533090  59.2839340
  13.8117970  56.1825900  60.3528230   7.0353000  57.7181380  56.1684750
   7.8843530  58.1551530  56.1024940   6.6684270  58.0301640  56.9956810
  17.6640770  57.0460960  67.6354960  17.1614370  57.7866360  67.9748770
  18.4797430  57.4344960  67.3191750  15.9562780  62.2894140  61.0816320
  15.0152920  62.3044370  61.2564010  16.2706850  61.5030100  61.5276620
   5.9344420  63.9713740  54.6420280   6.7007690  63.8595100  55.2045710
   6.0119110  63.2751710  53.9897050   4.6291180  61.4038810  55.3253170
   4.7094770  60.4566320  55.4370570   5.5210930  61.7345690  55.4313830
   9.0585600  65.9467920  54.1155630   8.9536240  65.3320270  54.8417010
   8.8909820  65.4233810  53.3318640  12.2988330  65.0087950  54.7197620
  11.7498430  65.4557250  55.3640360  12.9207590  64.5037200  55.2435290
   7.9663450  63.9678870  56.6162920   8.3879870  63.8018740  57.4594310
   8.0914290  63.1579100  56.1218060  10.4791090  62.9916480  53.8640020
  10.9996750  62.2765500  53.4981170  11.1259490  63.6302350  54.1640530
   9.3824610  55.4711030  66.5358580   8.9341910  55.4935290  65.6904130
   8.7489810  55.0730050  67.1328880   9.7884160  64.3665360  67.1571020
  10.2072270  65.2098090  66.9847260   8.8692790  64.5037400  66.9277800
  14.4635960  62.6518730  67.1171370  13.9371180  63.1761350  66.5136510
  14.8067300  63.2846120  67.7481100   6.8622350  60.0412100  53.5621080
   6.6611410  59.1779460  53.9234420   6.6914400  59.9545460  52.6242680
  14.3410660  54.8520330  56.0907960  14.6212950  54.0088230  56.4467380
  13.5676390  55.0843440  56.6046710   5.6605150  57.1412720  53.5498960
   5.9631050  57.1480150  52.6418110   6.3999740  56.7910580  54.0466620
   8.8790080  56.0847340  54.5355160   8.5312080  55.4071330  53.9557610
   9.0802850  55.6236850  55.3498550   4.6835280  66.4455140  54.3828760
   5.1210150  66.9884810  55.0386340   5.1683010  65.6202090  54.3925100
   6.4943000  67.5653180  59.4950990   6.1938540  67.4418150  60.3954900
   6.3880490  66.7061770  59.0866720  18.7191380  64.0897060  56.7011870
  19.4810290  64.6593710  56.8071560  18.7345750  63.5224260  57.4720180
   2.2195720  62.6134990  60.9319530   1.5644560  62.3446630  60.2879230
   3.0573670  62.5039470  60.4821510  19.7251350  64.9447160  61.5453800
  20.0960180  64.1614480  61.1389770  20.3653280  65.6336260  61.3671100
  16.7085110  66.3283740  66.9584120  15.8944950  66.7580900  67.2209910
  17.1159310  66.9402150  66.3453170  18.7710550  64.3831430  53.8584390
  19.0459390  65.2910310  53.7303610  18.5821290  64.3193960  54.7946380
  15.1686160  57.4076280  55.1538020  15.5871040  57.2207260  54.3134680
  14.8622220  56.5555330  55.4640950  18.6675890  62.3200420  58.8513820
  18.2919490  61.5528350  58.4195110  17.9379010  62.7023120  59.3388750
   3.2571650  62.9987560  65.4722870   3.6244690  62.9114960  66.3518890
   2.6882470  62.2354110  65.3729730  17.9426850  60.5457910  62.1521060
  18.4664330  60.0520560  61.5211230  18.5286270  60.6808270  62.8968630
  18.1216570  60.6297780  65.6740610  17.1719280  60.5961320  65.7885600
  18.3029580  61.5397890  65.4390380   3.9761010  58.8799460  54.7839240
   4.6852710  58.4582680  54.2986520   3.2600950  58.9474690  54.1522590
   3.6235170  54.9338790  53.8241890   4.3463300  55.4747730  54.1423110
   3.8959690  54.6602210  52.9483430  17.4326820  59.8031260  58.0913470
  17.9285940  59.5702130  58.8762350  17.2342890  58.9643100  57.6751110
   3.3127360  54.1844980  63.7264510   3.9603550  53.6342360  63.2859670
   3.7329200  54.4388130  64.5480320  18.8613980  58.4392210  60.6251150
  18.7513260  58.2848250  61.5633420  19.6221570  57.9113150  60.3826560
  17.2079700  54.3786340  67.0834150  17.8451920  54.9920480  67.4493340
  17.3554590  54.4147000  66.1383380  19.7504250  56.2700130  53.8657290
  20.6753560  56.1381310  53.6575580  19.7280040  56.3492950  54.8193740
  19.8242740  57.0410790  56.4914000  19.0294240  56.9755910  57.0206910
  20.0286020  57.9761430  56.4799350   3.0659360  54.3400650  66.4689830
   2.7174180  54.7964470  67.2348010   2.7347060  53.4457780  66.5512260
  13.9566780  53.7514730  65.9570830  13.0826620  54.0849840  65.7543760
  13.8477530  53.2787910  66.7822700  14.8638760  55.9585600  67.3412550
  14.5352120  55.1437360  66.9614280  15.8121060  55.9155410  67.2178240
  11.7041600  54.6684570  64.8963740  10.9213390  55.1430070  65.1760500
  11.4104530  53.7639400  64.7876920  16.2562670  55.3707670  62.9412830
  16.6970760  55.3152770  62.0934430  15.9870260  56.2865680  63.0123010
  18.1201240  55.0022910  60.9521650  18.0589640  54.0584130  60.8052670
  18.8993270  55.1103000  61.4975110   3.0482010  54.9732050  57.4177460
   3.8061370  55.0860930  56.8441490   2.5859180  55.8101250  57.3720890
   9.5895820  57.0871320  60.4079770   8.7770330  56.7128210  60.0675650
  10.0937460  56.3316400  60.7100960  14.0920800  53.7513770  61.6462840
  14.6950170  54.3233980  62.1211360  13.3513790  54.3153210  61.4236740
  17.2355400  54.1535330  56.9203120  17.4306030  55.0518780  57.1870550
  16.4485270  53.9222410  57.4136070   5.4207160  55.4996100  55.9579430
   5.9499920  54.7125900  55.8287380   6.0535480  56.1787290  56.1914960
   7.6145000  55.2371240  59.0124820   6.9847740  54.5358550  59.1794950
   7.0750140  55.9975370  58.7957980  13.2474170  61.9501270  42.3892520
  13.1668220  61.0355880  42.1184230  12.8338590  62.4468340  41.6832230
  11.3792210  63.7280290  44.2701790  10.6034310  63.2480730  44.5600360
  12.0305140  63.0485940  44.0957950   5.3958040  64.0400100  45.1477550
   4.5642920  63.7848810  45.5474060   6.0039020  64.1110870  45.8835470
   3.8049990  59.0001990  38.9319940   2.9166690  59.3417960  38.8299820
   4.0891180  58.8002310  38.0400770   1.7683000  61.6007640  44.8159640
   2.3399110  60.8329840  44.8163280   1.7684540  61.8996400  43.9066250
  10.8201200  66.4037480  44.2771950  10.7509480  65.4627420  44.1161080
  11.5821060  66.4938890  44.8494520   3.0107870  57.0092000  46.6028570
   2.8310710  56.1117750  46.8831330   2.6087950  57.5563870  47.2775520
  11.8506370  59.2107860  44.5040880  12.2271190  58.3379740  44.3914550
  11.7525880  59.5466560  43.6131320   5.9811380  57.5833490  39.9658320
   6.0878130  58.4837220  40.2727080   5.0703740  57.5351460  39.6752970
  15.6330490  56.7058300  41.4369220  16.4540110  56.2154870  41.4794700
  15.6664570  57.2955960  42.1901060   3.6294540  59.5052500  45.2110910
   4.3104650  59.7690870  45.8298310   3.3142590  58.6653370  45.5448920
   7.8219110  60.5519860  44.2983500   8.3297330  61.0500830  44.9388520
   8.3532350  59.7755060  44.1222860  19.9230040  58.7225050  48.0012850
  19.2182210  59.1106760  47.4827960  20.1887960  59.4175340  48.6033780
   6.1055210  55.1918420  48.5646920   6.1073650  55.7090810  47.7592820
   5.2759520  54.7148600  48.5416850  12.4926300  65.3037730  40.0636820
  11.8743570  65.7687180  39.4999540  13.0049550  65.9965210  40.4806330
   7.3558060  64.8313600  46.7420420   7.0227440  65.4582520  47.3841490
   7.5324740  65.3575480  45.9622090  15.8691970  58.6458680  44.2096760
  15.1647540  58.9343570  44.7899870  16.2304130  59.4558790  43.8496320
   5.7870540  56.9028380  46.5717370   6.1287350  57.7470430  46.2771240
   4.8486350  57.0512120  46.6882710   6.5677160  66.7994400  48.5569600
   7.1851160  67.4745480  48.2754050   5.7070280  67.2082380  48.4657100
   1.8609500  65.9894260  37.4376450   1.4837480  66.4781360  36.7061350
   2.1182570  66.6619540  38.0682980  18.9378890  58.0913470  44.6005970
  17.9903800  58.1252450  44.7321400  19.2628880  58.9052420  44.9855330
   9.4698430  54.3910650  42.8961960   9.7773410  53.8357540  42.1797460
   8.5399130  54.5255110  42.7134950  16.3158910  66.8294160  40.2759590
  16.2055240  65.8868490  40.4009010  16.3127160  67.1909800  41.1622350
  14.4198930  65.0107780  46.5152030  14.8367720  64.7967890  45.6805490
  15.1438750  65.2680570  47.0860650  11.8579190  62.4559480  39.6322080
  10.9308470  62.3896860  39.8610550  12.0104010  63.3939610  39.5177320
  11.8448270  58.7276480  36.6289240  10.9051940  58.8890440  36.7141700
  12.1631530  59.4462160  36.0825230  18.3661030  63.4095000  46.6068270
  17.5379660  63.4788090  46.1318400  18.9611510  63.9949310  46.1384100
  15.8876480  64.0179780  40.1357330  15.2688900  63.6799330  39.4883630
  15.8700930  63.3739540  40.8436520  15.3303040  60.1964320  47.5523140
  14.9174220  61.0218030  47.8063130  14.5978990  59.6109360  47.3599500
   7.4635830  62.9824220  42.4141810   7.0592830  62.2701470  41.9187710
   7.5498950  62.6377460  43.3029850   7.9317530  66.6691780  44.5781020
   7.6345820  66.0637250  43.8988800   8.8817350  66.7069090  44.4670380
   6.1764450  59.7567430  46.1940850   6.7279040  59.8662770  45.4194100
   6.6907960  60.1305030  46.9096080   7.0235960  66.4073470  51.2288820
   6.1264490  66.6313440  51.4762220   7.0488830  66.5308410  50.2800220
  14.0641180  63.2566590  37.1430080  14.5034460  62.4189020  36.9967900
  14.7769600  63.8895990  37.2294220   5.8507180  63.2786790  49.8046190
   5.7114950  64.1509590  50.1733590   4.9688540  62.9359600  49.6594130
  17.6458320  54.5109400  35.4571120  17.3330980  54.6036230  36.3570190
  18.4070790  55.0890430  35.4068550   4.1640460  61.8769200  39.9148460
   4.0438060  62.6031290  39.3029730   3.8541350  61.1072110  39.4376370
   1.8025830  65.0484340  45.7217100   1.8806250  65.1833110  44.7772820
   2.4167510  64.3400230  45.9145220   3.0473460  66.7484530  42.1323280
   2.6401540  66.8899120  41.2776880   3.9386470  66.4644690  41.9294490
  19.0035600  67.1948440  50.4695520  19.1298660  66.9560320  49.5512700
  19.0456980  66.3632980  50.9417600  18.8559610  59.2480900  51.4345260
  18.2403880  59.7560570  50.9060720  18.5356030  58.3479230  51.3771200
   1.8585350  66.0898510  48.2611560   2.0216390  65.6203870  47.4430930
   2.3237800  65.5822070  48.9260400   6.6304120  55.2204270  43.2972130
   6.1872270  56.0013810  42.9656650   7.1889110  55.5434160  44.0043070
  10.9173930  58.0872790  48.9007450  10.4553300  58.2955810  49.7127390
  10.5152040  57.2732140  48.5978120  15.9178440  59.3081740  50.0304110
  15.0672030  59.0087490  50.3513180  15.7580230  59.5523750  49.1187930
  13.0128150  60.8083490  52.1302900  13.3381560  59.9747240  51.7905130
  13.8008480  61.3312010  52.2781230   9.7462940  54.8414970  38.1777960
   9.1217120  54.8374840  38.9031270   9.6593060  53.9745930  37.7813930
   8.6680020  55.7651600  45.1561730   8.9652350  56.6714430  45.0753750
   9.2165580  55.2770380  44.5421300   6.4218340  60.3437840  41.0253380
   6.1959260  60.1275010  41.9300000   5.6410870  60.7766300  40.6799350
  13.6516100  60.3501210  39.6244030  13.0524990  61.0737010  39.4407650
  14.1995710  60.2877990  38.8420480   8.8617550  61.2423420  51.6913650
   8.7661150  60.3018150  51.5414050   9.7049530  61.4638490  51.2961720
  12.2580970  58.9864750  41.6547310  12.6510540  59.3036950  40.8416000
  12.6197820  58.1076630  41.7691830   3.9928090  57.6537090  49.8447430
   3.5991480  58.5012300  50.0520210   3.3046490  57.0163460  50.0356070
  10.5673140  57.7372060  52.9144170   9.8771460  57.5444260  53.5490260
  11.3105440  58.0206700  53.4468470  12.8436110  61.5770500  45.7498090
  12.1117230  62.0857310  46.0988190  12.4460450  60.7600480  45.4486870
   9.2813500  58.2524700  44.1550580   9.2849560  57.8114650  43.3055120
  10.1764620  58.5742030  44.2622400   5.1315880  58.1351190  43.1144790
   4.7915930  58.6126420  43.8711840   4.3693200  57.6816310  42.7545890
   9.3433650  59.2536780  37.1457340   9.4646470  59.2123260  38.0943160
   8.9582160  60.1160930  36.9904070  13.3062020  57.0304180  45.1621030
  13.3234760  57.4812830  46.0062880  13.0577600  56.1309820  45.3754470
   8.3555150  61.5637920  36.5440640   7.7872050  61.1156170  35.9176550
   9.0644150  61.9230700  36.0105790  16.7332770  54.4436360  51.0007410
  17.0578540  53.7126020  51.5265390  16.7689280  54.1250000  50.0988400
   3.4324330  65.4649940  50.4207370   3.0479120  64.8243610  51.0190330
   3.7436520  66.1686060  50.9902100   9.5821470  62.3126480  45.9015990
   9.9491600  61.8385050  46.6477330   9.3926530  63.1868050  46.2424330
   2.4461960  57.0570170  42.0309460   2.1608880  56.6925840  42.8688080
   2.3840820  56.3250630  41.4172600   7.3720840  61.3535120  48.2200200
   7.0677910  62.2327100  48.4450560   8.3267300  61.4134910  48.2557640
   5.9002630  65.5596110  38.8167050   5.1264890  65.0193730  38.6565770
   6.6297260  65.0402720  38.4784810  16.6590610  64.5561470  44.6093440
  17.3789730  65.0516760  44.2189550  16.4572430  63.8779360  43.9647310
  12.1200550  55.9499430  38.7522830  11.3065160  55.4512600  38.6768140
  11.9262500  56.7897680  38.3359180  12.0409410  64.6270530  50.4962440
  11.9746720  63.7066200  50.2420030  11.4114550  64.7245970  51.2107080
  14.8348940  60.3219080  37.0484990  15.7228560  60.6336310  36.8736330
  14.8054030  59.4491330  36.6565570   5.9440030  65.2276490  42.4545860
   6.4618700  64.4244750  42.4002750   5.4924050  65.1655630  43.2962690
  10.8309530  66.4942770  37.7273160  11.1725230  67.2385000  37.2316480
  10.0022240  66.8073890  38.0897990   3.4284570  62.1937860  49.3671560
   3.0699510  62.8591710  49.9544900   3.1339130  61.3621410  49.7384180
   6.6297690  62.6522100  52.2511110   6.3297830  62.7979280  51.3538930
   7.4008930  62.0927390  52.1584500  11.9726140  67.4491100  50.2466240
  11.9870680  66.5172060  50.0285150  11.2651240  67.5350860  50.8856010
  17.1063210  61.6330920  36.5164850  17.0226930  62.0645140  35.6661290
  17.8257400  62.0929270  36.9491670  18.1837350  64.0898440  49.5934820
  17.4585540  64.6827220  49.3964210  18.7112810  64.0821980  48.7948190
  13.7136940  65.8158610  43.0918670  14.0660760  65.2186740  42.4320040
  12.8299270  65.4902840  43.2626920   9.8000220  66.5756300  40.4989080
  10.4871350  67.1225510  40.8796670   9.0132640  67.1197030  40.5338690
   9.1027430  63.5802330  40.1114440   9.5590210  64.3907580  40.3374630
   8.7515640  63.2625470  40.9432930   5.0039210  53.9239980  40.5836960
   4.8753840  53.9157880  41.5321880   4.1801230  54.2623070  40.2327970
  16.5247840  67.3789640  35.7823330  16.2985420  66.6620080  36.3747970
  16.1344040  67.1302080  34.9445080  16.1064090  65.2961580  37.4437490
  15.8185790  65.7574270  38.2315370  16.9016260  64.8359350  37.7121710
   3.9239130  64.0102590  38.1188220   3.3167080  64.7501490  38.1283520
   4.3988480  64.1001950  37.2926420  13.4971920  58.1753410  47.7945110
  13.8652740  57.3548620  48.1224680  12.6370120  58.2355300  48.2100760
  16.8633950  57.1310350  38.6032670  16.2347110  57.2356020  37.8890900
  16.3685870  57.3507130  39.3926550   8.8317980  59.4096300  40.0190550
   8.1234130  59.8782640  40.4604160   9.1162460  58.7518310  40.6535740
  10.4573910  60.8293000  48.0183080  10.9559160  61.3038820  48.6834930
  10.5996860  59.9056520  48.2253110  12.8633410  56.1346960  41.4586340
  12.7401190  56.1533090  40.5095850  13.8117970  56.1825900  41.5784740
   7.0353000  57.7181380  37.3941260   7.8843530  58.1551530  37.3281450
   6.6684270  58.0301640  38.2213320  17.6640770  57.0460960  48.8611470
  17.1614370  57.7866360  49.2005280  18.4797430  57.4344960  48.5448260
  15.9562780  62.2894140  42.3072830  15.0152920  62.3044370  42.4820520
  16.2706850  61.5030100  42.7533130   5.9344420  63.9713740  35.8676790
   6.7007690  63.8595100  36.4302220   6.0119110  63.2751710  35.2153560
   4.6291180  61.4038810  36.5509680   4.7094770  60.4566320  36.6627080
   5.5210930  61.7345690  36.6570340  13.2728800  66.8460140  52.7905210
  12.6666960  66.8691740  52.0500960  12.9682910  66.1143180  53.3272460
   9.0585600  65.9467920  35.3412140   8.9536240  65.3320270  36.0673520
   8.8909820  65.4233810  34.5575150   9.2099920  64.6324720  51.3201370
   8.4445590  65.2009720  51.2356040   9.3915880  64.3400930  50.4269600
  12.2988330  65.0087950  35.9454130  11.7498430  65.4557250  36.5896870
  12.9207590  64.5037200  36.4691800  16.3523270  66.3630050  51.8776390
  17.0932740  66.7005810  51.3743850  15.5895950  66.5322110  51.3246160
   4.1885060  61.3683320  52.6815920   4.2290400  61.0697190  53.5901150
   5.0430560  61.7690930  52.5223440   7.9663450  63.9678870  37.8419430
   8.3879870  63.8018740  38.6850820   8.0914290  63.1579100  37.3474570
   6.1290870  59.9475420  50.6490410   5.5987330  59.4566370  50.0213750
   6.7978940  60.3759620  50.1148340  10.4791090  62.9916480  35.0896530
  10.9996750  62.2765500  34.7237680  11.1259490  63.6302350  35.3897040
  15.0268930  64.4144880  50.4131600  15.4409950  64.5689960  51.2622020
  14.0919930  64.5400100  50.5757380  15.4991100  61.7541040  52.4170750
  16.0811870  60.9993360  52.3291230  15.6752870  62.2848480  51.6402230
   6.6163170  56.9137790  50.7287700   6.5220040  56.2958540  50.0038570
   6.0360560  57.6404080  50.5017610   9.3824610  55.4711030  47.7615090
   8.9341910  55.4935290  46.9160640   8.7489810  55.0730050  48.3585390
   9.7884160  64.3665360  48.3827530  10.2072270  65.2098090  48.2103770
   8.8692790  64.5037400  48.1534310  12.1248060  62.0981540  49.7665370
  12.2444270  61.5022680  50.5060210  12.9842060  62.1351230  49.3466670
  14.4635960  62.6518730  48.3427880  13.9371180  63.1761350  47.7393020
  14.8067300  63.2846120  48.9737610   6.8622350  60.0412100  34.7877590
   6.6611410  59.1779460  35.1490930   6.6914400  59.9545460  33.8499190
   8.8916830  58.6402890  51.0241190   9.4816520  58.3318740  51.7119010
   8.0737070  58.1682640  51.1801090  13.7110260  58.2568700  51.2574210
  13.0225780  57.5950240  51.1924200  14.4316280  57.8106970  51.7022670
  14.3410660  54.8520330  37.3164470  14.6212950  54.0088230  37.6723890
  13.5676390  55.0843440  37.8303220   5.6605150  57.1412720  34.7755470
   5.9631050  57.1480150  33.8674620   6.3999740  56.7910580  35.2723130
   8.8790080  56.0847340  35.7611670   8.5312080  55.4071330  35.1814120
   9.0802850  55.6236850  36.5755060   4.6835280  66.4455140  35.6085270
   5.1210150  66.9884810  36.2642850   5.1683010  65.6202090  35.6181610
   6.4943000  67.5653180  40.7207500   6.1938540  67.4418150  41.6211410
   6.3880490  66.7061770  40.3123230  18.7191380  64.0897060  37.9268380
  19.4810290  64.6593710  38.0328070  18.7345750  63.5224260  38.6976690
   2.2195720  62.6134990  42.1576040   1.5644560  62.3446630  41.5135740
   3.0573670  62.5039470  41.7078020  19.7251350  64.9447160  42.7710310
  20.0960180  64.1614480  42.3646280  20.3653280  65.6336260  42.5927610
  16.7085110  66.3283740  48.1840630  15.8944950  66.7580900  48.4466420
  17.1159310  66.9402150  47.5709680  18.7710550  64.3831430  35.0840900
  19.0459390  65.2910310  34.9560120  18.5821290  64.3193960  36.0202890
  15.1686160  57.4076280  36.3794530  15.5871040  57.2207260  35.5391190
  14.8622220  56.5555330  36.6897460  18.6675890  62.3200420  40.0770330
  18.2919490  61.5528350  39.6451620  17.9379010  62.7023120  40.5645260
   3.2571650  62.9987560  46.6979380   3.6244690  62.9114960  47.5775400
   2.6882470  62.2354110  46.5986240  18.0575510  61.4671940  49.7109850
  17.8261600  61.2384690  48.8107800  18.3180060  62.3871490  49.6654740
   2.8087650  59.9096650  50.6037800   1.9143700  59.8763410  50.9431510
   3.3485200  60.1083440  51.3689050  16.4963580  56.6928370  52.4889550
  17.3733760  56.7011770  52.8723550  16.5084420  55.9559210  51.8781900
  17.9426850  60.5457910  43.3777570  18.4664330  60.0520560  42.7467740
  18.5286270  60.6808270  44.1225140  18.1216570  60.6297780  46.8997120
  17.1719280  60.5961320  47.0142110  18.3029580  61.5397890  46.6646890
   3.9761010  58.8799460  36.0095750   4.6852710  58.4582680  35.5243030
   3.2600950  58.9474690  35.3779100   3.6235170  54.9338790  35.0498400
   4.3463300  55.4747730  35.3679620   3.8959690  54.6602210  34.1739940
  17.4326820  59.8031260  39.3169980  17.9285940  59.5702130  40.1018860
  17.2342890  58.9643100  38.9007620   3.3127360  54.1844980  44.9521020
   3.9603550  53.6342360  44.5116180   3.7329200  54.4388130  45.7736830
  18.8613980  58.4392210  41.8507660  18.7513260  58.2848250  42.7889930
  19.6221570  57.9113150  41.6083070  17.2079700  54.3786340  48.3090660
  17.8451920  54.9920480  48.6749850  17.3554590  54.4147000  47.3639890
  19.7504250  56.2700130  35.0913800  20.6753560  56.1381310  34.8832090
  19.7280040  56.3492950  36.0450250  19.8242740  57.0410790  37.7170510
  19.0294240  56.9755910  38.2463420  20.0286020  57.9761430  37.7055860
   3.0659360  54.3400650  47.6946340   2.7174180  54.7964470  48.4604520
   2.7347060  53.4457780  47.7768770  10.5784180  55.5312530  51.2165760
  10.5173070  56.1234360  51.9661170  11.5184560  55.4238490  51.0716020
  13.2158740  55.1882590  50.8558050  13.8299150  55.5061880  50.1939130
  13.7608300  54.7031180  51.4753910   3.7380000  53.8676850  50.9697110
   4.2862990  53.6864900  50.2063220   3.8035310  53.0770960  51.5053420
  13.9566780  53.7514730  47.1827340  13.0826620  54.0849840  46.9800270
  13.8477530  53.2787910  48.0079210  14.8638760  55.9585600  48.5669060
  14.5352120  55.1437360  48.1870790  15.8121060  55.9155410  48.4434750
  11.7041600  54.6684570  46.1220250  10.9213390  55.1430070  46.4017010
  11.4104530  53.7639400  46.0133430  16.2562670  55.3707670  44.1669340
  16.6970760  55.3152770  43.3190940  15.9870260  56.2865680  44.2379520
  18.1201240  55.0022910  42.1778160  18.0589640  54.0584130  42.0309180
  18.8993270  55.1103000  42.7231620   3.0482010  54.9732050  38.6433970
   3.8061370  55.0860930  38.0698000   2.5859180  55.8101250  38.5977400
   9.5895820  57.0871320  41.6336280   8.7770330  56.7128210  41.2932160
  10.0937460  56.3316400  41.9357470  14.0920800  53.7513770  42.8719350
  14.6950170  54.3233980  43.3467870  13.3513790  54.3153210  42.6493250
  17.2355400  54.1535330  38.1459630  17.4306030  55.0518780  38.4127060
  16.4485270  53.9222410  38.6392580   5.4207160  55.4996100  37.1835940
   5.9499920  54.7125900  37.0543890   6.0535480  56.1787290  37.4171470
   7.6145000  55.2371240  40.2381330   6.9847740  54.5358550  40.4051460
   7.0750140  55.9975370  40.0214490   7.7400560  54.5155220  52.6733820
   7.4584830  55.0188820  51.9094640   8.1220260  53.7176970  52.3075950
  14.3416020  53.9308800  53.2514290  14.2281470  54.2503410  54.1465810
  15.1585760  54.3321310  52.9551570  13.2474170  61.9501270  23.6149030
  13.1668220  61.0355880  23.3440740  12.8338590  62.4468340  22.9088740
  11.3792210  63.7280290  25.4958300  10.6034310  63.2480730  25.7856870
  12.0305140  63.0485940  25.3214460   5.3958040  64.0400100  26.3734060
   4.5642920  63.7848810  26.7730570   6.0039020  64.1110870  27.1091980
   3.8049990  59.0001990  20.1576450   2.9166690  59.3417960  20.0556330
   4.0891180  58.8002310  19.2657280   1.7683000  61.6007640  26.0416150
   2.3399110  60.8329840  26.0419790   1.7684540  61.8996400  25.1322760
  10.8201200  66.4037480  25.5028460  10.7509480  65.4627420  25.3417590
  11.5821060  66.4938890  26.0751030   3.0107870  57.0092000  27.8285080
   2.8310710  56.1117750  28.1087840   2.6087950  57.5563870  28.5032030
  11.8506370  59.2107860  25.7297390  12.2271190  58.3379740  25.6171060
  11.7525880  59.5466560  24.8387830   5.9811380  57.5833490  21.1914830
   6.0878130  58.4837220  21.4983590   5.0703740  57.5351460  20.9009480
  15.6330490  56.7058300  22.6625730  16.4540110  56.2154870  22.7051210
  15.6664570  57.2955960  23.4157570   3.6294540  59.5052500  26.4367420
   4.3104650  59.7690870  27.0554820   3.3142590  58.6653370  26.7705430
   7.8219110  60.5519860  25.5240010   8.3297330  61.0500830  26.1645030
   8.3532350  59.7755060  25.3479370  19.9230040  58.7225050  29.2269360
  19.2182210  59.1106760  28.7084470  20.1887960  59.4175340  29.8290290
   6.1055210  55.1918420  29.7903430   6.1073650  55.7090810  28.9849330
   5.2759520  54.7148600  29.7673360  12.4926300  65.3037730  21.2893330
  11.8743570  65.7687180  20.7256050  13.0049550  65.9965210  21.7062840
   7.3558060  64.8313600  27.9676930   7.0227440  65.4582520  28.6098000
   7.5324740  65.3575480  27.1878600  15.8691970  58.6458680  25.4353270
  15.1647540  58.9343570  26.0156380  16.2304130  59.4558790  25.0752830
   5.7870540  56.9028380  27.7973880   6.1287350  57.7470430  27.5027750
   4.8486350  57.0512120  27.9139220   6.5677160  66.7994400  29.7826110
   7.1851160  67.4745480  29.5010560   5.7070280  67.2082380  29.6913610
   1.8609500  65.9894260  18.6632960   1.4837480  66.4781360  17.9317860
   2.1182570  66.6619540  19.2939490  18.9378890  58.0913470  25.8262480
  17.9903800  58.1252450  25.9577910  19.2628880  58.9052420  26.2111840
   9.4698430  54.3910650  24.1218470   9.7773410  53.8357540  23.4053970
   8.5399130  54.5255110  23.9391460  16.3158910  66.8294160  21.5016100
  16.2055240  65.8868490  21.6265520  16.3127160  67.1909800  22.3878860
  14.4198930  65.0107780  27.7408540  14.8367720  64.7967890  26.9062000
  15.1438750  65.2680570  28.3117160  11.8579190  62.4559480  20.8578590
  10.9308470  62.3896860  21.0867060  12.0104010  63.3939610  20.7433830
  11.8448270  58.7276480  17.8545750  10.9051940  58.8890440  17.9398210
  12.1631530  59.4462160  17.3081740  18.3661030  63.4095000  27.8324780
  17.5379660  63.4788090  27.3574910  18.9611510  63.9949310  27.3640610
  15.8876480  64.0179780  21.3613840  15.2688900  63.6799330  20.7140140
  15.8700930  63.3739540  22.0693030  15.3303040  60.1964320  28.7779650
  14.9174220  61.0218030  29.0319640  14.5978990  59.6109360  28.5856010
   7.4635830  62.9824220  23.6398320   7.0592830  62.2701470  23.1444220
   7.5498950  62.6377460  24.5286360   7.9317530  66.6691780  25.8037530
   7.6345820  66.0637250  25.1245310   8.8817350  66.7069090  25.6926890
   6.1764450  59.7567430  27.4197360   6.7279040  59.8662770  26.6450610
   6.6907960  60.1305030  28.1352590   7.0235960  66.4073470  32.4545330
   6.1264490  66.6313440  32.7018730   7.0488830  66.5308410  31.5056730
  14.0641180  63.2566590  18.3686590  14.5034460  62.4189020  18.2224410
  14.7769600  63.8895990  18.4550730   5.8507180  63.2786790  31.0302700
   5.7114950  64.1509590  31.3990100   4.9688540  62.9359600  30.8850640
  17.6458320  54.5109400  16.6827630  17.3330980  54.6036230  17.5826700
  18.4070790  55.0890430  16.6325060   4.1640460  61.8769200  21.1404970
   4.0438060  62.6031290  20.5286240   3.8541350  61.1072110  20.6632880
   1.8025830  65.0484340  26.9473610   1.8806250  65.1833110  26.0029330
   2.4167510  64.3400230  27.1401730   3.0473460  66.7484530  23.3579790
   2.6401540  66.8899120  22.5033390   3.9386470  66.4644690  23.1551000
  19.0035600  67.1948440  31.6952030  19.1298660  66.9560320  30.7769210
  19.0456980  66.3632980  32.1674110  18.8559610  59.2480900  32.6601770
  18.2403880  59.7560570  32.1317230  18.5356030  58.3479230  32.6027710
   1.8585350  66.0898510  29.4868070   2.0216390  65.6203870  28.6687440
   2.3237800  65.5822070  30.1516910   6.6304120  55.2204270  24.5228640
   6.1872270  56.0013810  24.1913160   7.1889110  55.5434160  25.2299580
  10.9173930  58.0872790  30.1263960  10.4553300  58.2955810  30.9383900
  10.5152040  57.2732140  29.8234630  15.9178440  59.3081740  31.2560620
  15.0672030  59.0087490  31.5769690  15.7580230  59.5523750  30.3444440
  13.0128150  60.8083490  33.3559410  13.3381560  59.9747240  33.0161640
  13.8008480  61.3312010  33.5037740   9.7462940  54.8414970  19.4034470
   9.1217120  54.8374840  20.1287780   9.6593060  53.9745930  19.0070440
   8.6680020  55.7651600  26.3818240   8.9652350  56.6714430  26.3010260
   9.2165580  55.2770380  25.7677810   6.4218340  60.3437840  22.2509890
   6.1959260  60.1275010  23.1556510   5.6410870  60.7766300  21.9055860
  13.6516100  60.3501210  20.8500540  13.0524990  61.0737010  20.6664160
  14.1995710  60.2877990  20.0676990   8.8617550  61.2423420  32.9170160
   8.7661150  60.3018150  32.7670560   9.7049530  61.4638490  32.5218230
  12.2580970  58.9864750  22.8803820  12.6510540  59.3036950  22.0672510
  12.6197820  58.1076630  22.9948340   3.9928090  57.6537090  31.0703940
   3.5991480  58.5012300  31.2776720   3.3046490  57.0163460  31.2612580
  10.5673140  57.7372060  34.1400680   9.8771460  57.5444260  34.7746770
  11.3105440  58.0206700  34.6724980  12.8436110  61.5770500  26.9754600
  12.1117230  62.0857310  27.3244700  12.4460450  60.7600480  26.6743380
   9.2813500  58.2524700  25.3807090   9.2849560  57.8114650  24.5311630
  10.1764620  58.5742030  25.4878910   5.1315880  58.1351190  24.3401300
   4.7915930  58.6126420  25.0968350   4.3693200  57.6816310  23.9802400
   9.3433650  59.2536780  18.3713850   9.4646470  59.2123260  19.3199670
   8.9582160  60.1160930  18.2160580  13.3062020  57.0304180  26.3877540
  13.3234760  57.4812830  27.2319390  13.0577600  56.1309820  26.6010980
   8.3555150  61.5637920  17.7697150   7.7872050  61.1156170  17.1433060
   9.0644150  61.9230700  17.2362300  16.7332770  54.4436360  32.2263920
  17.0578540  53.7126020  32.7521900  16.7689280  54.1250000  31.3244910
   3.4324330  65.4649940  31.6463880   3.0479120  64.8243610  32.2446840
   3.7436520  66.1686060  32.2158610   9.5821470  62.3126480  27.1272500
   9.9491600  61.8385050  27.8733840   9.3926530  63.1868050  27.4680840
   2.4461960  57.0570170  23.2565970   2.1608880  56.6925840  24.0944590
   2.3840820  56.3250630  22.6429110   7.3720840  61.3535120  29.4456710
   7.0677910  62.2327100  29.6707070   8.3267300  61.4134910  29.4814150
   5.9002630  65.5596110  20.0423560   5.1264890  65.0193730  19.8822280
   6.6297260  65.0402720  19.7041320  16.6590610  64.5561470  25.8349950
  17.3789730  65.0516760  25.4446060  16.4572430  63.8779360  25.1903820
  12.1200550  55.9499430  19.9779340  11.3065160  55.4512600  19.9024650
  11.9262500  56.7897680  19.5615690  12.0409410  64.6270530  31.7218950
  11.9746720  63.7066200  31.4676540  11.4114550  64.7245970  32.4363590
  14.8348940  60.3219080  18.2741500  15.7228560  60.6336310  18.0992840
  14.8054030  59.4491330  17.8822080   5.9440030  65.2276490  23.6802370
   6.4618700  64.4244750  23.6259260   5.4924050  65.1655630  24.5219200
  10.8309530  66.4942770  18.9529670  11.1725230  67.2385000  18.4572990
  10.0022240  66.8073890  19.3154500   3.4284570  62.1937860  30.5928070
   3.0699510  62.8591710  31.1801410   3.1339130  61.3621410  30.9640690
   6.6297690  62.6522100  33.4767620   6.3297830  62.7979280  32.5795440
   7.4008930  62.0927390  33.3841010  11.9726140  67.4491100  31.4722750
  11.9870680  66.5172060  31.2541660  11.2651240  67.5350860  32.1112520
  17.1063210  61.6330920  17.7421360  17.0226930  62.0645140  16.8917800
  17.8257400  62.0929270  18.1748180  18.1837350  64.0898440  30.8191330
  17.4585540  64.6827220  30.6220720  18.7112810  64.0821980  30.0204700
  13.7136940  65.8158610  24.3175180  14.0660760  65.2186740  23.6576550
  12.8299270  65.4902840  24.4883430   9.8000220  66.5756300  21.7245590
  10.4871350  67.1225510  22.1053180   9.0132640  67.1197030  21.7595200
   9.1027430  63.5802330  21.3370950   9.5590210  64.3907580  21.5631140
   8.7515640  63.2625470  22.1689440   5.0039210  53.9239980  21.8093470
   4.8753840  53.9157880  22.7578390   4.1801230  54.2623070  21.4584480
  16.5247840  67.3789640  17.0079840  16.2985420  66.6620080  17.6004480
  16.1344040  67.1302080  16.1701590  16.1064090  65.2961580  18.6694000
  15.8185790  65.7574270  19.4571880  16.9016260  64.8359350  18.9378220
   3.9239130  64.0102590  19.3444730   3.3167080  64.7501490  19.3540030
   4.3988480  64.1001950  18.5182930  13.4971920  58.1753410  29.0201620
  13.8652740  57.3548620  29.3481190  12.6370120  58.2355300  29.4357270
  16.8633950  57.1310350  19.8289180  16.2347110  57.2356020  19.1147410
  16.3685870  57.3507130  20.6183060   8.8317980  59.4096300  21.2447060
   8.1234130  59.8782640  21.6860670   9.1162460  58.7518310  21.8792250
  10.4573910  60.8293000  29.2439590  10.9559160  61.3038820  29.9091440
  10.5996860  59.9056520  29.4509620  12.8633410  56.1346960  22.6842850
  12.7401190  56.1533090  21.7352360  13.8117970  56.1825900  22.8041250
   7.0353000  57.7181380  18.6197770   7.8843530  58.1551530  18.5537960
   6.6684270  58.0301640  19.4469830  17.6640770  57.0460960  30.0867980
  17.1614370  57.7866360  30.4261790  18.4797430  57.4344960  29.7704770
  15.9562780  62.2894140  23.5329340  15.0152920  62.3044370  23.7077030
  16.2706850  61.5030100  23.9789640   5.9344420  63.9713740  17.0933300
   6.7007690  63.8595100  17.6558730   6.0119110  63.2751710  16.4410070
   4.6291180  61.4038810  17.7766190   4.7094770  60.4566320  17.8883590
   5.5210930  61.7345690  17.8826850  13.2728800  66.8460140  34.0161720
  12.6666960  66.8691740  33.2757470  12.9682910  66.1143180  34.5528970
   9.0585600  65.9467920  16.5668650   8.9536240  65.3320270  17.2930030
   8.8909820  65.4233810  15.7831660   9.2099920  64.6324720  32.5457880
   8.4445590  65.2009720  32.4612550   9.3915880  64.3400930  31.6526110
  12.2988330  65.0087950  17.1710640  11.7498430  65.4557250  17.8153380
  12.9207590  64.5037200  17.6948310  16.3523270  66.3630050  33.1032900
  17.0932740  66.7005810  32.6000360  15.5895950  66.5322110  32.5502670
   4.1885060  61.3683320  33.9072430   4.2290400  61.0697190  34.8157660
   5.0430560  61.7690930  33.7479950   7.9663450  63.9678870  19.0675940
   8.3879870  63.8018740  19.9107330   8.0914290  63.1579100  18.5731080
   6.1290870  59.9475420  31.8746920   5.5987330  59.4566370  31.2470260
   6.7978940  60.3759620  31.3404850  10.4791090  62.9916480  16.3153040
  10.9996750  62.2765500  15.9494190  11.1259490  63.6302350  16.6153550
  15.0268930  64.4144880  31.6388110  15.4409950  64.5689960  32.4878530
  14.0919930  64.5400100  31.8013890  15.4991100  61.7541040  33.6427260
  16.0811870  60.9993360  33.5547740  15.6752870  62.2848480  32.8658740
   6.6163170  56.9137790  31.9544210   6.5220040  56.2958540  31.2295080
   6.0360560  57.6404080  31.7274120   9.3824610  55.4711030  28.9871600
   8.9341910  55.4935290  28.1417150   8.7489810  55.0730050  29.5841900
   9.7884160  64.3665360  29.6084040  10.2072270  65.2098090  29.4360280
   8.8692790  64.5037400  29.3790820  12.1248060  62.0981540  30.9921880
  12.2444270  61.5022680  31.7316720  12.9842060  62.1351230  30.5723180
  14.4635960  62.6518730  29.5684390  13.9371180  63.1761350  28.9649530
  14.8067300  63.2846120  30.1994120   6.8622350  60.0412100  16.0134100
   6.6611410  59.1779460  16.3747440   6.6914400  59.9545460  15.0755700
   8.8916830  58.6402890  32.2497700   9.4816520  58.3318740  32.9375520
   8.0737070  58.1682640  32.4057600  13.7110260  58.2568700  32.4830720
  13.0225780  57.5950240  32.4180710  14.4316280  57.8106970  32.9279180
  14.3410660  54.8520330  18.5420980  14.6212950  54.0088230  18.8980400
  13.5676390  55.0843440  19.0559730   5.6605150  57.1412720  16.0011980
   5.9631050  57.1480150  15.0931130   6.3999740  56.7910580  16.4979640
   8.8790080  56.0847340  16.9868180   8.5312080  55.4071330  16.4070630
   9.0802850  55.6236850  17.8011570   4.6835280  66.4455140  16.8341780
   5.1210150  66.9884810  17.4899360   5.1683010  65.6202090  16.8438120
   6.4943000  67.5653180  21.9464010   6.1938540  67.4418150  22.8467920
   6.3880490  66.7061770  21.5379740  18.7191380  64.0897060  19.1524890
  19.4810290  64.6593710  19.2584580  18.7345750  63.5224260  19.9233200
   2.2195720  62.6134990  23.3832550   1.5644560  62.3446630  22.7392250
   3.0573670  62.5039470  22.9334530  19.7251350  64.9447160  23.9966820
  20.0960180  64.1614480  23.5902790  20.3653280  65.6336260  23.8184120
  16.7085110  66.3283740  29.4097140  15.8944950  66.7580900  29.6722930
  17.1159310  66.9402150  28.7966190  18.7710550  64.3831430  16.3097410
  19.0459390  65.2910310  16.1816630  18.5821290  64.3193960  17.2459400
  15.1686160  57.4076280  17.6051040  15.5871040  57.2207260  16.7647700
  14.8622220  56.5555330  17.9153970  18.6675890  62.3200420  21.3026840
  18.2919490  61.5528350  20.8708130  17.9379010  62.7023120  21.7901770
   3.2571650  62.9987560  27.9235890   3.6244690  62.9114960  28.8031910
   2.6882470  62.2354110  27.8242750  18.0575510  61.4671940  30.9366360
  17.8261600  61.2384690  30.0364310  18.3180060  62.3871490  30.8911250
   2.8087650  59.9096650  31.8294310   1.9143700  59.8763410  32.1688020
   3.3485200  60.1083440  32.5945560  16.4963580  56.6928370  33.7146060
  17.3733760  56.7011770  34.0980060  16.5084420  55.9559210  33.1038410
  17.9426850  60.5457910  24.6034080  18.4664330  60.0520560  23.9724250
  18.5286270  60.6808270  25.3481650  18.1216570  60.6297780  28.1253630
  17.1719280  60.5961320  28.2398620  18.3029580  61.5397890  27.8903400
   3.9761010  58.8799460  17.2352260   4.6852710  58.4582680  16.7499540
   3.2600950  58.9474690  16.6035610   3.6235170  54.9338790  16.2754910
   4.3463300  55.4747730  16.5936130   3.8959690  54.6602210  15.3996450
  17.4326820  59.8031260  20.5426490  17.9285940  59.5702130  21.3275370
  17.2342890  58.9643100  20.1264130   3.3127360  54.1844980  26.1777530
   3.9603550  53.6342360  25.7372690   3.7329200  54.4388130  26.9993340
  18.8613980  58.4392210  23.0764170  18.7513260  58.2848250  24.0146440
  19.6221570  57.9113150  22.8339580  17.2079700  54.3786340  29.5347170
  17.8451920  54.9920480  29.9006360  17.3554590  54.4147000  28.5896400
  19.7504250  56.2700130  16.3170310  20.6753560  56.1381310  16.1088600
  19.7280040  56.3492950  17.2706760  19.8242740  57.0410790  18.9427020
  19.0294240  56.9755910  19.4719930  20.0286020  57.9761430  18.9312370
   3.0659360  54.3400650  28.9202850   2.7174180  54.7964470  29.6861030
   2.7347060  53.4457780  29.0025280  10.5784180  55.5312530  32.4422270
  10.5173070  56.1234360  33.1917680  11.5184560  55.4238490  32.2972530
  13.2158740  55.1882590  32.0814560  13.8299150  55.5061880  31.4195640
  13.7608300  54.7031180  32.7010420   3.7380000  53.8676850  32.1953620
   4.2862990  53.6864900  31.4319730   3.8035310  53.0770960  32.7309930
  13.9566780  53.7514730  28.4083850  13.0826620  54.0849840  28.2056780
  13.8477530  53.2787910  29.2335720  14.8638760  55.9585600  29.7925570
  14.5352120  55.1437360  29.4127300  15.8121060  55.9155410  29.6691260
  11.7041600  54.6684570  27.3476760  10.9213390  55.1430070  27.6273520
  11.4104530  53.7639400  27.2389940  16.2562670  55.3707670  25.3925850
  16.6970760  55.3152770  24.5447450  15.9870260  56.2865680  25.4636030
  18.1201240  55.0022910  23.4034670  18.0589640  54.0584130  23.2565690
  18.8993270  55.1103000  23.9488130   3.0482010  54.9732050  19.8690480
   3.8061370  55.0860930  19.2954510   2.5859180  55.8101250  19.8233910
   9.5895820  57.0871320  22.8592790   8.7770330  56.7128210  22.5188670
  10.0937460  56.3316400  23.1613980  14.0920800  53.7513770  24.0975860
  14.6950170  54.3233980  24.5724380  13.3513790  54.3153210  23.8749760
  17.2355400  54.1535330  19.3716140  17.4306030  55.0518780  19.6383570
  16.4485270  53.9222410  19.8649090   5.4207160  55.4996100  18.4092450
   5.9499920  54.7125900  18.2800400   6.0535480  56.1787290  18.6427980
   7.6145000  55.2371240  21.4637840   6.9847740  54.5358550  21.6307970
   7.0750140  55.9975370  21.2471000   7.7400560  54.5155220  33.8990330
   7.4584830  55.0188820  33.1351150   8.1220260  53.7176970  33.5332460
  14.3416020  53.9308800  34.4770800  14.2281470  54.2503410  35.3722320
  15.1585760  54.3321310  34.1808080  13.2474170  61.9501270   4.8405540
  13.1668220  61.0355880   4.5697250  12.8338590  62.4468340   4.1345250
  11.3792210  63.7280290   6.7214810  10.6034310  63.2480730   7.0113380
  12.0305140  63.0485940   6.5470970   5.3958040  64.0400100   7.5990570
   4.5642920  63.7848810   7.9987080   6.0039020  64.1110870   8.3348490
   1.7683000  61.6007640   7.2672660   2.3399110  60.8329840   7.2676300
   1.7684540  61.8996400   6.3579270  10.8201200  66.4037480   6.7284970
  10.7509480  65.4627420   6.5674100  11.5821060  66.4938890   7.3007540
   3.0107870  57.0092000   9.0541590   2.8310710  56.1117750   9.3344350
   2.6087950  57.5563870   9.7288540  11.8506370  59.2107860   6.9553900
  12.2271190  58.3379740   6.8427570  11.7525880  59.5466560   6.0644340
   5.9811380  57.5833490   2.4171340   6.0878130  58.4837220   2.7240100
   5.0703740  57.5351460   2.1265990  15.6330490  56.7058300   3.8882240
  16.4540110  56.2154870   3.9307720  15.6664570  57.2955960   4.6414080
   3.6294540  59.5052500   7.6623930   4.3104650  59.7690870   8.2811330
   3.3142590  58.6653370   7.9961940   7.8219110  60.5519860   6.7496520
   8.3297330  61.0500830   7.3901540   8.3532350  59.7755060   6.5735880
  19.9230040  58.7225050  10.4525870  19.2182210  59.1106760   9.9340980
  20.1887960  59.4175340  11.0546800   6.1055210  55.1918420  11.0159940
   6.1073650  55.7090810  10.2105840   5.2759520  54.7148600  10.9929870
  12.4926300  65.3037730   2.5149840  11.8743570  65.7687180   1.9512560
  13.0049550  65.9965210   2.9319350   7.3558060  64.8313600   9.1933440
   7.0227440  65.4582520   9.8354510   7.5324740  65.3575480   8.4135110
  15.8691970  58.6458680   6.6609780  15.1647540  58.9343570   7.2412890
  16.2304130  59.4558790   6.3009340   5.7870540  56.9028380   9.0230390
   6.1287350  57.7470430   8.7284260   4.8486350  57.0512120   9.1395730
   6.5677160  66.7994400  11.0082620   7.1851160  67.4745480  10.7267070
   5.7070280  67.2082380  10.9170120  18.9378890  58.0913470   7.0518990
  17.9903800  58.1252450   7.1834420  19.2628880  58.9052420   7.4368350
   9.4698430  54.3910650   5.3474980   9.7773410  53.8357540   4.6310480
   8.5399130  54.5255110   5.1647970  16.3158910  66.8294160   2.7272610
  16.2055240  65.8868490   2.8522030  16.3127160  67.1909800   3.6135370
  14.4198930  65.0107780   8.9665050  14.8367720  64.7967890   8.1318510
  15.1438750  65.2680570   9.5373670  11.8579190  62.4559480   2.0835100
  10.9308470  62.3896860   2.3123570  12.0104010  63.3939610   1.9690340
  18.3661030  63.4095000   9.0581290  17.5379660  63.4788090   8.5831420
  18.9611510  63.9949310   8.5897120  15.8876480  64.0179780   2.5870350
  15.2688900  63.6799330   1.9396650  15.8700930  63.3739540   3.2949540
  15.3303040  60.1964320  10.0036160  14.9174220  61.0218030  10.2576150
  14.5978990  59.6109360   9.8112520   7.4635830  62.9824220   4.8654830
   7.0592830  62.2701470   4.3700730   7.5498950  62.6377460   5.7542870
   7.9317530  66.6691780   7.0294040   7.6345820  66.0637250   6.3501820
   8.8817350  66.7069090   6.9183400   6.1764450  59.7567430   8.6453870
   6.7279040  59.8662770   7.8707120   6.6907960  60.1305030   9.3609100
   7.0235960  66.4073470  13.6801840   6.1264490  66.6313440  13.9275240
   7.0488830  66.5308410  12.7313240   5.8507180  63.2786790  12.2559210
   5.7114950  64.1509590  12.6246610   4.9688540  62.9359600  12.1107150
   4.1640460  61.8769200   2.3661480   4.0438060  62.6031290   1.7542750
   3.8541350  61.1072110   1.8889390   1.8025830  65.0484340   8.1730120
   1.8806250  65.1833110   7.2285840   2.4167510  64.3400230   8.3658240
   3.0473460  66.7484530   4.5836300   2.6401540  66.8899120   3.7289900
   3.9386470  66.4644690   4.3807510  19.0035600  67.1948440  12.9208540
  19.1298660  66.9560320  12.0025720  19.0456980  66.3632980  13.3930620
  18.8559610  59.2480900  13.8858280  18.2403880  59.7560570  13.3573740
  18.5356030  58.3479230  13.8284220   1.8585350  66.0898510  10.7124580
   2.0216390  65.6203870   9.8943950   2.3237800  65.5822070  11.3773420
   6.6304120  55.2204270   5.7485150   6.1872270  56.0013810   5.4169670
   7.1889110  55.5434160   6.4556090  10.9173930  58.0872790  11.3520470
  10.4553300  58.2955810  12.1640410  10.5152040  57.2732140  11.0491140
  15.9178440  59.3081740  12.4817130  15.0672030  59.0087490  12.8026200
  15.7580230  59.5523750  11.5700950  13.0128150  60.8083490  14.5815920
  13.3381560  59.9747240  14.2418150  13.8008480  61.3312010  14.7294250
   8.6680020  55.7651600   7.6074750   8.9652350  56.6714430   7.5266770
   9.2165580  55.2770380   6.9934320   6.4218340  60.3437840   3.4766400
   6.1959260  60.1275010   4.3813020   5.6410870  60.7766300   3.1312370
  13.6516100  60.3501210   2.0757050  13.0524990  61.0737010   1.8920670
  14.1995710  60.2877990   1.2933500   8.8617550  61.2423420  14.1426670
   8.7661150  60.3018150  13.9927070   9.7049530  61.4638490  13.7474740
  12.2580970  58.9864750   4.1060330  12.6510540  59.3036950   3.2929020
  12.6197820  58.1076630   4.2204850   3.9928090  57.6537090  12.2960450
   3.5991480  58.5012300  12.5033230   3.3046490  57.0163460  12.4869090
  10.5673140  57.7372060  15.3657190   9.8771460  57.5444260  16.0003280
  11.3105440  58.0206700  15.8981490  12.8436110  61.5770500   8.2011110
  12.1117230  62.0857310   8.5501210  12.4460450  60.7600480   7.8999890
   9.2813500  58.2524700   6.6063600   9.2849560  57.8114650   5.7568140
  10.1764620  58.5742030   6.7135420   5.1315880  58.1351190   5.5657810
   4.7915930  58.6126420   6.3224860   4.3693200  57.6816310   5.2058910
  13.3062020  57.0304180   7.6134050  13.3234760  57.4812830   8.4575900
  13.0577600  56.1309820   7.8267490  16.7332770  54.4436360  13.4520430
  17.0578540  53.7126020  13.9778410  16.7689280  54.1250000  12.5501420
   3.4324330  65.4649940  12.8720390   3.0479120  64.8243610  13.4703350
   3.7436520  66.1686060  13.4415120   9.5821470  62.3126480   8.3529010
   9.9491600  61.8385050   9.0990350   9.3926530  63.1868050   8.6937350
   2.4461960  57.0570170   4.4822480   2.1608880  56.6925840   5.3201100
   2.3840820  56.3250630   3.8685620   7.3720840  61.3535120  10.6713220
   7.0677910  62.2327100  10.8963580   8.3267300  61.4134910  10.7070660
  16.6590610  64.5561470   7.0606460  17.3789730  65.0516760   6.6702570
  16.4572430  63.8779360   6.4160330  12.0409410  64.6270530  12.9475460
  11.9746720  63.7066200  12.6933050  11.4114550  64.7245970  13.6620100
   5.9440030  65.2276490   4.9058880   6.4618700  64.4244750   4.8515770
   5.4924050  65.1655630   5.7475710   3.4284570  62.1937860  11.8184580
   3.0699510  62.8591710  12.4057920   3.1339130  61.3621410  12.1897200
   6.6297690  62.6522100  14.7024130   6.3297830  62.7979280  13.8051950
   7.4008930  62.0927390  14.6097520  11.9726140  67.4491100  12.6979260
  11.9870680  66.5172060  12.4798170  11.2651240  67.5350860  13.3369030
  18.1837350  64.0898440  12.0447840  17.4585540  64.6827220  11.8477230
  18.7112810  64.0821980  11.2461210  13.7136940  65.8158610   5.5431690
  14.0660760  65.2186740   4.8833060  12.8299270  65.4902840   5.7139940
   9.8000220  66.5756300   2.9502100  10.4871350  67.1225510   3.3309690
   9.0132640  67.1197030   2.9851710   9.1027430  63.5802330   2.5627460
   9.5590210  64.3907580   2.7887650   8.7515640  63.2625470   3.3945950
   5.0039210  53.9239980   3.0349980   4.8753840  53.9157880   3.9834900
   4.1801230  54.2623070   2.6840990  13.4971920  58.1753410  10.2458130
  13.8652740  57.3548620  10.5737700  12.6370120  58.2355300  10.6613780
   8.8317980  59.4096300   2.4703570   8.1234130  59.8782640   2.9117180
   9.1162460  58.7518310   3.1048760  10.4573910  60.8293000  10.4696100
  10.9559160  61.3038820  11.1347950  10.5996860  59.9056520  10.6766130
  12.8633410  56.1346960   3.9099360  12.7401190  56.1533090   2.9608870
  13.8117970  56.1825900   4.0297760  17.6640770  57.0460960  11.3124490
  17.1614370  57.7866360  11.6518300  18.4797430  57.4344960  10.9961280
  15.9562780  62.2894140   4.7585850  15.0152920  62.3044370   4.9333540
  16.2706850  61.5030100   5.2046150  13.2728800  66.8460140  15.2418230
  12.6666960  66.8691740  14.5013980  12.9682910  66.1143180  15.7785480
   9.2099920  64.6324720  13.7714390   8.4445590  65.2009720  13.6869060
   9.3915880  64.3400930  12.8782620  16.3523270  66.3630050  14.3289410
  17.0932740  66.7005810  13.8256870  15.5895950  66.5322110  13.7759180
   4.1885060  61.3683320  15.1328940   4.2290400  61.0697190  16.0414170
   5.0430560  61.7690930  14.9736460   6.1290870  59.9475420  13.1003430
   5.5987330  59.4566370  12.4726770   6.7978940  60.3759620  12.5661360
  15.0268930  64.4144880  12.8644620  15.4409950  64.5689960  13.7135040
  14.0919930  64.5400100  13.0270400  15.4991100  61.7541040  14.8683770
  16.0811870  60.9993360  14.7804250  15.6752870  62.2848480  14.0915250
   6.6163170  56.9137790  13.1800720   6.5220040  56.2958540  12.4551590
   6.0360560  57.6404080  12.9530630   9.3824610  55.4711030  10.2128110
   8.9341910  55.4935290   9.3673660   8.7489810  55.0730050  10.8098410
   9.7884160  64.3665360  10.8340550  10.2072270  65.2098090  10.6616790
   8.8692790  64.5037400  10.6047330  12.1248060  62.0981540  12.2178390
  12.2444270  61.5022680  12.9573230  12.9842060  62.1351230  11.7979690
  14.4635960  62.6518730  10.7940900  13.9371180  63.1761350  10.1906040
  14.8067300  63.2846120  11.4250630   8.8916830  58.6402890  13.4754210
   9.4816520  58.3318740  14.1632030   8.0737070  58.1682640  13.6314110
  13.7110260  58.2568700  13.7087230  13.0225780  57.5950240  13.6437220
  14.4316280  57.8106970  14.1535690   6.4943000  67.5653180   3.1720520
   6.1938540  67.4418150   4.0724430   6.3880490  66.7061770   2.7636250
   2.2195720  62.6134990   4.6089060   1.5644560  62.3446630   3.9648760
   3.0573670  62.5039470   4.1591040  19.7251350  64.9447160   5.2223330
  20.0960180  64.1614480   4.8159300  20.3653280  65.6336260   5.0440630
  16.7085110  66.3283740  10.6353650  15.8944950  66.7580900  10.8979440
  17.1159310  66.9402150  10.0222700  18.6675890  62.3200420   2.5283350
  18.2919490  61.5528350   2.0964640  17.9379010  62.7023120   3.0158280
   3.2571650  62.9987560   9.1492400   3.6244690  62.9114960  10.0288420
   2.6882470  62.2354110   9.0499260  18.0575510  61.4671940  12.1622870
  17.8261600  61.2384690  11.2620820  18.3180060  62.3871490  12.1167760
   2.8087650  59.9096650  13.0550820   1.9143700  59.8763410  13.3944530
   3.3485200  60.1083440  13.8202070  16.4963580  56.6928370  14.9402570
  17.3733760  56.7011770  15.3236570  16.5084420  55.9559210  14.3294920
  17.9426850  60.5457910   5.8290590  18.4664330  60.0520560   5.1980760
  18.5286270  60.6808270   6.5738160  18.1216570  60.6297780   9.3510140
  17.1719280  60.5961320   9.4655130  18.3029580  61.5397890   9.1159910
  17.4326820  59.8031260   1.7683000  17.9285940  59.5702130   2.5531880
  17.2342890  58.9643100   1.3520640   3.3127360  54.1844980   7.4034040
   3.9603550  53.6342360   6.9629200   3.7329200  54.4388130   8.2249850
  18.8613980  58.4392210   4.3020680  18.7513260  58.2848250   5.2402950
  19.6221570  57.9113150   4.0596090  17.2079700  54.3786340  10.7603680
  17.8451920  54.9920480  11.1262870  17.3554590  54.4147000   9.8152910
   3.0659360  54.3400650  10.1459360   2.7174180  54.7964470  10.9117540
   2.7347060  53.4457780  10.2281790  10.5784180  55.5312530  13.6678780
  10.5173070  56.1234360  14.4174190  11.5184560  55.4238490  13.5229040
  13.2158740  55.1882590  13.3071070  13.8299150  55.5061880  12.6452150
  13.7608300  54.7031180  13.9266930   3.7380000  53.8676850  13.4210130
   4.2862990  53.6864900  12.6576240   3.8035310  53.0770960  13.9566440
  13.9566780  53.7514730   9.6340360  13.0826620  54.0849840   9.4313290
  13.8477530  53.2787910  10.4592230  14.8638760  55.9585600  11.0182080
  14.5352120  55.1437360  10.6383810  15.8121060  55.9155410  10.8947770
  11.7041600  54.6684570   8.5733270  10.9213390  55.1430070   8.8530030
  11.4104530  53.7639400   8.4646450  16.2562670  55.3707670   6.6182360
  16.6970760  55.3152770   5.7703960  15.9870260  56.2865680   6.6892540
  18.1201240  55.0022910   4.6291180  18.0589640  54.0584130   4.4822200
  18.8993270  55.1103000   5.1744640   9.5895820  57.0871320   4.0849300
   8.7770330  56.7128210   3.7445180  10.0937460  56.3316400   4.3870490
  14.0920800  53.7513770   5.3232370  14.6950170  54.3233980   5.7980890
  13.3513790  54.3153210   5.1006270   7.6145000  55.2371240   2.6894350
   6.9847740  54.5358550   2.8564480   7.0750140  55.9975370   2.4727510
   7.7400560  54.5155220  15.1246840   7.4584830  55.0188820  14.3607660
   8.1220260  53.7176970  14.7588970  14.3416020  53.9308800  15.7027310
  14.2281470  54.2503410  16.5978830  15.1585760  54.3321310  15.4064590
  13.2474170  43.1757780  61.1636010  13.1668220  42.2612390  60.8927720
  12.8338590  43.6724850  60.4575720  11.3792210  44.9536800  63.0445280
  10.6034310  44.4737240  63.3343850  12.0305140  44.2742450  62.8701440
   5.3958040  45.2656610  63.9221040   4.5642920  45.0105320  64.3217550
   6.0039020  45.3367380  64.6578960  15.3999640  49.3596990  61.8244410
  14.9381170  48.5884230  62.1531580  16.2125190  49.3863060  62.3296860
   5.3759300  49.2996700  64.1179060   5.6787340  48.4094440  63.9389280
   6.1202890  49.8566920  63.8901310   3.8049990  40.2258500  57.7063430
   2.9166690  40.5674470  57.6043310   4.0891180  40.0258820  56.8144260
   1.7683000  42.8264150  63.5903130   2.3399110  42.0586350  63.5906770
   1.7684540  43.1252910  62.6809740  11.6262950  51.6455000  61.4448400
  11.0074390  52.1012500  60.8742840  12.4814730  51.8006460  61.0438100
  10.8201200  47.6293990  63.0515440  10.7509480  46.6883930  62.8904570
  11.5821060  47.7195400  63.6238010   3.0107870  38.2348510  65.3772060
   2.8310710  37.3374260  65.6574820   2.6087950  38.7820380  66.0519010
  11.8506370  40.4364370  63.2784370  12.2271190  39.5636250  63.1658040
  11.7525880  40.7723070  62.3874810   5.9811380  38.8090000  58.7401810
   6.0878130  39.7093730  59.0470570   5.0703740  38.7607970  58.4496460
  15.6330490  37.9314810  60.2112710  16.4540110  37.4411380  60.2538190
  15.6664570  38.5212470  60.9644550   3.6294540  40.7309010  63.9854400
   4.3104650  40.9947380  64.6041800   3.3142590  39.8909880  64.3192410
   7.8219110  41.7776370  63.0726990   8.3297330  42.2757340  63.7132010
   8.3532350  41.0011570  62.8966350  19.9230040  39.9481560  66.7756340
  19.2182210  40.3363270  66.2571450  20.1887960  40.6431850  67.3777270
   6.1055210  36.4174930  67.3390410   6.1073650  36.9347320  66.5336310
   5.2759520  35.9405110  67.3160340  12.4926300  46.5294240  58.8380310
  11.8743570  46.9943690  58.2743030  13.0049550  47.2221720  59.2549820
   7.3558060  46.0570110  65.5163910   7.0227440  46.6839030  66.1584980
   7.5324740  46.5831990  64.7365580  15.8691970  39.8715190  62.9840250
  15.1647540  40.1600080  63.5643360  16.2304130  40.6815300  62.6239810
   5.7870540  38.1284890  65.3460860   6.1287350  38.9726940  65.0514730
   4.8486350  38.2768630  65.4626200   6.5677160  48.0250910  67.3313090
   7.1851160  48.7001990  67.0497540   5.7070280  48.4338890  67.2400590
   1.8609500  47.2150770  56.2119940   1.4837480  47.7037870  55.4804840
   2.1182570  47.8876050  56.8426470  17.4854750  49.4890320  65.2467730
  16.8018270  50.1589430  65.2384400  18.0249040  49.6870970  64.4812590
  18.9378890  39.3169980  63.3749460  17.9903800  39.3508960  63.5064890
  19.2628880  40.1308930  63.7598820   9.4698430  35.6167160  61.6705450
   9.7773410  35.0614050  60.9540950   8.5399130  35.7511620  61.4878440
  15.0213490  51.3334450  63.9612910  15.0340650  50.9296740  63.0935170
  14.4688710  52.1081740  63.8574340  16.3158910  48.0550670  59.0503080
  16.2055240  47.1125000  59.1752500  16.3127160  48.4166310  59.9365840
  14.4198930  46.2364290  65.2895520  14.8367720  46.0224400  64.4548980
  15.1438750  46.4937080  65.8604140  11.8579190  43.6815990  58.4065570
  10.9308470  43.6153370  58.6354040  12.0104010  44.6196120  58.2920810
  11.8448270  39.9532990  55.4032730  10.9051940  40.1146950  55.4885190
  12.1631530  40.6718670  54.8568720  18.3661030  44.6351510  65.3811760
  17.5379660  44.7044600  64.9061890  18.9611510  45.2205820  64.9127590
  15.8876480  45.2436290  58.9100820  15.2688900  44.9055840  58.2627120
  15.8700930  44.5996050  59.6180010  15.3303040  41.4220830  66.3266630
  14.9174220  42.2474540  66.5806620  14.5978990  40.8365870  66.1342990
   7.4635830  44.2080730  61.1885300   7.0592830  43.4957980  60.6931200
   7.5498950  43.8633970  62.0773340   7.9317530  47.8948290  63.3524510
   7.6345820  47.2893760  62.6732290   8.8817350  47.9325600  63.2413870
   6.1764450  40.9823940  64.9684340   6.7279040  41.0919280  64.1937590
   6.6907960  41.3561540  65.6839570  16.0203140  51.4680160  67.0147610
  15.5433700  52.2752350  66.8220220  15.3364930  50.8158490  67.1673820
  14.0641180  44.4823100  55.9173570  14.5034460  43.6445530  55.7711390
  14.7769600  45.1152500  56.0037710  12.1736560  49.4219170  59.8854810
  12.6132470  50.1643500  59.4710200  12.1123450  49.6645740  60.8093770
  17.6458320  35.7365910  54.2314610  17.3330980  35.8292740  55.1313680
  18.4070790  36.3146940  54.1812040   4.1640460  43.1025710  58.6891950
   4.0438060  43.8287800  58.0773220   3.8541350  42.3328620  58.2119860
   1.8025830  46.2740850  64.4960590   1.8806250  46.4089620  63.5516310
   2.4167510  45.5656740  64.6888710   3.0473460  47.9741040  60.9066770
   2.6401540  48.1155630  60.0520370   3.9386470  47.6901200  60.7037980
  14.8406740  52.4088290  57.2417820  14.6807880  52.1191230  58.1399650
  14.6753450  51.6328420  56.7063050   7.3195120  52.1886820  59.0189440
   7.1437600  51.2722360  58.8057240   6.4650860  52.5474110  59.2587240
  14.5432870  49.9175850  55.8015820  13.8498030  49.9153140  55.1418100
  15.2855730  49.4935170  55.3709990  14.1082800  51.5438560  59.8764310
  14.5639750  50.7627940  60.1902930  14.4475320  52.2545380  60.4205490
   1.8585350  47.3155020  67.0355050   2.0216390  46.8460380  66.2174420
   2.3237800  46.8078580  67.7003890   6.6304120  36.4460780  62.0715620
   6.1872270  37.2270320  61.7400140   7.1889110  36.7690670  62.7786560
   9.7462940  36.0671480  56.9521450   9.1217120  36.0631350  57.6774760
   9.6593060  35.2002440  56.5557420   8.6680020  36.9908110  63.9305220
   8.9652350  37.8970940  63.8497240   9.2165580  36.5026890  63.3164790
   6.4218340  41.5694350  59.7996870   6.1959260  41.3531520  60.7043490
   5.6410870  42.0022810  59.4542840  13.6516100  41.5757720  58.3987520
  13.0524990  42.2993520  58.2151140  14.1995710  41.5134500  57.6163970
  12.2580970  40.2121260  60.4290800  12.6510540  40.5293460  59.6159490
  12.6197820  39.3333140  60.5435320  12.8436110  42.8027010  64.5241580
  12.1117230  43.3113820  64.8731680  12.4460450  41.9856990  64.2230360
   9.2813500  39.4781210  62.9294070   9.2849560  39.0371160  62.0798610
  10.1764620  39.7998540  63.0365890   5.1315880  39.3607700  61.8888280
   4.7915930  39.8382930  62.6455330   4.3693200  38.9072820  61.5289380
   9.3433650  40.4793290  55.9200830   9.4646470  40.4379770  56.8686650
   8.9582160  41.3417440  55.7647560  13.3062020  38.2560690  63.9364520
  13.3234760  38.7069340  64.7806370  13.0577600  37.3566330  64.1497960
   8.3555150  42.7894430  55.3184130   7.7872050  42.3412680  54.6920040
   9.0644150  43.1487210  54.7849280   9.5821470  43.5382990  64.6759480
   9.9491600  43.0641560  65.4220820   9.3926530  44.4124560  65.0167820
   2.4461960  38.2826680  60.8052950   2.1608880  37.9182350  61.6431570
   2.3840820  37.5507140  60.1916090   7.3720840  42.5791630  66.9943690
   7.0677910  43.4583610  67.2194050   8.3267300  42.6391420  67.0301130
   5.9002630  46.7852620  57.5910540   5.1264890  46.2450240  57.4309260
   6.6297260  46.2659230  57.2528300  16.6590610  45.7817980  63.3836930
  17.3789730  46.2773270  62.9933040  16.4572430  45.1035870  62.7390800
  12.1200550  37.1755940  57.5266320  11.3065160  36.6769110  57.4511630
  11.9262500  38.0154190  57.1102670  14.8348940  41.5475590  55.8228480
  15.7228560  41.8592820  55.6479820  14.8054030  40.6747840  55.4309060
   5.9440030  46.4533000  61.2289350   6.4618700  45.6501260  61.1746240
   5.4924050  46.3912140  62.0706180  10.8309530  47.7199280  56.5016650
  11.1725230  48.4641510  56.0059970  10.0022240  48.0330400  56.8641480
  17.1063210  42.8587430  55.2908340  17.0226930  43.2901650  54.4404780
  17.8257400  43.3185780  55.7235160  18.1350460  49.7129690  58.0190470
  17.4926620  49.0585310  58.2934190  17.7481120  50.1184780  57.2431140
  13.7136940  47.0415120  61.8662160  14.0660760  46.4443250  61.2063530
  12.8299270  46.7159350  62.0370410   9.8000220  47.8012810  59.2732570
  10.4871350  48.3482020  59.6540160   9.0132640  48.3453540  59.3082180
   9.1027430  44.8058840  58.8857930   9.5590210  45.6164090  59.1118120
   8.7515640  44.4881980  59.7176420  11.4060040  50.3165180  66.1150230
  12.0502260  50.5224560  66.7923650  11.7689480  49.5553580  65.6621080
   5.0039210  35.1496490  59.3580450   4.8753840  35.1414390  60.3065370
   4.1801230  35.4879580  59.0071460  12.6792120  48.3197530  64.8327680
  13.3214350  47.6190690  64.9459850  13.2041470  49.0995970  64.6524570
  16.5247840  48.6046150  54.5566820  16.2985420  47.8876590  55.1491460
  16.1344040  48.3558590  53.7188570   2.3063870  52.6313010  55.3311280
   2.6661510  53.2302350  54.6768550   2.1656210  53.1772900  56.1046310
  16.1064090  46.5218090  56.2180980  15.8185790  46.9830780  57.0058860
  16.9016260  46.0615860  56.4865200   8.3232490  50.0144210  56.1484950
   8.3142590  50.7473900  55.5329460   7.4030850  49.7675790  56.2411910
   3.9239130  45.2359100  56.8931710   3.3167080  45.9758000  56.9027010
   4.3988480  45.3258460  56.0669910  13.4971920  39.4009920  66.5688600
  13.8652740  38.5805130  66.8968170  12.6370120  39.4611810  66.9844250
  16.8633950  38.3566860  57.3776160  16.2347110  38.4612530  56.6634390
  16.3685870  38.5763640  58.1670040  11.3092090  50.0772450  54.8110140
  11.4104070  49.8736440  53.8812120  10.4093830  49.8230730  55.0157920
   8.8317980  40.6352810  58.7934040   8.1234130  41.1039150  59.2347650
   9.1162460  39.9774820  59.4279230  10.4573910  42.0549510  66.7926570
  10.9559160  42.5295330  67.4578420  10.5996860  41.1313030  66.9996600
  12.8633410  37.3603470  60.2329830  12.7401190  37.3789600  59.2839340
  13.8117970  37.4082410  60.3528230   9.9510200  52.5958770  59.5057810
  10.2051700  52.5580160  58.5837180   9.0022680  52.4692100  59.4986060
   7.0353000  38.9437890  56.1684750   7.8843530  39.3808040  56.1024940
   6.6684270  39.2558150  56.9956810  17.6640770  38.2717470  67.6354960
  17.1614370  39.0122870  67.9748770  18.4797430  38.6601470  67.3191750
  15.9562780  43.5150650  61.0816320  15.0152920  43.5300880  61.2564010
  16.2706850  42.7286610  61.5276620   5.9344420  45.1970250  54.6420280
   6.7007690  45.0851610  55.2045710   6.0119110  44.5008220  53.9897050
   4.6291180  42.6295320  55.3253170   4.7094770  41.6822830  55.4370570
   5.5210930  42.9602200  55.4313830  17.9588360  50.6859500  62.7570580
  18.0835780  51.5090670  63.2294390  18.8253920  50.4750230  62.4094730
   5.4305890  52.7790710  62.4287710   6.1668370  52.2306170  62.6996280
   5.8146810  53.6446720  62.2893700   8.5408200  51.9521020  54.2513280
   9.3336810  52.2409850  53.7995070   8.0212550  51.5213190  53.5725760
  17.5938370  51.1791150  55.6750020  17.3079880  50.7656290  54.8604200
  17.3957920  52.1078860  55.5550540   9.0585600  47.1724430  54.1155630
   8.9536240  46.5576780  54.8417010   8.8909820  46.6490320  53.3318640
  12.2988330  46.2344460  54.7197620  11.7498430  46.6813760  55.3640360
  12.9207590  45.7293710  55.2435290   7.9663450  45.1935380  56.6162920
   8.3879870  45.0275250  57.4594310   8.0914290  44.3835610  56.1218060
  10.4791090  44.2172990  53.8640020  10.9996750  43.5022010  53.4981170
  11.1259490  44.8558860  54.1640530   9.3824610  36.6967540  66.5358580
   8.9341910  36.7191800  65.6904130   8.7489810  36.2986560  67.1328880
   9.7884160  45.5921870  67.1571020  10.2072270  46.4354600  66.9847260
   8.8692790  45.7293910  66.9277800  14.4635960  43.8775240  67.1171370
  13.9371180  44.4017860  66.5136510  14.8067300  44.5102630  67.7481100
   6.8622350  41.2668610  53.5621080   6.6611410  40.4035970  53.9234420
   6.6914400  41.1801970  52.6242680  14.3410660  36.0776840  56.0907960
  14.6212950  35.2344740  56.4467380  13.5676390  36.3099950  56.6046710
   5.6605150  38.3669230  53.5498960   5.9631050  38.3736660  52.6418110
   6.3999740  38.0167090  54.0466620   8.8790080  37.3103850  54.5355160
   8.5312080  36.6327840  53.9557610   9.0802850  36.8493360  55.3498550
  11.0439120  52.2984600  56.1541760  11.9389910  52.6369570  56.1760520
  11.0756750  51.5764010  55.5266040   4.6835280  47.6711650  54.3828760
   5.1210150  48.2141320  55.0386340   5.1683010  46.8458600  54.3925100
   1.8981080  50.4600680  61.8349020   2.2284090  49.5921740  61.6027660
   2.3272080  50.6659200  62.6653980   6.4943000  48.7909690  59.4950990
   6.1938540  48.6674660  60.3954900   6.3880490  47.9318280  59.0866720
   2.3871290  51.3271270  64.5730650   1.9502280  51.5072070  65.4054800
   2.9548970  52.0845890  64.4312370  19.2634920  48.5706090  54.1977670
  18.4327880  48.6382740  54.6684900  19.4406750  49.4610210  53.8944530
  18.7191380  45.3153570  56.7011870  19.4810290  45.8850220  56.8071560
  18.7345750  44.7480770  57.4720180   2.2195720  43.8391500  60.9319530
   1.5644560  43.5703140  60.2879230   3.0573670  43.7295980  60.4821510
  19.7251350  46.1703670  61.5453800  20.0960180  45.3870990  61.1389770
  20.3653280  46.8592770  61.3671100  16.7085110  47.5540250  66.9584120
  15.8944950  47.9837410  67.2209910  17.1159310  48.1658660  66.3453170
  18.7710550  45.6087940  53.8584390  19.0459390  46.5166820  53.7303610
  18.5821290  45.5450470  54.7946380  15.1686160  38.6332790  55.1538020
  15.5871040  38.4463770  54.3134680  14.8622220  37.7811840  55.4640950
  18.6675890  43.5456930  58.8513820  18.2919490  42.7784860  58.4195110
  17.9379010  43.9279630  59.3388750   3.2571650  44.2244070  65.4722870
   3.6244690  44.1371470  66.3518890   2.6882470  43.4610620  65.3729730
  17.9426850  41.7714420  62.1521060  18.4664330  41.2777070  61.5211230
  18.5286270  41.9064780  62.8968630  18.1216570  41.8554290  65.6740610
  17.1719280  41.8217830  65.7885600  18.3029580  42.7654400  65.4390380
   3.9761010  40.1055970  54.7839240   4.6852710  39.6839190  54.2986520
   3.2600950  40.1731200  54.1522590   3.6235170  36.1595300  53.8241890
   4.3463300  36.7004240  54.1423110   3.8959690  35.8858720  52.9483430
  17.4326820  41.0287770  58.0913470  17.9285940  40.7958640  58.8762350
  17.2342890  40.1899610  57.6751110   3.3127360  35.4101490  63.7264510
   3.9603550  34.8598870  63.2859670   3.7329200  35.6644640  64.5480320
  18.8613980  39.6648720  60.6251150  18.7513260  39.5104760  61.5633420
  19.6221570  39.1369660  60.3826560  17.2079700  35.6042850  67.0834150
  17.8451920  36.2176990  67.4493340  17.3554590  35.6403510  66.1383380
  19.7504250  37.4956640  53.8657290  20.6753560  37.3637820  53.6575580
  19.7280040  37.5749460  54.8193740  19.8242740  38.2667300  56.4914000
  19.0294240  38.2012420  57.0206910  20.0286020  39.2017940  56.4799350
  16.7661160  52.3058850  60.4852390  17.3620230  51.9843420  59.8086810
  17.0239310  51.8330670  61.2765660   3.0659360  35.5657160  66.4689830
   2.7174180  36.0220980  67.2348010   2.7347060  34.6714290  66.5512260
   8.3729760  50.2936350  66.2352740   8.1321120  50.5610910  65.3483260
   9.3132400  50.4642080  66.2903600  19.6333920  52.3130730  67.0363380
  19.1392200  52.7099600  66.3190510  19.0247210  51.6879940  67.4300660
  13.9566780  34.9771240  65.9570830  13.0826620  35.3106350  65.7543760
  13.8477530  34.5044420  66.7822700  14.8638760  37.1842110  67.3412550
  14.5352120  36.3693870  66.9614280  15.8121060  37.1411920  67.2178240
  17.3173370  52.9554150  64.3150120  16.8576340  53.7069960  63.9408140
  16.6885830  52.2360620  64.2564920   4.1423990  49.0497390  66.7048840
   3.4158050  48.4302680  66.6374790   4.2033140  49.4438000  65.8346920
   7.7469090  51.2642390  63.4898250   8.2634110  50.6529750  62.9646510
   8.3966470  51.7671170  63.9809260  10.4864590  52.1550880  64.3167230
  10.7742400  51.9005180  63.4400240  10.9987810  51.6028240  64.9072800
  11.7041600  35.8941080  64.8963740  10.9213390  36.3686580  65.1760500
  11.4104530  34.9895910  64.7876920  16.2562670  36.5964180  62.9412830
  16.6970760  36.5409280  62.0934430  15.9870260  37.5122190  63.0123010
  18.1201240  36.2279420  60.9521650  18.0589640  35.2840640  60.8052670
  18.8993270  36.3359510  61.4975110   2.4253990  52.3671780  59.9145600
   2.2576030  51.7342460  60.6127490   1.5588500  52.5731180  59.5639790
   3.0482010  36.1988560  57.4177460   3.8061370  36.3117440  56.8441490
   2.5859180  37.0357760  57.3720890   9.5895820  38.3127830  60.4079770
   8.7770330  37.9384720  60.0675650  10.0937460  37.5572910  60.7100960
  14.0920800  34.9770280  61.6462840  14.6950170  35.5490490  62.1211360
  13.3513790  35.5409720  61.4236740  17.2355400  35.3791840  56.9203120
  17.4306030  36.2775290  57.1870550  16.4485270  35.1478920  57.4136070
   4.0316690  51.0605010  57.3595740   3.5064310  51.4413040  56.6557700
   3.9561270  51.6855780  58.0805450   5.4207160  36.7252610  55.9579430
   5.9499920  35.9382410  55.8287380   6.0535480  37.4043800  56.1914960
   7.6145000  36.4627750  59.0124820   6.9847740  35.7615060  59.1794950
   7.0750140  37.2231880  58.7957980  18.7882010  52.6192550  58.6809680
  18.9634200  51.9330290  58.0370600  18.0903580  53.1439600  58.2886350
   6.6309660  53.0087390  56.2344990   7.3628480  52.7246670  55.6868880
   6.8903330  52.7700670  57.1244370   5.7924450  49.1252120  56.2391320
   5.1633330  49.5937220  56.7877150   5.9072280  48.2801340  56.6737510
  13.2474170  43.1757780  42.3892520  13.1668220  42.2612390  42.1184230
  12.8338590  43.6724850  41.6832230  11.3792210  44.9536800  44.2701790
  10.6034310  44.4737240  44.5600360  12.0305140  44.2742450  44.0957950
   5.3958040  45.2656610  45.1477550   4.5642920  45.0105320  45.5474060
   6.0039020  45.3367380  45.8835470  15.3999640  49.3596990  43.0500920
  14.9381170  48.5884230  43.3788090  16.2125190  49.3863060  43.5553370
   5.3759300  49.2996700  45.3435570   5.6787340  48.4094440  45.1645790
   6.1202890  49.8566920  45.1157820   3.8049990  40.2258500  38.9319940
   2.9166690  40.5674470  38.8299820   4.0891180  40.0258820  38.0400770
   1.7683000  42.8264150  44.8159640   2.3399110  42.0586350  44.8163280
   1.7684540  43.1252910  43.9066250  11.6262950  51.6455000  42.6704910
  11.0074390  52.1012500  42.0999350  12.4814730  51.8006460  42.2694610
  10.8201200  47.6293990  44.2771950  10.7509480  46.6883930  44.1161080
  11.5821060  47.7195400  44.8494520   3.0107870  38.2348510  46.6028570
   2.8310710  37.3374260  46.8831330   2.6087950  38.7820380  47.2775520
  11.8506370  40.4364370  44.5040880  12.2271190  39.5636250  44.3914550
  11.7525880  40.7723070  43.6131320   5.9811380  38.8090000  39.9658320
   6.0878130  39.7093730  40.2727080   5.0703740  38.7607970  39.6752970
  15.6330490  37.9314810  41.4369220  16.4540110  37.4411380  41.4794700
  15.6664570  38.5212470  42.1901060   3.6294540  40.7309010  45.2110910
   4.3104650  40.9947380  45.8298310   3.3142590  39.8909880  45.5448920
   7.8219110  41.7776370  44.2983500   8.3297330  42.2757340  44.9388520
   8.3532350  41.0011570  44.1222860  19.9230040  39.9481560  48.0012850
  19.2182210  40.3363270  47.4827960  20.1887960  40.6431850  48.6033780
   6.1055210  36.4174930  48.5646920   6.1073650  36.9347320  47.7592820
   5.2759520  35.9405110  48.5416850  12.4926300  46.5294240  40.0636820
  11.8743570  46.9943690  39.4999540  13.0049550  47.2221720  40.4806330
   7.3558060  46.0570110  46.7420420   7.0227440  46.6839030  47.3841490
   7.5324740  46.5831990  45.9622090  15.8691970  39.8715190  44.2096760
  15.1647540  40.1600080  44.7899870  16.2304130  40.6815300  43.8496320
   5.7870540  38.1284890  46.5717370   6.1287350  38.9726940  46.2771240
   4.8486350  38.2768630  46.6882710   6.5677160  48.0250910  48.5569600
   7.1851160  48.7001990  48.2754050   5.7070280  48.4338890  48.4657100
   1.8609500  47.2150770  37.4376450   1.4837480  47.7037870  36.7061350
   2.1182570  47.8876050  38.0682980  17.4854750  49.4890320  46.4724240
  16.8018270  50.1589430  46.4640910  18.0249040  49.6870970  45.7069100
  18.9378890  39.3169980  44.6005970  17.9903800  39.3508960  44.7321400
  19.2628880  40.1308930  44.9855330   9.4698430  35.6167160  42.8961960
   9.7773410  35.0614050  42.1797460   8.5399130  35.7511620  42.7134950
  15.0213490  51.3334450  45.1869420  15.0340650  50.9296740  44.3191680
  14.4688710  52.1081740  45.0830850  16.3158910  48.0550670  40.2759590
  16.2055240  47.1125000  40.4009010  16.3127160  48.4166310  41.1622350
  14.4198930  46.2364290  46.5152030  14.8367720  46.0224400  45.6805490
  15.1438750  46.4937080  47.0860650  11.8579190  43.6815990  39.6322080
  10.9308470  43.6153370  39.8610550  12.0104010  44.6196120  39.5177320
  11.8448270  39.9532990  36.6289240  10.9051940  40.1146950  36.7141700
  12.1631530  40.6718670  36.0825230  18.3661030  44.6351510  46.6068270
  17.5379660  44.7044600  46.1318400  18.9611510  45.2205820  46.1384100
  15.8876480  45.2436290  40.1357330  15.2688900  44.9055840  39.4883630
  15.8700930  44.5996050  40.8436520  15.3303040  41.4220830  47.5523140
  14.9174220  42.2474540  47.8063130  14.5978990  40.8365870  47.3599500
   7.4635830  44.2080730  42.4141810   7.0592830  43.4957980  41.9187710
   7.5498950  43.8633970  43.3029850   7.9317530  47.8948290  44.5781020
   7.6345820  47.2893760  43.8988800   8.8817350  47.9325600  44.4670380
   6.1764450  40.9823940  46.1940850   6.7279040  41.0919280  45.4194100
   6.6907960  41.3561540  46.9096080  16.0203140  51.4680160  48.2404120
  15.5433700  52.2752350  48.0476730  15.3364930  50.8158490  48.3930330
   7.0235960  47.6329980  51.2288820   6.1264490  47.8569950  51.4762220
   7.0488830  47.7564920  50.2800220  14.0641180  44.4823100  37.1430080
  14.5034460  43.6445530  36.9967900  14.7769600  45.1152500  37.2294220
   5.8507180  44.5043300  49.8046190   5.7114950  45.3766100  50.1733590
   4.9688540  44.1616110  49.6594130  12.1736560  49.4219170  41.1111320
  12.6132470  50.1643500  40.6966710  12.1123450  49.6645740  42.0350280
   7.6487530  50.4465000  52.0131340   7.6202960  50.8507950  51.1459770
   7.4852500  49.5175360  51.8502940  17.6458320  35.7365910  35.4571120
  17.3330980  35.8292740  36.3570190  18.4070790  36.3146940  35.4068550
   4.1640460  43.1025710  39.9148460   4.0438060  43.8287800  39.3029730
   3.8541350  42.3328620  39.4376370  19.6002350  51.2292100  53.3095510
  20.0762070  51.7074990  53.9884590  20.2209510  51.1609590  52.5841010
   1.8025830  46.2740850  45.7217100   1.8806250  46.4089620  44.7772820
   2.4167510  45.5656740  45.9145220   3.0473460  47.9741040  42.1323280
   2.6401540  48.1155630  41.2776880   3.9386470  47.6901200  41.9294490
  19.0035600  48.4204950  50.4695520  19.1298660  48.1816830  49.5512700
  19.0456980  47.5889490  50.9417600  12.8652340  52.1232950  49.0390330
  13.3797010  52.0340960  49.8412760  12.0221420  52.4692650  49.3318240
  14.8406740  52.4088290  38.4674330  14.6807880  52.1191230  39.3656160
  14.6753450  51.6328420  37.9319560   7.3195120  52.1886820  40.2445950
   7.1437600  51.2722360  40.0313750   6.4650860  52.5474110  40.4843750
  14.5432870  49.9175850  37.0272330  13.8498030  49.9153140  36.3674610
  15.2855730  49.4935170  36.5966500  14.1082800  51.5438560  41.1020820
  14.5639750  50.7627940  41.4159440  14.4475320  52.2545380  41.6462000
  18.8559610  40.4737410  51.4345260  18.2403880  40.9817080  50.9060720
  18.5356030  39.5735740  51.3771200   1.8585350  47.3155020  48.2611560
   2.0216390  46.8460380  47.4430930   2.3237800  46.8078580  48.9260400
   6.6304120  36.4460780  43.2972130   6.1872270  37.2270320  42.9656650
   7.1889110  36.7690670  44.0043070  10.9173930  39.3129300  48.9007450
  10.4553300  39.5212320  49.7127390  10.5152040  38.4988650  48.5978120
  15.9178440  40.5338250  50.0304110  15.0672030  40.2344000  50.3513180
  15.7580230  40.7780260  49.1187930  13.0128150  42.0340000  52.1302900
  13.3381560  41.2003750  51.7905130  13.8008480  42.5568520  52.2781230
   9.7462940  36.0671480  38.1777960   9.1217120  36.0631350  38.9031270
   9.6593060  35.2002440  37.7813930   8.6680020  36.9908110  45.1561730
   8.9652350  37.8970940  45.0753750   9.2165580  36.5026890  44.5421300
   6.4218340  41.5694350  41.0253380   6.1959260  41.3531520  41.9300000
   5.6410870  42.0022810  40.6799350  13.6516100  41.5757720  39.6244030
  13.0524990  42.2993520  39.4407650  14.1995710  41.5134500  38.8420480
   8.8617550  42.4679930  51.6913650   8.7661150  41.5274660  51.5414050
   9.7049530  42.6895000  51.2961720  12.2580970  40.2121260  41.6547310
  12.6510540  40.5293460  40.8416000  12.6197820  39.3333140  41.7691830
   3.9928090  38.8793600  49.8447430   3.5991480  39.7268810  50.0520210
   3.3046490  38.2419970  50.0356070  10.5673140  38.9628570  52.9144170
   9.8771460  38.7700770  53.5490260  11.3105440  39.2463210  53.4468470
  12.8436110  42.8027010  45.7498090  12.1117230  43.3113820  46.0988190
  12.4460450  41.9856990  45.4486870   9.2813500  39.4781210  44.1550580
   9.2849560  39.0371160  43.3055120  10.1764620  39.7998540  44.2622400
   5.1315880  39.3607700  43.1144790   4.7915930  39.8382930  43.8711840
   4.3693200  38.9072820  42.7545890   9.3433650  40.4793290  37.1457340
   9.4646470  40.4379770  38.0943160   8.9582160  41.3417440  36.9904070
  13.3062020  38.2560690  45.1621030  13.3234760  38.7069340  46.0062880
  13.0577600  37.3566330  45.3754470   8.3555150  42.7894430  36.5440640
   7.7872050  42.3412680  35.9176550   9.0644150  43.1487210  36.0105790
  16.7332770  35.6692870  51.0007410  17.0578540  34.9382530  51.5265390
  16.7689280  35.3506510  50.0988400   3.4324330  46.6906450  50.4207370
   3.0479120  46.0500120  51.0190330   3.7436520  47.3942570  50.9902100
   9.5821470  43.5382990  45.9015990   9.9491600  43.0641560  46.6477330
   9.3926530  44.4124560  46.2424330   2.4461960  38.2826680  42.0309460
   2.1608880  37.9182350  42.8688080   2.3840820  37.5507140  41.4172600
   7.3720840  42.5791630  48.2200200   7.0677910  43.4583610  48.4450560
   8.3267300  42.6391420  48.2557640   5.9002630  46.7852620  38.8167050
   5.1264890  46.2450240  38.6565770   6.6297260  46.2659230  38.4784810
  16.6590610  45.7817980  44.6093440  17.3789730  46.2773270  44.2189550
  16.4572430  45.1035870  43.9647310  12.1200550  37.1755940  38.7522830
  11.3065160  36.6769110  38.6768140  11.9262500  38.0154190  38.3359180
  12.0409410  45.8527040  50.4962440  11.9746720  44.9322710  50.2420030
  11.4114550  45.9502480  51.2107080  14.8348940  41.5475590  37.0484990
  15.7228560  41.8592820  36.8736330  14.8054030  40.6747840  36.6565570
   5.9440030  46.4533000  42.4545860   6.4618700  45.6501260  42.4002750
   5.4924050  46.3912140  43.2962690  10.8309530  47.7199280  37.7273160
  11.1725230  48.4641510  37.2316480  10.0022240  48.0330400  38.0897990
   3.4284570  43.4194370  49.3671560   3.0699510  44.0848220  49.9544900
   3.1339130  42.5877920  49.7384180   6.6297690  43.8778610  52.2511110
   6.3297830  44.0235790  51.3538930   7.4008930  43.3183900  52.1584500
  11.9726140  48.6747610  50.2466240  11.9870680  47.7428570  50.0285150
  11.2651240  48.7607370  50.8856010  17.1063210  42.8587430  36.5164850
  17.0226930  43.2901650  35.6661290  17.8257400  43.3185780  36.9491670
  18.1837350  45.3154950  49.5934820  17.4585540  45.9083730  49.3964210
  18.7112810  45.3078490  48.7948190  18.1350460  49.7129690  39.2446980
  17.4926620  49.0585310  39.5190700  17.7481120  50.1184780  38.4687650
  13.7136940  47.0415120  43.0918670  14.0660760  46.4443250  42.4320040
  12.8299270  46.7159350  43.2626920   9.8000220  47.8012810  40.4989080
  10.4871350  48.3482020  40.8796670   9.0132640  48.3453540  40.5338690
   9.1027430  44.8058840  40.1114440   9.5590210  45.6164090  40.3374630
   8.7515640  44.4881980  40.9432930  11.4060040  50.3165180  47.3406740
  12.0502260  50.5224560  48.0180160  11.7689480  49.5553580  46.8877590
   5.0039210  35.1496490  40.5836960   4.8753840  35.1414390  41.5321880
   4.1801230  35.4879580  40.2327970  12.6792120  48.3197530  46.0584190
  13.3214350  47.6190690  46.1716360  13.2041470  49.0995970  45.8781080
  16.5247840  48.6046150  35.7823330  16.2985420  47.8876590  36.3747970
  16.1344040  48.3558590  34.9445080  14.4529740  49.1192430  49.2620250
  14.7885980  49.7059120  49.9398170  13.5330080  48.9885140  49.4918040
   2.3063870  52.6313010  36.5567790   2.6661510  53.2302350  35.9025060
   2.1656210  53.1772900  37.3302820  16.1064090  46.5218090  37.4437490
  15.8185790  46.9830780  38.2315370  16.9016260  46.0615860  37.7121710
   2.2905730  50.8967870  51.0310190   2.3996850  49.9562610  50.8905580
   1.6386290  51.1622620  50.3823920  10.2818320  49.1683760  52.4308310
   9.9615190  48.4493000  52.9754000   9.6076680  49.8438830  52.5044370
   8.3232490  50.0144210  37.3741460   8.3142590  50.7473900  36.7585970
   7.4030850  49.7675790  37.4668420   3.9239130  45.2359100  38.1188220
   3.3167080  45.9758000  38.1283520   4.3988480  45.3258460  37.2926420
  13.4971920  39.4009920  47.7945110  13.8652740  38.5805130  48.1224680
  12.6370120  39.4611810  48.2100760  16.8633950  38.3566860  38.6032670
  16.2347110  38.4612530  37.8890900  16.3685870  38.5763640  39.3926550
  11.3092090  50.0772450  36.0366650  11.4104070  49.8736440  35.1068630
  10.4093830  49.8230730  36.2414430   8.8317980  40.6352810  40.0190550
   8.1234130  41.1039150  40.4604160   9.1162460  39.9774820  40.6535740
  10.4573910  42.0549510  48.0183080  10.9559160  42.5295330  48.6834930
  10.5996860  41.1313030  48.2253110  12.8633410  37.3603470  41.4586340
  12.7401190  37.3789600  40.5095850  13.8117970  37.4082410  41.5784740
   9.9510200  52.5958770  40.7314320  10.2051700  52.5580160  39.8093690
   9.0022680  52.4692100  40.7242570   7.0353000  38.9437890  37.3941260
   7.8843530  39.3808040  37.3281450   6.6684270  39.2558150  38.2213320
  17.6640770  38.2717470  48.8611470  17.1614370  39.0122870  49.2005280
  18.4797430  38.6601470  48.5448260  15.9562780  43.5150650  42.3072830
  15.0152920  43.5300880  42.4820520  16.2706850  42.7286610  42.7533130
   5.9344420  45.1970250  35.8676790   6.7007690  45.0851610  36.4302220
   6.0119110  44.5008220  35.2153560   4.6291180  42.6295320  36.5509680
   4.7094770  41.6822830  36.6627080   5.5210930  42.9602200  36.6570340
  17.9588360  50.6859500  43.9827090  18.0835780  51.5090670  44.4550900
  18.8253920  50.4750230  43.6351240   5.4305890  52.7790710  43.6544220
   6.1668370  52.2306170  43.9252790   5.8146810  53.6446720  43.5150210
   4.4364170  51.9636780  52.8429800   5.2376900  52.2848830  53.2565200
   3.9215990  51.6032360  53.5649710   8.5408200  51.9521020  35.4769790
   9.3336810  52.2409850  35.0251580   8.0212550  51.5213190  34.7982270
  13.2728800  48.0716650  52.7905210  12.6666960  48.0948250  52.0500960
  12.9682910  47.3399690  53.3272460  14.7029170  51.7996940  51.4014620
  15.6550920  51.7154960  51.3514860  14.5557390  52.4638650  52.0748410
  17.5938370  51.1791150  36.9006530  17.3079880  50.7656290  36.0860710
  17.3957920  52.1078860  36.7807050   9.0585600  47.1724430  35.3412140
   8.9536240  46.5576780  36.0673520   8.8909820  46.6490320  34.5575150
   9.2099920  45.8581230  51.3201370   8.4445590  46.4266230  51.2356040
   9.3915880  45.5657440  50.4269600  12.2988330  46.2344460  35.9454130
  11.7498430  46.6813760  36.5896870  12.9207590  45.7293710  36.4691800
  16.3523270  47.5886560  51.8776390  17.0932740  47.9262320  51.3743850
  15.5895950  47.7578620  51.3246160   4.1885060  42.5939830  52.6815920
   4.2290400  42.2953700  53.5901150   5.0430560  42.9947440  52.5223440
   7.9663450  45.1935380  37.8419430   8.3879870  45.0275250  38.6850820
   8.0914290  44.3835610  37.3474570   6.1290870  41.1731930  50.6490410
   5.5987330  40.6822880  50.0213750   6.7978940  41.6016130  50.1148340
  10.4791090  44.2172990  35.0896530  10.9996750  43.5022010  34.7237680
  11.1259490  44.8558860  35.3897040  15.0268930  45.6401390  50.4131600
  15.4409950  45.7946470  51.2622020  14.0919930  45.7656610  50.5757380
  15.4991100  42.9797550  52.4170750  16.0811870  42.2249870  52.3291230
  15.6752870  43.5104990  51.6402230   6.6163170  38.1394300  50.7287700
   6.5220040  37.5215050  50.0038570   6.0360560  38.8660590  50.5017610
   9.3824610  36.6967540  47.7615090   8.9341910  36.7191800  46.9160640
   8.7489810  36.2986560  48.3585390   9.7884160  45.5921870  48.3827530
  10.2072270  46.4354600  48.2103770   8.8692790  45.7293910  48.1534310
  12.1248060  43.3238050  49.7665370  12.2444270  42.7279190  50.5060210
  12.9842060  43.3607740  49.3466670  14.4635960  43.8775240  48.3427880
  13.9371180  44.4017860  47.7393020  14.8067300  44.5102630  48.9737610
   6.8622350  41.2668610  34.7877590   6.6611410  40.4035970  35.1490930
   6.6914400  41.1801970  33.8499190   7.6391580  51.8974880  49.4985260
   7.1012670  52.6220940  49.1793960   7.8925540  51.4205220  48.7082600
   8.8916830  39.8659400  51.0241190   9.4816520  39.5575250  51.7119010
   8.0737070  39.3939150  51.1801090  13.7110260  39.4825210  51.2574210
  13.0225780  38.8206750  51.1924200  14.4316280  39.0363480  51.7022670
  14.3410660  36.0776840  37.3164470  14.6212950  35.2344740  37.6723890
  13.5676390  36.3099950  37.8303220   5.6605150  38.3669230  34.7755470
   5.9631050  38.3736660  33.8674620   6.3999740  38.0167090  35.2723130
  10.4953790  53.1326090  49.7571910  10.4212490  54.0361230  50.0644280
   9.5932630  52.8137990  49.7293980   8.8790080  37.3103850  35.7611670
   8.5312080  36.6327840  35.1814120   9.0802850  36.8493360  36.5755060
  11.0439120  52.2984600  37.3798270  11.9389910  52.6369570  37.4017030
  11.0756750  51.5764010  36.7522550   4.6835280  47.6711650  35.6085270
   5.1210150  48.2141320  36.2642850   5.1683010  46.8458600  35.6181610
   1.8981080  50.4600680  43.0605530   2.2284090  49.5921740  42.8284170
   2.3272080  50.6659200  43.8910490   6.4943000  48.7909690  40.7207500
   6.1938540  48.6674660  41.6211410   6.3880490  47.9318280  40.3123230
   2.3871290  51.3271270  45.7987160   1.9502280  51.5072070  46.6311310
   2.9548970  52.0845890  45.6568880  18.0233470  50.8288270  50.0864470
  17.4235460  50.8880830  49.3428390  18.1527370  49.8893250  50.2161320
  19.2634920  48.5706090  35.4234180  18.4327880  48.6382740  35.8941410
  19.4406750  49.4610210  35.1201040  18.7191380  45.3153570  37.9268380
  19.4810290  45.8850220  38.0328070  18.7345750  44.7480770  38.6976690
   2.2195720  43.8391500  42.1576040   1.5644560  43.5703140  41.5135740
   3.0573670  43.7295980  41.7078020  19.7251350  46.1703670  42.7710310
  20.0960180  45.3870990  42.3646280  20.3653280  46.8592770  42.5927610
  16.7085110  47.5540250  48.1840630  15.8944950  47.9837410  48.4466420
  17.1159310  48.1658660  47.5709680  18.7710550  45.6087940  35.0840900
  19.0459390  46.5166820  34.9560120  18.5821290  45.5450470  36.0202890
  15.1686160  38.6332790  36.3794530  15.5871040  38.4463770  35.5391190
  14.8622220  37.7811840  36.6897460  18.6675890  43.5456930  40.0770330
  18.2919490  42.7784860  39.6451620  17.9379010  43.9279630  40.5645260
   3.2571650  44.2244070  46.6979380   3.6244690  44.1371470  47.5775400
   2.6882470  43.4610620  46.5986240  18.0575510  42.6928450  49.7109850
  17.8261600  42.4641200  48.8107800  18.3180060  43.6128000  49.6654740
   2.8087650  41.1353160  50.6037800   1.9143700  41.1019920  50.9431510
   3.3485200  41.3339950  51.3689050  16.4963580  37.9184880  52.4889550
  17.3733760  37.9268280  52.8723550  16.5084420  37.1815720  51.8781900
  17.9426850  41.7714420  43.3777570  18.4664330  41.2777070  42.7467740
  18.5286270  41.9064780  44.1225140  18.1216570  41.8554290  46.8997120
  17.1719280  41.8217830  47.0142110  18.3029580  42.7654400  46.6646890
   3.9761010  40.1055970  36.0095750   4.6852710  39.6839190  35.5243030
   3.2600950  40.1731200  35.3779100   3.6235170  36.1595300  35.0498400
   4.3463300  36.7004240  35.3679620   3.8959690  35.8858720  34.1739940
  17.4326820  41.0287770  39.3169980  17.9285940  40.7958640  40.1018860
  17.2342890  40.1899610  38.9007620   3.3127360  35.4101490  44.9521020
   3.9603550  34.8598870  44.5116180   3.7329200  35.6644640  45.7736830
  18.8613980  39.6648720  41.8507660  18.7513260  39.5104760  42.7889930
  19.6221570  39.1369660  41.6083070  17.2079700  35.6042850  48.3090660
  17.8451920  36.2176990  48.6749850  17.3554590  35.6403510  47.3639890
  19.7504250  37.4956640  35.0913800  20.6753560  37.3637820  34.8832090
  19.7280040  37.5749460  36.0450250  19.8242740  38.2667300  37.7170510
  19.0294240  38.2012420  38.2463420  20.0286020  39.2017940  37.7055860
  16.7661160  52.3058850  41.7108900  17.3620230  51.9843420  41.0343320
  17.0239310  51.8330670  42.5022170   3.0659360  35.5657160  47.6946340
   2.7174180  36.0220980  48.4604520   2.7347060  34.6714290  47.7768770
   4.6723730  48.7376760  51.8599530   4.6293360  48.3669670  52.7413990
   4.8034740  49.6754330  52.0001350   8.3729760  50.2936350  47.4609250
   8.1321120  50.5610910  46.5739770   9.3132400  50.4642080  47.5160110
  10.5784180  36.7569040  51.2165760  10.5173070  37.3490870  51.9661170
  11.5184560  36.6495000  51.0716020  13.2158740  36.4139100  50.8558050
  13.8299150  36.7318390  50.1939130  13.7608300  35.9287690  51.4753910
  19.6333920  52.3130730  48.2619890  19.1392200  52.7099600  47.5447020
  19.0247210  51.6879940  48.6557170   3.7380000  35.0933360  50.9697110
   4.2862990  34.9121410  50.2063220   3.8035310  34.3027470  51.5053420
   4.5111760  51.6839010  48.9797310   3.9172080  51.5523710  49.7187350
   4.5035600  50.8477150  48.5139410  13.9566780  34.9771240  47.1827340
  13.0826620  35.3106350  46.9800270  13.8477530  34.5044420  48.0079210
  14.8638760  37.1842110  48.5669060  14.5352120  36.3693870  48.1870790
  15.8121060  37.1411920  48.4434750  17.3173370  52.9554150  45.5406630
  16.8576340  53.7069960  45.1664650  16.6885830  52.2360620  45.4821430
   4.1423990  49.0497390  47.9305350   3.4158050  48.4302680  47.8631300
   4.2033140  49.4438000  47.0603430   7.7469090  51.2642390  44.7154760
   8.2634110  50.6529750  44.1903020   8.3966470  51.7671170  45.2065770
  10.4864590  52.1550880  45.5423740  10.7742400  51.9005180  44.6656750
  10.9987810  51.6028240  46.1329310  11.7041600  35.8941080  46.1220250
  10.9213390  36.3686580  46.4017010  11.4104530  34.9895910  46.0133430
  16.2562670  36.5964180  44.1669340  16.6970760  36.5409280  43.3190940
  15.9870260  37.5122190  44.2379520  18.1201240  36.2279420  42.1778160
  18.0589640  35.2840640  42.0309180  18.8993270  36.3359510  42.7231620
   2.4253990  52.3671780  41.1402110   2.2576030  51.7342460  41.8384000
   1.5588500  52.5731180  40.7896300   3.0482010  36.1988560  38.6433970
   3.8061370  36.3117440  38.0698000   2.5859180  37.0357760  38.5977400
   9.5895820  38.3127830  41.6336280   8.7770330  37.9384720  41.2932160
  10.0937460  37.5572910  41.9357470  14.0920800  34.9770280  42.8719350
  14.6950170  35.5490490  43.3467870  13.3513790  35.5409720  42.6493250
  17.2355400  35.3791840  38.1459630  17.4306030  36.2775290  38.4127060
  16.4485270  35.1478920  38.6392580   4.0316690  51.0605010  38.5852250
   3.5064310  51.4413040  37.8814210   3.9561270  51.6855780  39.3061960
   5.4207160  36.7252610  37.1835940   5.9499920  35.9382410  37.0543890
   6.0535480  37.4043800  37.4171470   7.6145000  36.4627750  40.2381330
   6.9847740  35.7615060  40.4051460   7.0750140  37.2231880  40.0214490
  10.5536950  53.0766980  52.9091940  11.4804260  52.8411250  52.9527900
  10.5387380  53.9038980  52.4277970  18.7882010  52.6192550  39.9066190
  18.9634200  51.9330290  39.2627110  18.0903580  53.1439600  39.5142860
   7.7400560  35.7411730  52.6733820   7.4584830  36.2445330  51.9094640
   8.1220260  34.9433480  52.3075950   6.6309660  53.0087390  37.4601500
   7.3628480  52.7246670  36.9125390   6.8903330  52.7700670  38.3500880
   5.7924450  49.1252120  37.4647830   5.1633330  49.5937220  38.0133660
   5.9072280  48.2801340  37.8994020  14.3416020  35.1565310  53.2514290
  14.2281470  35.4759920  54.1465810  15.1585760  35.5577820  52.9551570
  17.1214510  52.3036840  52.7332980  17.9139830  51.8086070  52.5258940
  17.4147660  52.9826980  53.3408590  13.2474170  43.1757780  23.6149030
  13.1668220  42.2612390  23.3440740  12.8338590  43.6724850  22.9088740
  11.3792210  44.9536800  25.4958300  10.6034310  44.4737240  25.7856870
  12.0305140  44.2742450  25.3214460   5.3958040  45.2656610  26.3734060
   4.5642920  45.0105320  26.7730570   6.0039020  45.3367380  27.1091980
  15.3999640  49.3596990  24.2757430  14.9381170  48.5884230  24.6044600
  16.2125190  49.3863060  24.7809880   5.3759300  49.2996700  26.5692080
   5.6787340  48.4094440  26.3902300   6.1202890  49.8566920  26.3414330
   3.8049990  40.2258500  20.1576450   2.9166690  40.5674470  20.0556330
   4.0891180  40.0258820  19.2657280   1.7683000  42.8264150  26.0416150
   2.3399110  42.0586350  26.0419790   1.7684540  43.1252910  25.1322760
  11.6262950  51.6455000  23.8961420  11.0074390  52.1012500  23.3255860
  12.4814730  51.8006460  23.4951120  10.8201200  47.6293990  25.5028460
  10.7509480  46.6883930  25.3417590  11.5821060  47.7195400  26.0751030
   3.0107870  38.2348510  27.8285080   2.8310710  37.3374260  28.1087840
   2.6087950  38.7820380  28.5032030  11.8506370  40.4364370  25.7297390
  12.2271190  39.5636250  25.6171060  11.7525880  40.7723070  24.8387830
   5.9811380  38.8090000  21.1914830   6.0878130  39.7093730  21.4983590
   5.0703740  38.7607970  20.9009480  15.6330490  37.9314810  22.6625730
  16.4540110  37.4411380  22.7051210  15.6664570  38.5212470  23.4157570
   3.6294540  40.7309010  26.4367420   4.3104650  40.9947380  27.0554820
   3.3142590  39.8909880  26.7705430   7.8219110  41.7776370  25.5240010
   8.3297330  42.2757340  26.1645030   8.3532350  41.0011570  25.3479370
  19.9230040  39.9481560  29.2269360  19.2182210  40.3363270  28.7084470
  20.1887960  40.6431850  29.8290290   6.1055210  36.4174930  29.7903430
   6.1073650  36.9347320  28.9849330   5.2759520  35.9405110  29.7673360
  12.4926300  46.5294240  21.2893330  11.8743570  46.9943690  20.7256050
  13.0049550  47.2221720  21.7062840   7.3558060  46.0570110  27.9676930
   7.0227440  46.6839030  28.6098000   7.5324740  46.5831990  27.1878600
  15.8691970  39.8715190  25.4353270  15.1647540  40.1600080  26.0156380
  16.2304130  40.6815300  25.0752830   5.7870540  38.1284890  27.7973880
   6.1287350  38.9726940  27.5027750   4.8486350  38.2768630  27.9139220
   6.5677160  48.0250910  29.7826110   7.1851160  48.7001990  29.5010560
   5.7070280  48.4338890  29.6913610   1.8609500  47.2150770  18.6632960
   1.4837480  47.7037870  17.9317860   2.1182570  47.8876050  19.2939490
  17.4854750  49.4890320  27.6980750  16.8018270  50.1589430  27.6897420
  18.0249040  49.6870970  26.9325610  18.9378890  39.3169980  25.8262480
  17.9903800  39.3508960  25.9577910  19.2628880  40.1308930  26.2111840
   9.4698430  35.6167160  24.1218470   9.7773410  35.0614050  23.4053970
   8.5399130  35.7511620  23.9391460  15.0213490  51.3334450  26.4125930
  15.0340650  50.9296740  25.5448190  14.4688710  52.1081740  26.3087360
  16.3158910  48.0550670  21.5016100  16.2055240  47.1125000  21.6265520
  16.3127160  48.4166310  22.3878860  14.4198930  46.2364290  27.7408540
  14.8367720  46.0224400  26.9062000  15.1438750  46.4937080  28.3117160
  11.8579190  43.6815990  20.8578590  10.9308470  43.6153370  21.0867060
  12.0104010  44.6196120  20.7433830  11.8448270  39.9532990  17.8545750
  10.9051940  40.1146950  17.9398210  12.1631530  40.6718670  17.3081740
  18.3661030  44.6351510  27.8324780  17.5379660  44.7044600  27.3574910
  18.9611510  45.2205820  27.3640610  15.8876480  45.2436290  21.3613840
  15.2688900  44.9055840  20.7140140  15.8700930  44.5996050  22.0693030
  15.3303040  41.4220830  28.7779650  14.9174220  42.2474540  29.0319640
  14.5978990  40.8365870  28.5856010   7.4635830  44.2080730  23.6398320
   7.0592830  43.4957980  23.1444220   7.5498950  43.8633970  24.5286360
   7.9317530  47.8948290  25.8037530   7.6345820  47.2893760  25.1245310
   8.8817350  47.9325600  25.6926890   6.1764450  40.9823940  27.4197360
   6.7279040  41.0919280  26.6450610   6.6907960  41.3561540  28.1352590
  16.0203140  51.4680160  29.4660630  15.5433700  52.2752350  29.2733240
  15.3364930  50.8158490  29.6186840   7.0235960  47.6329980  32.4545330
   6.1264490  47.8569950  32.7018730   7.0488830  47.7564920  31.5056730
  14.0641180  44.4823100  18.3686590  14.5034460  43.6445530  18.2224410
  14.7769600  45.1152500  18.4550730   5.8507180  44.5043300  31.0302700
   5.7114950  45.3766100  31.3990100   4.9688540  44.1616110  30.8850640
  12.1736560  49.4219170  22.3367830  12.6132470  50.1643500  21.9223220
  12.1123450  49.6645740  23.2606790   7.6487530  50.4465000  33.2387850
   7.6202960  50.8507950  32.3716280   7.4852500  49.5175360  33.0759450
  17.6458320  35.7365910  16.6827630  17.3330980  35.8292740  17.5826700
  18.4070790  36.3146940  16.6325060   4.1640460  43.1025710  21.1404970
   4.0438060  43.8287800  20.5286240   3.8541350  42.3328620  20.6632880
  19.6002350  51.2292100  34.5352020  20.0762070  51.7074990  35.2141100
  20.2209510  51.1609590  33.8097520   1.8025830  46.2740850  26.9473610
   1.8806250  46.4089620  26.0029330   2.4167510  45.5656740  27.1401730
   3.0473460  47.9741040  23.3579790   2.6401540  48.1155630  22.5033390
   3.9386470  47.6901200  23.1551000  19.0035600  48.4204950  31.6952030
  19.1298660  48.1816830  30.7769210  19.0456980  47.5889490  32.1674110
  12.8652340  52.1232950  30.2646840  13.3797010  52.0340960  31.0669270
  12.0221420  52.4692650  30.5574750  14.8406740  52.4088290  19.6930840
  14.6807880  52.1191230  20.5912670  14.6753450  51.6328420  19.1576070
   7.3195120  52.1886820  21.4702460   7.1437600  51.2722360  21.2570260
   6.4650860  52.5474110  21.7100260  14.5432870  49.9175850  18.2528840
  13.8498030  49.9153140  17.5931120  15.2855730  49.4935170  17.8223010
  14.1082800  51.5438560  22.3277330  14.5639750  50.7627940  22.6415950
  14.4475320  52.2545380  22.8718510  18.8559610  40.4737410  32.6601770
  18.2403880  40.9817080  32.1317230  18.5356030  39.5735740  32.6027710
   1.8585350  47.3155020  29.4868070   2.0216390  46.8460380  28.6687440
   2.3237800  46.8078580  30.1516910   6.6304120  36.4460780  24.5228640
   6.1872270  37.2270320  24.1913160   7.1889110  36.7690670  25.2299580
  10.9173930  39.3129300  30.1263960  10.4553300  39.5212320  30.9383900
  10.5152040  38.4988650  29.8234630  15.9178440  40.5338250  31.2560620
  15.0672030  40.2344000  31.5769690  15.7580230  40.7780260  30.3444440
  13.0128150  42.0340000  33.3559410  13.3381560  41.2003750  33.0161640
  13.8008480  42.5568520  33.5037740   9.7462940  36.0671480  19.4034470
   9.1217120  36.0631350  20.1287780   9.6593060  35.2002440  19.0070440
   8.6680020  36.9908110  26.3818240   8.9652350  37.8970940  26.3010260
   9.2165580  36.5026890  25.7677810   6.4218340  41.5694350  22.2509890
   6.1959260  41.3531520  23.1556510   5.6410870  42.0022810  21.9055860
  13.6516100  41.5757720  20.8500540  13.0524990  42.2993520  20.6664160
  14.1995710  41.5134500  20.0676990   8.8617550  42.4679930  32.9170160
   8.7661150  41.5274660  32.7670560   9.7049530  42.6895000  32.5218230
  12.2580970  40.2121260  22.8803820  12.6510540  40.5293460  22.0672510
  12.6197820  39.3333140  22.9948340   3.9928090  38.8793600  31.0703940
   3.5991480  39.7268810  31.2776720   3.3046490  38.2419970  31.2612580
  10.5673140  38.9628570  34.1400680   9.8771460  38.7700770  34.7746770
  11.3105440  39.2463210  34.6724980  12.8436110  42.8027010  26.9754600
  12.1117230  43.3113820  27.3244700  12.4460450  41.9856990  26.6743380
   9.2813500  39.4781210  25.3807090   9.2849560  39.0371160  24.5311630
  10.1764620  39.7998540  25.4878910   5.1315880  39.3607700  24.3401300
   4.7915930  39.8382930  25.0968350   4.3693200  38.9072820  23.9802400
   9.3433650  40.4793290  18.3713850   9.4646470  40.4379770  19.3199670
   8.9582160  41.3417440  18.2160580  13.3062020  38.2560690  26.3877540
  13.3234760  38.7069340  27.2319390  13.0577600  37.3566330  26.6010980
   8.3555150  42.7894430  17.7697150   7.7872050  42.3412680  17.1433060
   9.0644150  43.1487210  17.2362300  16.7332770  35.6692870  32.2263920
  17.0578540  34.9382530  32.7521900  16.7689280  35.3506510  31.3244910
   3.4324330  46.6906450  31.6463880   3.0479120  46.0500120  32.2446840
   3.7436520  47.3942570  32.2158610   9.5821470  43.5382990  27.1272500
   9.9491600  43.0641560  27.8733840   9.3926530  44.4124560  27.4680840
   2.4461960  38.2826680  23.2565970   2.1608880  37.9182350  24.0944590
   2.3840820  37.5507140  22.6429110   7.3720840  42.5791630  29.4456710
   7.0677910  43.4583610  29.6707070   8.3267300  42.6391420  29.4814150
   5.9002630  46.7852620  20.0423560   5.1264890  46.2450240  19.8822280
   6.6297260  46.2659230  19.7041320  16.6590610  45.7817980  25.8349950
  17.3789730  46.2773270  25.4446060  16.4572430  45.1035870  25.1903820
  12.1200550  37.1755940  19.9779340  11.3065160  36.6769110  19.9024650
  11.9262500  38.0154190  19.5615690  12.0409410  45.8527040  31.7218950
  11.9746720  44.9322710  31.4676540  11.4114550  45.9502480  32.4363590
  14.8348940  41.5475590  18.2741500  15.7228560  41.8592820  18.0992840
  14.8054030  40.6747840  17.8822080   5.9440030  46.4533000  23.6802370
   6.4618700  45.6501260  23.6259260   5.4924050  46.3912140  24.5219200
  10.8309530  47.7199280  18.9529670  11.1725230  48.4641510  18.4572990
  10.0022240  48.0330400  19.3154500   3.4284570  43.4194370  30.5928070
   3.0699510  44.0848220  31.1801410   3.1339130  42.5877920  30.9640690
   6.6297690  43.8778610  33.4767620   6.3297830  44.0235790  32.5795440
   7.4008930  43.3183900  33.3841010  11.9726140  48.6747610  31.4722750
  11.9870680  47.7428570  31.2541660  11.2651240  48.7607370  32.1112520
  17.1063210  42.8587430  17.7421360  17.0226930  43.2901650  16.8917800
  17.8257400  43.3185780  18.1748180  18.1837350  45.3154950  30.8191330
  17.4585540  45.9083730  30.6220720  18.7112810  45.3078490  30.0204700
  18.1350460  49.7129690  20.4703490  17.4926620  49.0585310  20.7447210
  17.7481120  50.1184780  19.6944160  13.7136940  47.0415120  24.3175180
  14.0660760  46.4443250  23.6576550  12.8299270  46.7159350  24.4883430
   9.8000220  47.8012810  21.7245590  10.4871350  48.3482020  22.1053180
   9.0132640  48.3453540  21.7595200   9.1027430  44.8058840  21.3370950
   9.5590210  45.6164090  21.5631140   8.7515640  44.4881980  22.1689440
  11.4060040  50.3165180  28.5663250  12.0502260  50.5224560  29.2436670
  11.7689480  49.5553580  28.1134100   5.0039210  35.1496490  21.8093470
   4.8753840  35.1414390  22.7578390   4.1801230  35.4879580  21.4584480
  12.6792120  48.3197530  27.2840700  13.3214350  47.6190690  27.3972870
  13.2041470  49.0995970  27.1037590  16.5247840  48.6046150  17.0079840
  16.2985420  47.8876590  17.6004480  16.1344040  48.3558590  16.1701590
  14.4529740  49.1192430  30.4876760  14.7885980  49.7059120  31.1654680
  13.5330080  48.9885140  30.7174550   2.3063870  52.6313010  17.7824300
   2.6661510  53.2302350  17.1281570   2.1656210  53.1772900  18.5559330
  16.1064090  46.5218090  18.6694000  15.8185790  46.9830780  19.4571880
  16.9016260  46.0615860  18.9378220   2.2905730  50.8967870  32.2566700
   2.3996850  49.9562610  32.1162090   1.6386290  51.1622620  31.6080430
  10.2818320  49.1683760  33.6564820   9.9615190  48.4493000  34.2010510
   9.6076680  49.8438830  33.7300880   8.3232490  50.0144210  18.5997970
   8.3142590  50.7473900  17.9842480   7.4030850  49.7675790  18.6924930
   3.9239130  45.2359100  19.3444730   3.3167080  45.9758000  19.3540030
   4.3988480  45.3258460  18.5182930  13.4971920  39.4009920  29.0201620
  13.8652740  38.5805130  29.3481190  12.6370120  39.4611810  29.4357270
  16.8633950  38.3566860  19.8289180  16.2347110  38.4612530  19.1147410
  16.3685870  38.5763640  20.6183060  11.3092090  50.0772450  17.2623160
  11.4104070  49.8736440  16.3325140  10.4093830  49.8230730  17.4670940
   8.8317980  40.6352810  21.2447060   8.1234130  41.1039150  21.6860670
   9.1162460  39.9774820  21.8792250  10.4573910  42.0549510  29.2439590
  10.9559160  42.5295330  29.9091440  10.5996860  41.1313030  29.4509620
  12.8633410  37.3603470  22.6842850  12.7401190  37.3789600  21.7352360
  13.8117970  37.4082410  22.8041250   9.9510200  52.5958770  21.9570830
  10.2051700  52.5580160  21.0350200   9.0022680  52.4692100  21.9499080
   7.0353000  38.9437890  18.6197770   7.8843530  39.3808040  18.5537960
   6.6684270  39.2558150  19.4469830  17.6640770  38.2717470  30.0867980
  17.1614370  39.0122870  30.4261790  18.4797430  38.6601470  29.7704770
  15.9562780  43.5150650  23.5329340  15.0152920  43.5300880  23.7077030
  16.2706850  42.7286610  23.9789640   5.9344420  45.1970250  17.0933300
   6.7007690  45.0851610  17.6558730   6.0119110  44.5008220  16.4410070
   4.6291180  42.6295320  17.7766190   4.7094770  41.6822830  17.8883590
   5.5210930  42.9602200  17.8826850  17.9588360  50.6859500  25.2083600
  18.0835780  51.5090670  25.6807410  18.8253920  50.4750230  24.8607750
   5.4305890  52.7790710  24.8800730   6.1668370  52.2306170  25.1509300
   5.8146810  53.6446720  24.7406720   4.4364170  51.9636780  34.0686310
   5.2376900  52.2848830  34.4821710   3.9215990  51.6032360  34.7906220
   8.5408200  51.9521020  16.7026300   9.3336810  52.2409850  16.2508090
   8.0212550  51.5213190  16.0238780  13.2728800  48.0716650  34.0161720
  12.6666960  48.0948250  33.2757470  12.9682910  47.3399690  34.5528970
  14.7029170  51.7996940  32.6271130  15.6550920  51.7154960  32.5771370
  14.5557390  52.4638650  33.3004920  17.5938370  51.1791150  18.1263040
  17.3079880  50.7656290  17.3117220  17.3957920  52.1078860  18.0063560
   9.0585600  47.1724430  16.5668650   8.9536240  46.5576780  17.2930030
   8.8909820  46.6490320  15.7831660   9.2099920  45.8581230  32.5457880
   8.4445590  46.4266230  32.4612550   9.3915880  45.5657440  31.6526110
  12.2988330  46.2344460  17.1710640  11.7498430  46.6813760  17.8153380
  12.9207590  45.7293710  17.6948310  16.3523270  47.5886560  33.1032900
  17.0932740  47.9262320  32.6000360  15.5895950  47.7578620  32.5502670
   4.1885060  42.5939830  33.9072430   4.2290400  42.2953700  34.8157660
   5.0430560  42.9947440  33.7479950   7.9663450  45.1935380  19.0675940
   8.3879870  45.0275250  19.9107330   8.0914290  44.3835610  18.5731080
   6.1290870  41.1731930  31.8746920   5.5987330  40.6822880  31.2470260
   6.7978940  41.6016130  31.3404850  10.4791090  44.2172990  16.3153040
  10.9996750  43.5022010  15.9494190  11.1259490  44.8558860  16.6153550
  15.0268930  45.6401390  31.6388110  15.4409950  45.7946470  32.4878530
  14.0919930  45.7656610  31.8013890  15.4991100  42.9797550  33.6427260
  16.0811870  42.2249870  33.5547740  15.6752870  43.5104990  32.8658740
   6.6163170  38.1394300  31.9544210   6.5220040  37.5215050  31.2295080
   6.0360560  38.8660590  31.7274120   9.3824610  36.6967540  28.9871600
   8.9341910  36.7191800  28.1417150   8.7489810  36.2986560  29.5841900
   9.7884160  45.5921870  29.6084040  10.2072270  46.4354600  29.4360280
   8.8692790  45.7293910  29.3790820  12.1248060  43.3238050  30.9921880
  12.2444270  42.7279190  31.7316720  12.9842060  43.3607740  30.5723180
  14.4635960  43.8775240  29.5684390  13.9371180  44.4017860  28.9649530
  14.8067300  44.5102630  30.1994120   6.8622350  41.2668610  16.0134100
   6.6611410  40.4035970  16.3747440   6.6914400  41.1801970  15.0755700
   7.6391580  51.8974880  30.7241770   7.1012670  52.6220940  30.4050470
   7.8925540  51.4205220  29.9339110   8.8916830  39.8659400  32.2497700
   9.4816520  39.5575250  32.9375520   8.0737070  39.3939150  32.4057600
  13.7110260  39.4825210  32.4830720  13.0225780  38.8206750  32.4180710
  14.4316280  39.0363480  32.9279180  14.3410660  36.0776840  18.5420980
  14.6212950  35.2344740  18.8980400  13.5676390  36.3099950  19.0559730
   5.6605150  38.3669230  16.0011980   5.9631050  38.3736660  15.0931130
   6.3999740  38.0167090  16.4979640  10.4953790  53.1326090  30.9828420
  10.4212490  54.0361230  31.2900790   9.5932630  52.8137990  30.9550490
   8.8790080  37.3103850  16.9868180   8.5312080  36.6327840  16.4070630
   9.0802850  36.8493360  17.8011570  11.0439120  52.2984600  18.6054780
  11.9389910  52.6369570  18.6273540  11.0756750  51.5764010  17.9779060
   4.6835280  47.6711650  16.8341780   5.1210150  48.2141320  17.4899360
   5.1683010  46.8458600  16.8438120   1.8981080  50.4600680  24.2862040
   2.2284090  49.5921740  24.0540680   2.3272080  50.6659200  25.1167000
   6.4943000  48.7909690  21.9464010   6.1938540  48.6674660  22.8467920
   6.3880490  47.9318280  21.5379740   2.3871290  51.3271270  27.0243670
   1.9502280  51.5072070  27.8567820   2.9548970  52.0845890  26.8825390
  18.0233470  50.8288270  31.3120980  17.4235460  50.8880830  30.5684900
  18.1527370  49.8893250  31.4417830  19.2634920  48.5706090  16.6490690
  18.4327880  48.6382740  17.1197920  19.4406750  49.4610210  16.3457550
  18.7191380  45.3153570  19.1524890  19.4810290  45.8850220  19.2584580
  18.7345750  44.7480770  19.9233200   2.2195720  43.8391500  23.3832550
   1.5644560  43.5703140  22.7392250   3.0573670  43.7295980  22.9334530
  19.7251350  46.1703670  23.9966820  20.0960180  45.3870990  23.5902790
  20.3653280  46.8592770  23.8184120  16.7085110  47.5540250  29.4097140
  15.8944950  47.9837410  29.6722930  17.1159310  48.1658660  28.7966190
  18.7710550  45.6087940  16.3097410  19.0459390  46.5166820  16.1816630
  18.5821290  45.5450470  17.2459400  15.1686160  38.6332790  17.6051040
  15.5871040  38.4463770  16.7647700  14.8622220  37.7811840  17.9153970
  18.6675890  43.5456930  21.3026840  18.2919490  42.7784860  20.8708130
  17.9379010  43.9279630  21.7901770   3.2571650  44.2244070  27.9235890
   3.6244690  44.1371470  28.8031910   2.6882470  43.4610620  27.8242750
  18.0575510  42.6928450  30.9366360  17.8261600  42.4641200  30.0364310
  18.3180060  43.6128000  30.8911250   2.8087650  41.1353160  31.8294310
   1.9143700  41.1019920  32.1688020   3.3485200  41.3339950  32.5945560
  16.4963580  37.9184880  33.7146060  17.3733760  37.9268280  34.0980060
  16.5084420  37.1815720  33.1038410  17.9426850  41.7714420  24.6034080
  18.4664330  41.2777070  23.9724250  18.5286270  41.9064780  25.3481650
  18.1216570  41.8554290  28.1253630  17.1719280  41.8217830  28.2398620
  18.3029580  42.7654400  27.8903400   3.9761010  40.1055970  17.2352260
   4.6852710  39.6839190  16.7499540   3.2600950  40.1731200  16.6035610
   3.6235170  36.1595300  16.2754910   4.3463300  36.7004240  16.5936130
   3.8959690  35.8858720  15.3996450  17.4326820  41.0287770  20.5426490
  17.9285940  40.7958640  21.3275370  17.2342890  40.1899610  20.1264130
   3.3127360  35.4101490  26.1777530   3.9603550  34.8598870  25.7372690
   3.7329200  35.6644640  26.9993340  18.8613980  39.6648720  23.0764170
  18.7513260  39.5104760  24.0146440  19.6221570  39.1369660  22.8339580
  17.2079700  35.6042850  29.5347170  17.8451920  36.2176990  29.9006360
  17.3554590  35.6403510  28.5896400  19.7504250  37.4956640  16.3170310
  20.6753560  37.3637820  16.1088600  19.7280040  37.5749460  17.2706760
  19.8242740  38.2667300  18.9427020  19.0294240  38.2012420  19.4719930
  20.0286020  39.2017940  18.9312370  16.7661160  52.3058850  22.9365410
  17.3620230  51.9843420  22.2599830  17.0239310  51.8330670  23.7278680
   3.0659360  35.5657160  28.9202850   2.7174180  36.0220980  29.6861030
   2.7347060  34.6714290  29.0025280   4.6723730  48.7376760  33.0856040
   4.6293360  48.3669670  33.9670500   4.8034740  49.6754330  33.2257860
   8.3729760  50.2936350  28.6865760   8.1321120  50.5610910  27.7996280
   9.3132400  50.4642080  28.7416620  10.5784180  36.7569040  32.4422270
  10.5173070  37.3490870  33.1917680  11.5184560  36.6495000  32.2972530
  13.2158740  36.4139100  32.0814560  13.8299150  36.7318390  31.4195640
  13.7608300  35.9287690  32.7010420  19.6333920  52.3130730  29.4876400
  19.1392200  52.7099600  28.7703530  19.0247210  51.6879940  29.8813680
   3.7380000  35.0933360  32.1953620   4.2862990  34.9121410  31.4319730
   3.8035310  34.3027470  32.7309930   4.5111760  51.6839010  30.2053820
   3.9172080  51.5523710  30.9443860   4.5035600  50.8477150  29.7395920
  13.9566780  34.9771240  28.4083850  13.0826620  35.3106350  28.2056780
  13.8477530  34.5044420  29.2335720  14.8638760  37.1842110  29.7925570
  14.5352120  36.3693870  29.4127300  15.8121060  37.1411920  29.6691260
  17.3173370  52.9554150  26.7663140  16.8576340  53.7069960  26.3921160
  16.6885830  52.2360620  26.7077940   4.1423990  49.0497390  29.1561860
   3.4158050  48.4302680  29.0887810   4.2033140  49.4438000  28.2859940
   7.7469090  51.2642390  25.9411270   8.2634110  50.6529750  25.4159530
   8.3966470  51.7671170  26.4322280  10.4864590  52.1550880  26.7680250
  10.7742400  51.9005180  25.8913260  10.9987810  51.6028240  27.3585820
  11.7041600  35.8941080  27.3476760  10.9213390  36.3686580  27.6273520
  11.4104530  34.9895910  27.2389940  16.2562670  36.5964180  25.3925850
  16.6970760  36.5409280  24.5447450  15.9870260  37.5122190  25.4636030
  18.1201240  36.2279420  23.4034670  18.0589640  35.2840640  23.2565690
  18.8993270  36.3359510  23.9488130   2.4253990  52.3671780  22.3658620
   2.2576030  51.7342460  23.0640510   1.5588500  52.5731180  22.0152810
   3.0482010  36.1988560  19.8690480   3.8061370  36.3117440  19.2954510
   2.5859180  37.0357760  19.8233910   9.5895820  38.3127830  22.8592790
   8.7770330  37.9384720  22.5188670  10.0937460  37.5572910  23.1613980
  14.0920800  34.9770280  24.0975860  14.6950170  35.5490490  24.5724380
  13.3513790  35.5409720  23.8749760  17.2355400  35.3791840  19.3716140
  17.4306030  36.2775290  19.6383570  16.4485270  35.1478920  19.8649090
   4.0316690  51.0605010  19.8108760   3.5064310  51.4413040  19.1070720
   3.9561270  51.6855780  20.5318470   5.4207160  36.7252610  18.4092450
   5.9499920  35.9382410  18.2800400   6.0535480  37.4043800  18.6427980
   7.6145000  36.4627750  21.4637840   6.9847740  35.7615060  21.6307970
   7.0750140  37.2231880  21.2471000  10.5536950  53.0766980  34.1348450
  11.4804260  52.8411250  34.1784410  10.5387380  53.9038980  33.6534480
  18.7882010  52.6192550  21.1322700  18.9634200  51.9330290  20.4883620
  18.0903580  53.1439600  20.7399370   7.7400560  35.7411730  33.8990330
   7.4584830  36.2445330  33.1351150   8.1220260  34.9433480  33.5332460
   6.6309660  53.0087390  18.6858010   7.3628480  52.7246670  18.1381900
   6.8903330  52.7700670  19.5757390   5.7924450  49.1252120  18.6904340
   5.1633330  49.5937220  19.2390170   5.9072280  48.2801340  19.1250530
  14.3416020  35.1565310  34.4770800  14.2281470  35.4759920  35.3722320
  15.1585760  35.5577820  34.1808080  17.1214510  52.3036840  33.9589490
  17.9139830  51.8086070  33.7515450  17.4147660  52.9826980  34.5665100
  13.2474170  43.1757780   4.8405540  13.1668220  42.2612390   4.5697250
  12.8338590  43.6724850   4.1345250  11.3792210  44.9536800   6.7214810
  10.6034310  44.4737240   7.0113380  12.0305140  44.2742450   6.5470970
   5.3958040  45.2656610   7.5990570   4.5642920  45.0105320   7.9987080
   6.0039020  45.3367380   8.3348490  15.3999640  49.3596990   5.5013940
  14.9381170  48.5884230   5.8301110  16.2125190  49.3863060   6.0066390
   5.3759300  49.2996700   7.7948590   5.6787340  48.4094440   7.6158810
   6.1202890  49.8566920   7.5670840   1.7683000  42.8264150   7.2672660
   2.3399110  42.0586350   7.2676300   1.7684540  43.1252910   6.3579270
  11.6262950  51.6455000   5.1217930  11.0074390  52.1012500   4.5512370
  12.4814730  51.8006460   4.7207630  10.8201200  47.6293990   6.7284970
  10.7509480  46.6883930   6.5674100  11.5821060  47.7195400   7.3007540
   3.0107870  38.2348510   9.0541590   2.8310710  37.3374260   9.3344350
   2.6087950  38.7820380   9.7288540  11.8506370  40.4364370   6.9553900
  12.2271190  39.5636250   6.8427570  11.7525880  40.7723070   6.0644340
   5.9811380  38.8090000   2.4171340   6.0878130  39.7093730   2.7240100
   5.0703740  38.7607970   2.1265990  15.6330490  37.9314810   3.8882240
  16.4540110  37.4411380   3.9307720  15.6664570  38.5212470   4.6414080
   3.6294540  40.7309010   7.6623930   4.3104650  40.9947380   8.2811330
   3.3142590  39.8909880   7.9961940   7.8219110  41.7776370   6.7496520
   8.3297330  42.2757340   7.3901540   8.3532350  41.0011570   6.5735880
  19.9230040  39.9481560  10.4525870  19.2182210  40.3363270   9.9340980
  20.1887960  40.6431850  11.0546800   6.1055210  36.4174930  11.0159940
   6.1073650  36.9347320  10.2105840   5.2759520  35.9405110  10.9929870
  12.4926300  46.5294240   2.5149840  11.8743570  46.9943690   1.9512560
  13.0049550  47.2221720   2.9319350   7.3558060  46.0570110   9.1933440
   7.0227440  46.6839030   9.8354510   7.5324740  46.5831990   8.4135110
  15.8691970  39.8715190   6.6609780  15.1647540  40.1600080   7.2412890
  16.2304130  40.6815300   6.3009340   5.7870540  38.1284890   9.0230390
   6.1287350  38.9726940   8.7284260   4.8486350  38.2768630   9.1395730
   6.5677160  48.0250910  11.0082620   7.1851160  48.7001990  10.7267070
   5.7070280  48.4338890  10.9170120  17.4854750  49.4890320   8.9237260
  16.8018270  50.1589430   8.9153930  18.0249040  49.6870970   8.1582120
  18.9378890  39.3169980   7.0518990  17.9903800  39.3508960   7.1834420
  19.2628880  40.1308930   7.4368350   9.4698430  35.6167160   5.3474980
   9.7773410  35.0614050   4.6310480   8.5399130  35.7511620   5.1647970
  15.0213490  51.3334450   7.6382440  15.0340650  50.9296740   6.7704700
  14.4688710  52.1081740   7.5343870  16.3158910  48.0550670   2.7272610
  16.2055240  47.1125000   2.8522030  16.3127160  48.4166310   3.6135370
  14.4198930  46.2364290   8.9665050  14.8367720  46.0224400   8.1318510
  15.1438750  46.4937080   9.5373670  11.8579190  43.6815990   2.0835100
  10.9308470  43.6153370   2.3123570  12.0104010  44.6196120   1.9690340
  18.3661030  44.6351510   9.0581290  17.5379660  44.7044600   8.5831420
  18.9611510  45.2205820   8.5897120  15.8876480  45.2436290   2.5870350
  15.2688900  44.9055840   1.9396650  15.8700930  44.5996050   3.2949540
  15.3303040  41.4220830  10.0036160  14.9174220  42.2474540  10.2576150
  14.5978990  40.8365870   9.8112520   7.4635830  44.2080730   4.8654830
   7.0592830  43.4957980   4.3700730   7.5498950  43.8633970   5.7542870
   7.9317530  47.8948290   7.0294040   7.6345820  47.2893760   6.3501820
   8.8817350  47.9325600   6.9183400   6.1764450  40.9823940   8.6453870
   6.7279040  41.0919280   7.8707120   6.6907960  41.3561540   9.3609100
  16.0203140  51.4680160  10.6917140  15.5433700  52.2752350  10.4989750
  15.3364930  50.8158490  10.8443350   7.0235960  47.6329980  13.6801840
   6.1264490  47.8569950  13.9275240   7.0488830  47.7564920  12.7313240
   5.8507180  44.5043300  12.2559210   5.7114950  45.3766100  12.6246610
   4.9688540  44.1616110  12.1107150  12.1736560  49.4219170   3.5624340
  12.6132470  50.1643500   3.1479730  12.1123450  49.6645740   4.4863300
   7.6487530  50.4465000  14.4644360   7.6202960  50.8507950  13.5972790
   7.4852500  49.5175360  14.3015960   4.1640460  43.1025710   2.3661480
   4.0438060  43.8287800   1.7542750   3.8541350  42.3328620   1.8889390
  19.6002350  51.2292100  15.7608530  20.0762070  51.7074990  16.4397610
  20.2209510  51.1609590  15.0354030   1.8025830  46.2740850   8.1730120
   1.8806250  46.4089620   7.2285840   2.4167510  45.5656740   8.3658240
   3.0473460  47.9741040   4.5836300   2.6401540  48.1155630   3.7289900
   3.9386470  47.6901200   4.3807510  19.0035600  48.4204950  12.9208540
  19.1298660  48.1816830  12.0025720  19.0456980  47.5889490  13.3930620
  12.8652340  52.1232950  11.4903350  13.3797010  52.0340960  12.2925780
  12.0221420  52.4692650  11.7831260   7.3195120  52.1886820   2.6958970
   7.1437600  51.2722360   2.4826770   6.4650860  52.5474110   2.9356770
  14.1082800  51.5438560   3.5533840  14.5639750  50.7627940   3.8672460
  14.4475320  52.2545380   4.0975020  18.8559610  40.4737410  13.8858280
  18.2403880  40.9817080  13.3573740  18.5356030  39.5735740  13.8284220
   1.8585350  47.3155020  10.7124580   2.0216390  46.8460380   9.8943950
   2.3237800  46.8078580  11.3773420   6.6304120  36.4460780   5.7485150
   6.1872270  37.2270320   5.4169670   7.1889110  36.7690670   6.4556090
  10.9173930  39.3129300  11.3520470  10.4553300  39.5212320  12.1640410
  10.5152040  38.4988650  11.0491140  15.9178440  40.5338250  12.4817130
  15.0672030  40.2344000  12.8026200  15.7580230  40.7780260  11.5700950
  13.0128150  42.0340000  14.5815920  13.3381560  41.2003750  14.2418150
  13.8008480  42.5568520  14.7294250   8.6680020  36.9908110   7.6074750
   8.9652350  37.8970940   7.5266770   9.2165580  36.5026890   6.9934320
   6.4218340  41.5694350   3.4766400   6.1959260  41.3531520   4.3813020
   5.6410870  42.0022810   3.1312370  13.6516100  41.5757720   2.0757050
  13.0524990  42.2993520   1.8920670  14.1995710  41.5134500   1.2933500
   8.8617550  42.4679930  14.1426670   8.7661150  41.5274660  13.9927070
   9.7049530  42.6895000  13.7474740  12.2580970  40.2121260   4.1060330
  12.6510540  40.5293460   3.2929020  12.6197820  39.3333140   4.2204850
   3.9928090  38.8793600  12.2960450   3.5991480  39.7268810  12.5033230
   3.3046490  38.2419970  12.4869090  10.5673140  38.9628570  15.3657190
   9.8771460  38.7700770  16.0003280  11.3105440  39.2463210  15.8981490
  12.8436110  42.8027010   8.2011110  12.1117230  43.3113820   8.5501210
  12.4460450  41.9856990   7.8999890   9.2813500  39.4781210   6.6063600
   9.2849560  39.0371160   5.7568140  10.1764620  39.7998540   6.7135420
   5.1315880  39.3607700   5.5657810   4.7915930  39.8382930   6.3224860
   4.3693200  38.9072820   5.2058910  13.3062020  38.2560690   7.6134050
  13.3234760  38.7069340   8.4575900  13.0577600  37.3566330   7.8267490
  16.7332770  35.6692870  13.4520430  17.0578540  34.9382530  13.9778410
  16.7689280  35.3506510  12.5501420   3.4324330  46.6906450  12.8720390
   3.0479120  46.0500120  13.4703350   3.7436520  47.3942570  13.4415120
   9.5821470  43.5382990   8.3529010   9.9491600  43.0641560   9.0990350
   9.3926530  44.4124560   8.6937350   2.4461960  38.2826680   4.4822480
   2.1608880  37.9182350   5.3201100   2.3840820  37.5507140   3.8685620
   7.3720840  42.5791630  10.6713220   7.0677910  43.4583610  10.8963580
   8.3267300  42.6391420  10.7070660  16.6590610  45.7817980   7.0606460
  17.3789730  46.2773270   6.6702570  16.4572430  45.1035870   6.4160330
  12.0409410  45.8527040  12.9475460  11.9746720  44.9322710  12.6933050
  11.4114550  45.9502480  13.6620100   5.9440030  46.4533000   4.9058880
   6.4618700  45.6501260   4.8515770   5.4924050  46.3912140   5.7475710
   3.4284570  43.4194370  11.8184580   3.0699510  44.0848220  12.4057920
   3.1339130  42.5877920  12.1897200   6.6297690  43.8778610  14.7024130
   6.3297830  44.0235790  13.8051950   7.4008930  43.3183900  14.6097520
  11.9726140  48.6747610  12.6979260  11.9870680  47.7428570  12.4798170
  11.2651240  48.7607370  13.3369030  18.1837350  45.3154950  12.0447840
  17.4585540  45.9083730  11.8477230  18.7112810  45.3078490  11.2461210
  13.7136940  47.0415120   5.5431690  14.0660760  46.4443250   4.8833060
  12.8299270  46.7159350   5.7139940   9.8000220  47.8012810   2.9502100
  10.4871350  48.3482020   3.3309690   9.0132640  48.3453540   2.9851710
   9.1027430  44.8058840   2.5627460   9.5590210  45.6164090   2.7887650
   8.7515640  44.4881980   3.3945950  11.4060040  50.3165180   9.7919760
  12.0502260  50.5224560  10.4693180  11.7689480  49.5553580   9.3390610
   5.0039210  35.1496490   3.0349980   4.8753840  35.1414390   3.9834900
   4.1801230  35.4879580   2.6840990  12.6792120  48.3197530   8.5097210
  13.3214350  47.6190690   8.6229380  13.2041470  49.0995970   8.3294100
  14.4529740  49.1192430  11.7133270  14.7885980  49.7059120  12.3911190
  13.5330080  48.9885140  11.9431060   2.2905730  50.8967870  13.4823210
   2.3996850  49.9562610  13.3418600   1.6386290  51.1622620  12.8336940
  10.2818320  49.1683760  14.8821330   9.9615190  48.4493000  15.4267020
   9.6076680  49.8438830  14.9557390  13.4971920  39.4009920  10.2458130
  13.8652740  38.5805130  10.5737700  12.6370120  39.4611810  10.6613780
   8.8317980  40.6352810   2.4703570   8.1234130  41.1039150   2.9117180
   9.1162460  39.9774820   3.1048760  10.4573910  42.0549510  10.4696100
  10.9559160  42.5295330  11.1347950  10.5996860  41.1313030  10.6766130
  12.8633410  37.3603470   3.9099360  12.7401190  37.3789600   2.9608870
  13.8117970  37.4082410   4.0297760   9.9510200  52.5958770   3.1827340
  10.2051700  52.5580160   2.2606710   9.0022680  52.4692100   3.1755590
  17.6640770  38.2717470  11.3124490  17.1614370  39.0122870  11.6518300
  18.4797430  38.6601470  10.9961280  15.9562780  43.5150650   4.7585850
  15.0152920  43.5300880   4.9333540  16.2706850  42.7286610   5.2046150
  17.9588360  50.6859500   6.4340110  18.0835780  51.5090670   6.9063920
  18.8253920  50.4750230   6.0864260   5.4305890  52.7790710   6.1057240
   6.1668370  52.2306170   6.3765810   5.8146810  53.6446720   5.9663230
   4.4364170  51.9636780  15.2942820   5.2376900  52.2848830  15.7078220
   3.9215990  51.6032360  16.0162730  13.2728800  48.0716650  15.2418230
  12.6666960  48.0948250  14.5013980  12.9682910  47.3399690  15.7785480
  14.7029170  51.7996940  13.8527640  15.6550920  51.7154960  13.8027880
  14.5557390  52.4638650  14.5261430   9.2099920  45.8581230  13.7714390
   8.4445590  46.4266230  13.6869060   9.3915880  45.5657440  12.8782620
  16.3523270  47.5886560  14.3289410  17.0932740  47.9262320  13.8256870
  15.5895950  47.7578620  13.7759180   4.1885060  42.5939830  15.1328940
   4.2290400  42.2953700  16.0414170   5.0430560  42.9947440  14.9736460
   6.1290870  41.1731930  13.1003430   5.5987330  40.6822880  12.4726770
   6.7978940  41.6016130  12.5661360  15.0268930  45.6401390  12.8644620
  15.4409950  45.7946470  13.7135040  14.0919930  45.7656610  13.0270400
  15.4991100  42.9797550  14.8683770  16.0811870  42.2249870  14.7804250
  15.6752870  43.5104990  14.0915250   6.6163170  38.1394300  13.1800720
   6.5220040  37.5215050  12.4551590   6.0360560  38.8660590  12.9530630
   9.3824610  36.6967540  10.2128110   8.9341910  36.7191800   9.3673660
   8.7489810  36.2986560  10.8098410   9.7884160  45.5921870  10.8340550
  10.2072270  46.4354600  10.6616790   8.8692790  45.7293910  10.6047330
  12.1248060  43.3238050  12.2178390  12.2444270  42.7279190  12.9573230
  12.9842060  43.3607740  11.7979690  14.4635960  43.8775240  10.7940900
  13.9371180  44.4017860  10.1906040  14.8067300  44.5102630  11.4250630
   7.6391580  51.8974880  11.9498280   7.1012670  52.6220940  11.6306980
   7.8925540  51.4205220  11.1595620   8.8916830  39.8659400  13.4754210
   9.4816520  39.5575250  14.1632030   8.0737070  39.3939150  13.6314110
  13.7110260  39.4825210  13.7087230  13.0225780  38.8206750  13.6437220
  14.4316280  39.0363480  14.1535690  10.4953790  53.1326090  12.2084930
  10.4212490  54.0361230  12.5157300   9.5932630  52.8137990  12.1807000
   1.8981080  50.4600680   5.5118550   2.2284090  49.5921740   5.2797190
   2.3272080  50.6659200   6.3423510   6.4943000  48.7909690   3.1720520
   6.1938540  48.6674660   4.0724430   6.3880490  47.9318280   2.7636250
   2.3871290  51.3271270   8.2500180   1.9502280  51.5072070   9.0824330
   2.9548970  52.0845890   8.1081900  18.0233470  50.8288270  12.5377490
  17.4235460  50.8880830  11.7941410  18.1527370  49.8893250  12.6674340
   2.2195720  43.8391500   4.6089060   1.5644560  43.5703140   3.9648760
   3.0573670  43.7295980   4.1591040  19.7251350  46.1703670   5.2223330
  20.0960180  45.3870990   4.8159300  20.3653280  46.8592770   5.0440630
  16.7085110  47.5540250  10.6353650  15.8944950  47.9837410  10.8979440
  17.1159310  48.1658660  10.0222700  18.6675890  43.5456930   2.5283350
  18.2919490  42.7784860   2.0964640  17.9379010  43.9279630   3.0158280
   3.2571650  44.2244070   9.1492400   3.6244690  44.1371470  10.0288420
   2.6882470  43.4610620   9.0499260  18.0575510  42.6928450  12.1622870
  17.8261600  42.4641200  11.2620820  18.3180060  43.6128000  12.1167760
   2.8087650  41.1353160  13.0550820   1.9143700  41.1019920  13.3944530
   3.3485200  41.3339950  13.8202070  16.4963580  37.9184880  14.9402570
  17.3733760  37.9268280  15.3236570  16.5084420  37.1815720  14.3294920
  17.9426850  41.7714420   5.8290590  18.4664330  41.2777070   5.1980760
  18.5286270  41.9064780   6.5738160  18.1216570  41.8554290   9.3510140
  17.1719280  41.8217830   9.4655130  18.3029580  42.7654400   9.1159910
  17.4326820  41.0287770   1.7683000  17.9285940  40.7958640   2.5531880
  17.2342890  40.1899610   1.3520640   3.3127360  35.4101490   7.4034040
   3.9603550  34.8598870   6.9629200   3.7329200  35.6644640   8.2249850
  18.8613980  39.6648720   4.3020680  18.7513260  39.5104760   5.2402950
  19.6221570  39.1369660   4.0596090  17.2079700  35.6042850  10.7603680
  17.8451920  36.2176990  11.1262870  17.3554590  35.6403510   9.8152910
  16.7661160  52.3058850   4.1621920  17.3620230  51.9843420   3.4856340
  17.0239310  51.8330670   4.9535190   3.0659360  35.5657160  10.1459360
   2.7174180  36.0220980  10.9117540   2.7347060  34.6714290  10.2281790
   4.6723730  48.7376760  14.3112550   4.6293360  48.3669670  15.1927010
   4.8034740  49.6754330  14.4514370   8.3729760  50.2936350   9.9122270
   8.1321120  50.5610910   9.0252790   9.3132400  50.4642080   9.9673130
  10.5784180  36.7569040  13.6678780  10.5173070  37.3490870  14.4174190
  11.5184560  36.6495000  13.5229040  13.2158740  36.4139100  13.3071070
  13.8299150  36.7318390  12.6452150  13.7608300  35.9287690  13.9266930
  19.6333920  52.3130730  10.7132910  19.1392200  52.7099600   9.9960040
  19.0247210  51.6879940  11.1070190   3.7380000  35.0933360  13.4210130
   4.2862990  34.9121410  12.6576240   3.8035310  34.3027470  13.9566440
   4.5111760  51.6839010  11.4310330   3.9172080  51.5523710  12.1700370
   4.5035600  50.8477150  10.9652430  13.9566780  34.9771240   9.6340360
  13.0826620  35.3106350   9.4313290  13.8477530  34.5044420  10.4592230
  14.8638760  37.1842110  11.0182080  14.5352120  36.3693870  10.6383810
  15.8121060  37.1411920  10.8947770  17.3173370  52.9554150   7.9919650
  16.8576340  53.7069960   7.6177670  16.6885830  52.2360620   7.9334450
   4.1423990  49.0497390  10.3818370   3.4158050  48.4302680  10.3144320
   4.2033140  49.4438000   9.5116450   7.7469090  51.2642390   7.1667780
   8.2634110  50.6529750   6.6416040   8.3966470  51.7671170   7.6578790
  10.4864590  52.1550880   7.9936760  10.7742400  51.9005180   7.1169770
  10.9987810  51.6028240   8.5842330  11.7041600  35.8941080   8.5733270
  10.9213390  36.3686580   8.8530030  11.4104530  34.9895910   8.4646450
  16.2562670  36.5964180   6.6182360  16.6970760  36.5409280   5.7703960
  15.9870260  37.5122190   6.6892540  18.1201240  36.2279420   4.6291180
  18.0589640  35.2840640   4.4822200  18.8993270  36.3359510   5.1744640
   2.4253990  52.3671780   3.5915130   2.2576030  51.7342460   4.2897020
   1.5588500  52.5731180   3.2409320   9.5895820  38.3127830   4.0849300
   8.7770330  37.9384720   3.7445180  10.0937460  37.5572910   4.3870490
  14.0920800  34.9770280   5.3232370  14.6950170  35.5490490   5.7980890
  13.3513790  35.5409720   5.1006270   7.6145000  36.4627750   2.6894350
   6.9847740  35.7615060   2.8564480   7.0750140  37.2231880   2.4727510
  10.5536950  53.0766980  15.3604960  11.4804260  52.8411250  15.4040920
  10.5387380  53.9038980  14.8790990  18.7882010  52.6192550   2.3579210
  18.9634200  51.9330290   1.7140130  18.0903580  53.1439600   1.9655880
   7.7400560  35.7411730  15.1246840   7.4584830  36.2445330  14.3607660
   8.1220260  34.9433480  14.7588970  14.3416020  35.1565310  15.7027310
  14.2281470  35.4759920  16.5978830  15.1585760  35.5577820  15.4064590
  17.1214510  52.3036840  15.1846000  17.9139830  51.8086070  14.9771960
  17.4147660  52.9826980  15.7921610  13.2474170  24.4014290  61.1636010
  13.1668220  23.4868900  60.8927720  12.8338590  24.8981360  60.4575720
  11.3792210  26.1793310  63.0445280  10.6034310  25.6993750  63.3343850
  12.0305140  25.4998960  62.8701440   5.3958040  26.4913120  63.9221040
   4.5642920  26.2361830  64.3217550   6.0039020  26.5623890  64.6578960
  15.3999640  30.5853500  61.8244410  14.9381170  29.8140740  62.1531580
  16.2125190  30.6119570  62.3296860   5.3759300  30.5253210  64.1179060
   5.6787340  29.6350950  63.9389280   6.1202890  31.0823430  63.8901310
   3.8049990  21.4515010  57.7063430   2.9166690  21.7930980  57.6043310
   4.0891180  21.2515330  56.8144260   1.7683000  24.0520660  63.5903130
   2.3399110  23.2842860  63.5906770   1.7684540  24.3509420  62.6809740
  11.6262950  32.8711510  61.4448400  11.0074390  33.3269010  60.8742840
  12.4814730  33.0262970  61.0438100  10.8201200  28.8550500  63.0515440
  10.7509480  27.9140440  62.8904570  11.5821060  28.9451910  63.6238010
   3.0107870  19.4605020  65.3772060   2.8310710  18.5630770  65.6574820
   2.6087950  20.0076890  66.0519010  11.8506370  21.6620880  63.2784370
  12.2271190  20.7892760  63.1658040  11.7525880  21.9979580  62.3874810
   5.9811380  20.0346510  58.7401810   6.0878130  20.9350240  59.0470570
   5.0703740  19.9864480  58.4496460  15.6330490  19.1571320  60.2112710
  16.4540110  18.6667890  60.2538190  15.6664570  19.7468980  60.9644550
   3.6294540  21.9565520  63.9854400   4.3104650  22.2203890  64.6041800
   3.3142590  21.1166390  64.3192410   7.8219110  23.0032880  63.0726990
   8.3297330  23.5013850  63.7132010   8.3532350  22.2268080  62.8966350
  19.9230040  21.1738070  66.7756340  19.2182210  21.5619780  66.2571450
  20.1887960  21.8688360  67.3777270   6.1055210  17.6431440  67.3390410
   6.1073650  18.1603830  66.5336310   5.2759520  17.1661620  67.3160340
  12.4926300  27.7550750  58.8380310  11.8743570  28.2200200  58.2743030
  13.0049550  28.4478230  59.2549820   7.3558060  27.2826620  65.5163910
   7.0227440  27.9095540  66.1584980   7.5324740  27.8088500  64.7365580
  15.8691970  21.0971700  62.9840250  15.1647540  21.3856590  63.5643360
  16.2304130  21.9071810  62.6239810   5.7870540  19.3541400  65.3460860
   6.1287350  20.1983450  65.0514730   4.8486350  19.5025140  65.4626200
   6.5677160  29.2507420  67.3313090   7.1851160  29.9258500  67.0497540
   5.7070280  29.6595400  67.2400590   1.8609500  28.4407280  56.2119940
   1.4837480  28.9294380  55.4804840   2.1182570  29.1132560  56.8426470
  17.4854750  30.7146830  65.2467730  16.8018270  31.3845940  65.2384400
  18.0249040  30.9127480  64.4812590  18.9378890  20.5426490  63.3749460
  17.9903800  20.5765470  63.5064890  19.2628880  21.3565440  63.7598820
   9.4698430  16.8423670  61.6705450   9.7773410  16.2870560  60.9540950
   8.5399130  16.9768130  61.4878440  15.0213490  32.5590960  63.9612910
  15.0340650  32.1553250  63.0935170  14.4688710  33.3338250  63.8574340
  16.3158910  29.2807180  59.0503080  16.2055240  28.3381510  59.1752500
  16.3127160  29.6422820  59.9365840  14.4198930  27.4620800  65.2895520
  14.8367720  27.2480910  64.4548980  15.1438750  27.7193590  65.8604140
  11.8579190  24.9072500  58.4065570  10.9308470  24.8409880  58.6354040
  12.0104010  25.8452630  58.2920810  11.8448270  21.1789500  55.4032730
  10.9051940  21.3403460  55.4885190  12.1631530  21.8975180  54.8568720
  18.3661030  25.8608020  65.3811760  17.5379660  25.9301110  64.9061890
  18.9611510  26.4462330  64.9127590  15.8876480  26.4692800  58.9100820
  15.2688900  26.1312350  58.2627120  15.8700930  25.8252560  59.6180010
  15.3303040  22.6477340  66.3266630  14.9174220  23.4731050  66.5806620
  14.5978990  22.0622380  66.1342990   7.4635830  25.4337240  61.1885300
   7.0592830  24.7214490  60.6931200   7.5498950  25.0890480  62.0773340
   7.9317530  29.1204800  63.3524510   7.6345820  28.5150270  62.6732290
   8.8817350  29.1582110  63.2413870   6.1764450  22.2080450  64.9684340
   6.7279040  22.3175790  64.1937590   6.6907960  22.5818050  65.6839570
  16.0203140  32.6936670  67.0147610  15.5433700  33.5008860  66.8220220
  15.3364930  32.0415000  67.1673820  14.0641180  25.7079610  55.9173570
  14.5034460  24.8702040  55.7711390  14.7769600  26.3409010  56.0037710
  12.1736560  30.6475680  59.8854810  12.6132470  31.3900010  59.4710200
  12.1123450  30.8902250  60.8093770  17.6458320  16.9622420  54.2314610
  17.3330980  17.0549250  55.1313680  18.4070790  17.5403450  54.1812040
   4.1640460  24.3282220  58.6891950   4.0438060  25.0544310  58.0773220
   3.8541350  23.5585130  58.2119860   1.8025830  27.4997360  64.4960590
   1.8806250  27.6346130  63.5516310   2.4167510  26.7913250  64.6888710
   3.0473460  29.1997550  60.9066770   2.6401540  29.3412140  60.0520370
   3.9386470  28.9157710  60.7037980  14.8406740  33.6344800  57.2417820
  14.6807880  33.3447740  58.1399650  14.6753450  32.8584930  56.7063050
   7.3195120  33.4143330  59.0189440   7.1437600  32.4978870  58.8057240
   6.4650860  33.7730620  59.2587240  14.5432870  31.1432360  55.8015820
  13.8498030  31.1409650  55.1418100  15.2855730  30.7191680  55.3709990
  14.1082800  32.7695070  59.8764310  14.5639750  31.9884450  60.1902930
  14.4475320  33.4801890  60.4205490   1.8585350  28.5411530  67.0355050
   2.0216390  28.0716890  66.2174420   2.3237800  28.0335090  67.7003890
   6.6304120  17.6717290  62.0715620   6.1872270  18.4526830  61.7400140
   7.1889110  17.9947180  62.7786560   9.7462940  17.2927990  56.9521450
   9.1217120  17.2887860  57.6774760   9.6593060  16.4258950  56.5557420
   8.6680020  18.2164620  63.9305220   8.9652350  19.1227450  63.8497240
   9.2165580  17.7283400  63.3164790   6.4218340  22.7950860  59.7996870
   6.1959260  22.5788030  60.7043490   5.6410870  23.2279320  59.4542840
  13.6516100  22.8014230  58.3987520  13.0524990  23.5250030  58.2151140
  14.1995710  22.7391010  57.6163970  12.2580970  21.4377770  60.4290800
  12.6510540  21.7549970  59.6159490  12.6197820  20.5589650  60.5435320
  12.8436110  24.0283520  64.5241580  12.1117230  24.5370330  64.8731680
  12.4460450  23.2113500  64.2230360   9.2813500  20.7037720  62.9294070
   9.2849560  20.2627670  62.0798610  10.1764620  21.0255050  63.0365890
   5.1315880  20.5864210  61.8888280   4.7915930  21.0639440  62.6455330
   4.3693200  20.1329330  61.5289380   9.3433650  21.7049800  55.9200830
   9.4646470  21.6636280  56.8686650   8.9582160  22.5673950  55.7647560
  13.3062020  19.4817200  63.9364520  13.3234760  19.9325850  64.7806370
  13.0577600  18.5822840  64.1497960   8.3555150  24.0150940  55.3184130
   7.7872050  23.5669190  54.6920040   9.0644150  24.3743720  54.7849280
   9.5821470  24.7639500  64.6759480   9.9491600  24.2898070  65.4220820
   9.3926530  25.6381070  65.0167820   2.4461960  19.5083190  60.8052950
   2.1608880  19.1438860  61.6431570   2.3840820  18.7763650  60.1916090
   7.3720840  23.8048140  66.9943690   7.0677910  24.6840120  67.2194050
   8.3267300  23.8647930  67.0301130   5.9002630  28.0109130  57.5910540
   5.1264890  27.4706750  57.4309260   6.6297260  27.4915740  57.2528300
  16.6590610  27.0074490  63.3836930  17.3789730  27.5029780  62.9933040
  16.4572430  26.3292380  62.7390800  12.1200550  18.4012450  57.5266320
  11.3065160  17.9025620  57.4511630  11.9262500  19.2410700  57.1102670
  14.8348940  22.7732100  55.8228480  15.7228560  23.0849330  55.6479820
  14.8054030  21.9004350  55.4309060   5.9440030  27.6789510  61.2289350
   6.4618700  26.8757770  61.1746240   5.4924050  27.6168650  62.0706180
  10.8309530  28.9455790  56.5016650  11.1725230  29.6898020  56.0059970
  10.0022240  29.2586910  56.8641480  17.1063210  24.0843940  55.2908340
  17.0226930  24.5158160  54.4404780  17.8257400  24.5442290  55.7235160
  18.1350460  30.9386200  58.0190470  17.4926620  30.2841820  58.2934190
  17.7481120  31.3441290  57.2431140  13.7136940  28.2671630  61.8662160
  14.0660760  27.6699760  61.2063530  12.8299270  27.9415860  62.0370410
   9.8000220  29.0269320  59.2732570  10.4871350  29.5738530  59.6540160
   9.0132640  29.5710050  59.3082180   9.1027430  26.0315350  58.8857930
   9.5590210  26.8420600  59.1118120   8.7515640  25.7138490  59.7176420
  11.4060040  31.5421690  66.1150230  12.0502260  31.7481070  66.7923650
  11.7689480  30.7810090  65.6621080   5.0039210  16.3753000  59.3580450
   4.8753840  16.3670900  60.3065370   4.1801230  16.7136090  59.0071460
  12.6792120  29.5454040  64.8327680  13.3214350  28.8447200  64.9459850
  13.2041470  30.3252480  64.6524570  16.5247840  29.8302660  54.5566820
  16.2985420  29.1133100  55.1491460  16.1344040  29.5815100  53.7188570
   2.3063870  33.8569520  55.3311280   2.6661510  34.4558860  54.6768550
   2.1656210  34.4029410  56.1046310  16.1064090  27.7474600  56.2180980
  15.8185790  28.2087290  57.0058860  16.9016260  27.2872370  56.4865200
   8.3232490  31.2400720  56.1484950   8.3142590  31.9730410  55.5329460
   7.4030850  30.9932300  56.2411910   3.9239130  26.4615610  56.8931710
   3.3167080  27.2014510  56.9027010   4.3988480  26.5514970  56.0669910
  13.4971920  20.6266430  66.5688600  13.8652740  19.8061640  66.8968170
  12.6370120  20.6868320  66.9844250  16.8633950  19.5823370  57.3776160
  16.2347110  19.6869040  56.6634390  16.3685870  19.8020150  58.1670040
  11.3092090  31.3028960  54.8110140  11.4104070  31.0992950  53.8812120
  10.4093830  31.0487240  55.0157920   8.8317980  21.8609320  58.7934040
   8.1234130  22.3295660  59.2347650   9.1162460  21.2031330  59.4279230
  10.4573910  23.2806020  66.7926570  10.9559160  23.7551840  67.4578420
  10.5996860  22.3569540  66.9996600  12.8633410  18.5859980  60.2329830
  12.7401190  18.6046110  59.2839340  13.8117970  18.6338920  60.3528230
   9.9510200  33.8215280  59.5057810  10.2051700  33.7836670  58.5837180
   9.0022680  33.6948610  59.4986060   7.0353000  20.1694400  56.1684750
   7.8843530  20.6064550  56.1024940   6.6684270  20.4814660  56.9956810
  17.6640770  19.4973980  67.6354960  17.1614370  20.2379380  67.9748770
  18.4797430  19.8857980  67.3191750  15.9562780  24.7407160  61.0816320
  15.0152920  24.7557390  61.2564010  16.2706850  23.9543120  61.5276620
   5.9344420  26.4226760  54.6420280   6.7007690  26.3108120  55.2045710
   6.0119110  25.7264730  53.9897050   4.6291180  23.8551830  55.3253170
   4.7094770  22.9079340  55.4370570   5.5210930  24.1858710  55.4313830
  17.9588360  31.9116010  62.7570580  18.0835780  32.7347180  63.2294390
  18.8253920  31.7006740  62.4094730   5.4305890  34.0047220  62.4287710
   6.1668370  33.4562680  62.6996280   5.8146810  34.8703230  62.2893700
   8.5408200  33.1777530  54.2513280   9.3336810  33.4666360  53.7995070
   8.0212550  32.7469700  53.5725760  17.5938370  32.4047660  55.6750020
  17.3079880  31.9912800  54.8604200  17.3957920  33.3335370  55.5550540
   9.0585600  28.3980940  54.1155630   8.9536240  27.7833290  54.8417010
   8.8909820  27.8746830  53.3318640  12.2988330  27.4600970  54.7197620
  11.7498430  27.9070270  55.3640360  12.9207590  26.9550220  55.2435290
   7.9663450  26.4191890  56.6162920   8.3879870  26.2531760  57.4594310
   8.0914290  25.6092120  56.1218060  10.4791090  25.4429500  53.8640020
  10.9996750  24.7278520  53.4981170  11.1259490  26.0815370  54.1640530
   9.3824610  17.9224050  66.5358580   8.9341910  17.9448310  65.6904130
   8.7489810  17.5243070  67.1328880   9.7884160  26.8178380  67.1571020
  10.2072270  27.6611110  66.9847260   8.8692790  26.9550420  66.9277800
  14.4635960  25.1031750  67.1171370  13.9371180  25.6274370  66.5136510
  14.8067300  25.7359140  67.7481100   6.8622350  22.4925120  53.5621080
   6.6611410  21.6292480  53.9234420   6.6914400  22.4058480  52.6242680
  14.3410660  17.3033350  56.0907960  14.6212950  16.4601250  56.4467380
  13.5676390  17.5356460  56.6046710   5.6605150  19.5925740  53.5498960
   5.9631050  19.5993170  52.6418110   6.3999740  19.2423600  54.0466620
   8.8790080  18.5360360  54.5355160   8.5312080  17.8584350  53.9557610
   9.0802850  18.0749870  55.3498550  11.0439120  33.5241110  56.1541760
  11.9389910  33.8626080  56.1760520  11.0756750  32.8020520  55.5266040
   4.6835280  28.8968160  54.3828760   5.1210150  29.4397830  55.0386340
   5.1683010  28.0715110  54.3925100   1.8981080  31.6857190  61.8349020
   2.2284090  30.8178250  61.6027660   2.3272080  31.8915710  62.6653980
   6.4943000  30.0166200  59.4950990   6.1938540  29.8931170  60.3954900
   6.3880490  29.1574790  59.0866720   2.3871290  32.5527780  64.5730650
   1.9502280  32.7328580  65.4054800   2.9548970  33.3102400  64.4312370
  19.2634920  29.7962600  54.1977670  18.4327880  29.8639250  54.6684900
  19.4406750  30.6866720  53.8944530  18.7191380  26.5410080  56.7011870
  19.4810290  27.1106730  56.8071560  18.7345750  25.9737280  57.4720180
   2.2195720  25.0648010  60.9319530   1.5644560  24.7959650  60.2879230
   3.0573670  24.9552490  60.4821510  19.7251350  27.3960180  61.5453800
  20.0960180  26.6127500  61.1389770  20.3653280  28.0849280  61.3671100
  16.7085110  28.7796760  66.9584120  15.8944950  29.2093920  67.2209910
  17.1159310  29.3915170  66.3453170  18.7710550  26.8344450  53.8584390
  19.0459390  27.7423330  53.7303610  18.5821290  26.7706980  54.7946380
  15.1686160  19.8589300  55.1538020  15.5871040  19.6720280  54.3134680
  14.8622220  19.0068350  55.4640950  18.6675890  24.7713440  58.8513820
  18.2919490  24.0041370  58.4195110  17.9379010  25.1536140  59.3388750
   3.2571650  25.4500580  65.4722870   3.6244690  25.3627980  66.3518890
   2.6882470  24.6867130  65.3729730  17.9426850  22.9970930  62.1521060
  18.4664330  22.5033580  61.5211230  18.5286270  23.1321290  62.8968630
  18.1216570  23.0810800  65.6740610  17.1719280  23.0474340  65.7885600
  18.3029580  23.9910910  65.4390380   3.9761010  21.3312480  54.7839240
   4.6852710  20.9095700  54.2986520   3.2600950  21.3987710  54.1522590
   3.6235170  17.3851810  53.8241890   4.3463300  17.9260750  54.1423110
   3.8959690  17.1115230  52.9483430  17.4326820  22.2544280  58.0913470
  17.9285940  22.0215150  58.8762350  17.2342890  21.4156120  57.6751110
   3.3127360  16.6358000  63.7264510   3.9603550  16.0855380  63.2859670
   3.7329200  16.8901150  64.5480320  18.8613980  20.8905230  60.6251150
  18.7513260  20.7361270  61.5633420  19.6221570  20.3626170  60.3826560
  17.2079700  16.8299360  67.0834150  17.8451920  17.4433500  67.4493340
  17.3554590  16.8660020  66.1383380  19.7504250  18.7213150  53.8657290
  20.6753560  18.5894330  53.6575580  19.7280040  18.8005970  54.8193740
  19.8242740  19.4923810  56.4914000  19.0294240  19.4268930  57.0206910
  20.0286020  20.4274450  56.4799350  16.7661160  33.5315360  60.4852390
  17.3620230  33.2099930  59.8086810  17.0239310  33.0587180  61.2765660
   3.0659360  16.7913670  66.4689830   2.7174180  17.2477490  67.2348010
   2.7347060  15.8970800  66.5512260   8.3729760  31.5192860  66.2352740
   8.1321120  31.7867420  65.3483260   9.3132400  31.6898590  66.2903600
  19.6333920  33.5387240  67.0363380  19.1392200  33.9356110  66.3190510
  19.0247210  32.9136450  67.4300660  13.9566780  16.2027750  65.9570830
  13.0826620  16.5362860  65.7543760  13.8477530  15.7300930  66.7822700
  14.8638760  18.4098620  67.3412550  14.5352120  17.5950380  66.9614280
  15.8121060  18.3668430  67.2178240  17.3173370  34.1810660  64.3150120
  16.8576340  34.9326470  63.9408140  16.6885830  33.4617130  64.2564920
   4.1423990  30.2753900  66.7048840   3.4158050  29.6559190  66.6374790
   4.2033140  30.6694510  65.8346920   7.7469090  32.4898900  63.4898250
   8.2634110  31.8786260  62.9646510   8.3966470  32.9927680  63.9809260
  10.4864590  33.3807390  64.3167230  10.7742400  33.1261690  63.4400240
  10.9987810  32.8284750  64.9072800  11.7041600  17.1197590  64.8963740
  10.9213390  17.5943090  65.1760500  11.4104530  16.2152420  64.7876920
  16.2562670  17.8220690  62.9412830  16.6970760  17.7665790  62.0934430
  15.9870260  18.7378700  63.0123010  18.1201240  17.4535930  60.9521650
  18.0589640  16.5097150  60.8052670  18.8993270  17.5616020  61.4975110
   2.4253990  33.5928290  59.9145600   2.2576030  32.9598970  60.6127490
   1.5588500  33.7987690  59.5639790   3.0482010  17.4245070  57.4177460
   3.8061370  17.5373950  56.8441490   2.5859180  18.2614270  57.3720890
   9.5895820  19.5384340  60.4079770   8.7770330  19.1641230  60.0675650
  10.0937460  18.7829420  60.7100960  14.0920800  16.2026790  61.6462840
  14.6950170  16.7747000  62.1211360  13.3513790  16.7666230  61.4236740
  17.2355400  16.6048350  56.9203120  17.4306030  17.5031800  57.1870550
  16.4485270  16.3735430  57.4136070   4.0316690  32.2861520  57.3595740
   3.5064310  32.6669550  56.6557700   3.9561270  32.9112290  58.0805450
   5.4207160  17.9509120  55.9579430   5.9499920  17.1638920  55.8287380
   6.0535480  18.6300310  56.1914960   7.6145000  17.6884260  59.0124820
   6.9847740  16.9871570  59.1794950   7.0750140  18.4488390  58.7957980
  18.7882010  33.8449060  58.6809680  18.9634200  33.1586800  58.0370600
  18.0903580  34.3696110  58.2886350   6.6309660  34.2343900  56.2344990
   7.3628480  33.9503180  55.6868880   6.8903330  33.9957180  57.1244370
   5.7924450  30.3508630  56.2391320   5.1633330  30.8193730  56.7877150
   5.9072280  29.5057850  56.6737510  13.2474170  24.4014290  42.3892520
  13.1668220  23.4868900  42.1184230  12.8338590  24.8981360  41.6832230
  11.3792210  26.1793310  44.2701790  10.6034310  25.6993750  44.5600360
  12.0305140  25.4998960  44.0957950   5.3958040  26.4913120  45.1477550
   4.5642920  26.2361830  45.5474060   6.0039020  26.5623890  45.8835470
  15.3999640  30.5853500  43.0500920  14.9381170  29.8140740  43.3788090
  16.2125190  30.6119570  43.5553370   5.3759300  30.5253210  45.3435570
   5.6787340  29.6350950  45.1645790   6.1202890  31.0823430  45.1157820
   3.8049990  21.4515010  38.9319940   2.9166690  21.7930980  38.8299820
   4.0891180  21.2515330  38.0400770   1.7683000  24.0520660  44.8159640
   2.3399110  23.2842860  44.8163280   1.7684540  24.3509420  43.9066250
  11.6262950  32.8711510  42.6704910  11.0074390  33.3269010  42.0999350
  12.4814730  33.0262970  42.2694610  10.8201200  28.8550500  44.2771950
  10.7509480  27.9140440  44.1161080  11.5821060  28.9451910  44.8494520
   3.0107870  19.4605020  46.6028570   2.8310710  18.5630770  46.8831330
   2.6087950  20.0076890  47.2775520  11.8506370  21.6620880  44.5040880
  12.2271190  20.7892760  44.3914550  11.7525880  21.9979580  43.6131320
   5.9811380  20.0346510  39.9658320   6.0878130  20.9350240  40.2727080
   5.0703740  19.9864480  39.6752970  15.6330490  19.1571320  41.4369220
  16.4540110  18.6667890  41.4794700  15.6664570  19.7468980  42.1901060
   3.6294540  21.9565520  45.2110910   4.3104650  22.2203890  45.8298310
   3.3142590  21.1166390  45.5448920   7.8219110  23.0032880  44.2983500
   8.3297330  23.5013850  44.9388520   8.3532350  22.2268080  44.1222860
  19.9230040  21.1738070  48.0012850  19.2182210  21.5619780  47.4827960
  20.1887960  21.8688360  48.6033780   6.1055210  17.6431440  48.5646920
   6.1073650  18.1603830  47.7592820   5.2759520  17.1661620  48.5416850
  12.4926300  27.7550750  40.0636820  11.8743570  28.2200200  39.4999540
  13.0049550  28.4478230  40.4806330   7.3558060  27.2826620  46.7420420
   7.0227440  27.9095540  47.3841490   7.5324740  27.8088500  45.9622090
  15.8691970  21.0971700  44.2096760  15.1647540  21.3856590  44.7899870
  16.2304130  21.9071810  43.8496320   5.7870540  19.3541400  46.5717370
   6.1287350  20.1983450  46.2771240   4.8486350  19.5025140  46.6882710
   6.5677160  29.2507420  48.5569600   7.1851160  29.9258500  48.2754050
   5.7070280  29.6595400  48.4657100   1.8609500  28.4407280  37.4376450
   1.4837480  28.9294380  36.7061350   2.1182570  29.1132560  38.0682980
  17.4854750  30.7146830  46.4724240  16.8018270  31.3845940  46.4640910
  18.0249040  30.9127480  45.7069100  18.9378890  20.5426490  44.6005970
  17.9903800  20.5765470  44.7321400  19.2628880  21.3565440  44.9855330
   9.4698430  16.8423670  42.8961960   9.7773410  16.2870560  42.1797460
   8.5399130  16.9768130  42.7134950  15.0213490  32.5590960  45.1869420
  15.0340650  32.1553250  44.3191680  14.4688710  33.3338250  45.0830850
  16.3158910  29.2807180  40.2759590  16.2055240  28.3381510  40.4009010
  16.3127160  29.6422820  41.1622350  14.4198930  27.4620800  46.5152030
  14.8367720  27.2480910  45.6805490  15.1438750  27.7193590  47.0860650
  11.8579190  24.9072500  39.6322080  10.9308470  24.8409880  39.8610550
  12.0104010  25.8452630  39.5177320  11.8448270  21.1789500  36.6289240
  10.9051940  21.3403460  36.7141700  12.1631530  21.8975180  36.0825230
  18.3661030  25.8608020  46.6068270  17.5379660  25.9301110  46.1318400
  18.9611510  26.4462330  46.1384100  15.8876480  26.4692800  40.1357330
  15.2688900  26.1312350  39.4883630  15.8700930  25.8252560  40.8436520
  15.3303040  22.6477340  47.5523140  14.9174220  23.4731050  47.8063130
  14.5978990  22.0622380  47.3599500   7.4635830  25.4337240  42.4141810
   7.0592830  24.7214490  41.9187710   7.5498950  25.0890480  43.3029850
   7.9317530  29.1204800  44.5781020   7.6345820  28.5150270  43.8988800
   8.8817350  29.1582110  44.4670380   6.1764450  22.2080450  46.1940850
   6.7279040  22.3175790  45.4194100   6.6907960  22.5818050  46.9096080
  16.0203140  32.6936670  48.2404120  15.5433700  33.5008860  48.0476730
  15.3364930  32.0415000  48.3930330   7.0235960  28.8586490  51.2288820
   6.1264490  29.0826460  51.4762220   7.0488830  28.9821430  50.2800220
  14.0641180  25.7079610  37.1430080  14.5034460  24.8702040  36.9967900
  14.7769600  26.3409010  37.2294220   5.8507180  25.7299810  49.8046190
   5.7114950  26.6022610  50.1733590   4.9688540  25.3872620  49.6594130
  12.1736560  30.6475680  41.1111320  12.6132470  31.3900010  40.6966710
  12.1123450  30.8902250  42.0350280   7.6487530  31.6721510  52.0131340
   7.6202960  32.0764460  51.1459770   7.4852500  30.7431870  51.8502940
  17.6458320  16.9622420  35.4571120  17.3330980  17.0549250  36.3570190
  18.4070790  17.5403450  35.4068550   4.1640460  24.3282220  39.9148460
   4.0438060  25.0544310  39.3029730   3.8541350  23.5585130  39.4376370
  19.6002350  32.4548610  53.3095510  20.0762070  32.9331500  53.9884590
  20.2209510  32.3866100  52.5841010   1.8025830  27.4997360  45.7217100
   1.8806250  27.6346130  44.7772820   2.4167510  26.7913250  45.9145220
   3.0473460  29.1997550  42.1323280   2.6401540  29.3412140  41.2776880
   3.9386470  28.9157710  41.9294490  19.0035600  29.6461460  50.4695520
  19.1298660  29.4073340  49.5512700  19.0456980  28.8146000  50.9417600
  12.8652340  33.3489460  49.0390330  13.3797010  33.2597470  49.8412760
  12.0221420  33.6949160  49.3318240  14.8406740  33.6344800  38.4674330
  14.6807880  33.3447740  39.3656160  14.6753450  32.8584930  37.9319560
   7.3195120  33.4143330  40.2445950   7.1437600  32.4978870  40.0313750
   6.4650860  33.7730620  40.4843750  14.5432870  31.1432360  37.0272330
  13.8498030  31.1409650  36.3674610  15.2855730  30.7191680  36.5966500
  14.1082800  32.7695070  41.1020820  14.5639750  31.9884450  41.4159440
  14.4475320  33.4801890  41.6462000  18.8559610  21.6993920  51.4345260
  18.2403880  22.2073590  50.9060720  18.5356030  20.7992250  51.3771200
   1.8585350  28.5411530  48.2611560   2.0216390  28.0716890  47.4430930
   2.3237800  28.0335090  48.9260400   6.6304120  17.6717290  43.2972130
   6.1872270  18.4526830  42.9656650   7.1889110  17.9947180  44.0043070
  10.9173930  20.5385810  48.9007450  10.4553300  20.7468830  49.7127390
  10.5152040  19.7245160  48.5978120  15.9178440  21.7594760  50.0304110
  15.0672030  21.4600510  50.3513180  15.7580230  22.0036770  49.1187930
  13.0128150  23.2596510  52.1302900  13.3381560  22.4260260  51.7905130
  13.8008480  23.7825030  52.2781230   9.7462940  17.2927990  38.1777960
   9.1217120  17.2887860  38.9031270   9.6593060  16.4258950  37.7813930
   8.6680020  18.2164620  45.1561730   8.9652350  19.1227450  45.0753750
   9.2165580  17.7283400  44.5421300   6.4218340  22.7950860  41.0253380
   6.1959260  22.5788030  41.9300000   5.6410870  23.2279320  40.6799350
  13.6516100  22.8014230  39.6244030  13.0524990  23.5250030  39.4407650
  14.1995710  22.7391010  38.8420480   8.8617550  23.6936440  51.6913650
   8.7661150  22.7531170  51.5414050   9.7049530  23.9151510  51.2961720
  12.2580970  21.4377770  41.6547310  12.6510540  21.7549970  40.8416000
  12.6197820  20.5589650  41.7691830   3.9928090  20.1050110  49.8447430
   3.5991480  20.9525320  50.0520210   3.3046490  19.4676480  50.0356070
  10.5673140  20.1885080  52.9144170   9.8771460  19.9957280  53.5490260
  11.3105440  20.4719720  53.4468470  12.8436110  24.0283520  45.7498090
  12.1117230  24.5370330  46.0988190  12.4460450  23.2113500  45.4486870
   9.2813500  20.7037720  44.1550580   9.2849560  20.2627670  43.3055120
  10.1764620  21.0255050  44.2622400   5.1315880  20.5864210  43.1144790
   4.7915930  21.0639440  43.8711840   4.3693200  20.1329330  42.7545890
   9.3433650  21.7049800  37.1457340   9.4646470  21.6636280  38.0943160
   8.9582160  22.5673950  36.9904070  13.3062020  19.4817200  45.1621030
  13.3234760  19.9325850  46.0062880  13.0577600  18.5822840  45.3754470
   8.3555150  24.0150940  36.5440640   7.7872050  23.5669190  35.9176550
   9.0644150  24.3743720  36.0105790  16.7332770  16.8949380  51.0007410
  17.0578540  16.1639040  51.5265390  16.7689280  16.5763020  50.0988400
   3.4324330  27.9162960  50.4207370   3.0479120  27.2756630  51.0190330
   3.7436520  28.6199080  50.9902100   9.5821470  24.7639500  45.9015990
   9.9491600  24.2898070  46.6477330   9.3926530  25.6381070  46.2424330
   2.4461960  19.5083190  42.0309460   2.1608880  19.1438860  42.8688080
   2.3840820  18.7763650  41.4172600   7.3720840  23.8048140  48.2200200
   7.0677910  24.6840120  48.4450560   8.3267300  23.8647930  48.2557640
   5.9002630  28.0109130  38.8167050   5.1264890  27.4706750  38.6565770
   6.6297260  27.4915740  38.4784810  16.6590610  27.0074490  44.6093440
  17.3789730  27.5029780  44.2189550  16.4572430  26.3292380  43.9647310
  12.1200550  18.4012450  38.7522830  11.3065160  17.9025620  38.6768140
  11.9262500  19.2410700  38.3359180  12.0409410  27.0783550  50.4962440
  11.9746720  26.1579220  50.2420030  11.4114550  27.1758990  51.2107080
  14.8348940  22.7732100  37.0484990  15.7228560  23.0849330  36.8736330
  14.8054030  21.9004350  36.6565570   5.9440030  27.6789510  42.4545860
   6.4618700  26.8757770  42.4002750   5.4924050  27.6168650  43.2962690
  10.8309530  28.9455790  37.7273160  11.1725230  29.6898020  37.2316480
  10.0022240  29.2586910  38.0897990   3.4284570  24.6450880  49.3671560
   3.0699510  25.3104730  49.9544900   3.1339130  23.8134430  49.7384180
   6.6297690  25.1035120  52.2511110   6.3297830  25.2492300  51.3538930
   7.4008930  24.5440410  52.1584500  11.9726140  29.9004120  50.2466240
  11.9870680  28.9685080  50.0285150  11.2651240  29.9863880  50.8856010
  17.1063210  24.0843940  36.5164850  17.0226930  24.5158160  35.6661290
  17.8257400  24.5442290  36.9491670  18.1837350  26.5411460  49.5934820
  17.4585540  27.1340240  49.3964210  18.7112810  26.5335000  48.7948190
  18.1350460  30.9386200  39.2446980  17.4926620  30.2841820  39.5190700
  17.7481120  31.3441290  38.4687650  13.7136940  28.2671630  43.0918670
  14.0660760  27.6699760  42.4320040  12.8299270  27.9415860  43.2626920
   9.8000220  29.0269320  40.4989080  10.4871350  29.5738530  40.8796670
   9.0132640  29.5710050  40.5338690   9.1027430  26.0315350  40.1114440
   9.5590210  26.8420600  40.3374630   8.7515640  25.7138490  40.9432930
  11.4060040  31.5421690  47.3406740  12.0502260  31.7481070  48.0180160
  11.7689480  30.7810090  46.8877590   5.0039210  16.3753000  40.5836960
   4.8753840  16.3670900  41.5321880   4.1801230  16.7136090  40.2327970
  12.6792120  29.5454040  46.0584190  13.3214350  28.8447200  46.1716360
  13.2041470  30.3252480  45.8781080  16.5247840  29.8302660  35.7823330
  16.2985420  29.1133100  36.3747970  16.1344040  29.5815100  34.9445080
  14.4529740  30.3448940  49.2620250  14.7885980  30.9315630  49.9398170
  13.5330080  30.2141650  49.4918040   2.3063870  33.8569520  36.5567790
   2.6661510  34.4558860  35.9025060   2.1656210  34.4029410  37.3302820
  16.1064090  27.7474600  37.4437490  15.8185790  28.2087290  38.2315370
  16.9016260  27.2872370  37.7121710   2.2905730  32.1224380  51.0310190
   2.3996850  31.1819120  50.8905580   1.6386290  32.3879130  50.3823920
  10.2818320  30.3940270  52.4308310   9.9615190  29.6749510  52.9754000
   9.6076680  31.0695340  52.5044370   8.3232490  31.2400720  37.3741460
   8.3142590  31.9730410  36.7585970   7.4030850  30.9932300  37.4668420
   3.9239130  26.4615610  38.1188220   3.3167080  27.2014510  38.1283520
   4.3988480  26.5514970  37.2926420  13.4971920  20.6266430  47.7945110
  13.8652740  19.8061640  48.1224680  12.6370120  20.6868320  48.2100760
  16.8633950  19.5823370  38.6032670  16.2347110  19.6869040  37.8890900
  16.3685870  19.8020150  39.3926550  11.3092090  31.3028960  36.0366650
  11.4104070  31.0992950  35.1068630  10.4093830  31.0487240  36.2414430
   8.8317980  21.8609320  40.0190550   8.1234130  22.3295660  40.4604160
   9.1162460  21.2031330  40.6535740  10.4573910  23.2806020  48.0183080
  10.9559160  23.7551840  48.6834930  10.5996860  22.3569540  48.2253110
  12.8633410  18.5859980  41.4586340  12.7401190  18.6046110  40.5095850
  13.8117970  18.6338920  41.5784740   9.9510200  33.8215280  40.7314320
  10.2051700  33.7836670  39.8093690   9.0022680  33.6948610  40.7242570
   7.0353000  20.1694400  37.3941260   7.8843530  20.6064550  37.3281450
   6.6684270  20.4814660  38.2213320  17.6640770  19.4973980  48.8611470
  17.1614370  20.2379380  49.2005280  18.4797430  19.8857980  48.5448260
  15.9562780  24.7407160  42.3072830  15.0152920  24.7557390  42.4820520
  16.2706850  23.9543120  42.7533130   5.9344420  26.4226760  35.8676790
   6.7007690  26.3108120  36.4302220   6.0119110  25.7264730  35.2153560
   4.6291180  23.8551830  36.5509680   4.7094770  22.9079340  36.6627080
   5.5210930  24.1858710  36.6570340  17.9588360  31.9116010  43.9827090
  18.0835780  32.7347180  44.4550900  18.8253920  31.7006740  43.6351240
   5.4305890  34.0047220  43.6544220   6.1668370  33.4562680  43.9252790
   5.8146810  34.8703230  43.5150210   4.4364170  33.1893290  52.8429800
   5.2376900  33.5105340  53.2565200   3.9215990  32.8288870  53.5649710
   8.5408200  33.1777530  35.4769790   9.3336810  33.4666360  35.0251580
   8.0212550  32.7469700  34.7982270  13.2728800  29.2973160  52.7905210
  12.6666960  29.3204760  52.0500960  12.9682910  28.5656200  53.3272460
  14.7029170  33.0253450  51.4014620  15.6550920  32.9411470  51.3514860
  14.5557390  33.6895160  52.0748410  17.5938370  32.4047660  36.9006530
  17.3079880  31.9912800  36.0860710  17.3957920  33.3335370  36.7807050
   9.0585600  28.3980940  35.3412140   8.9536240  27.7833290  36.0673520
   8.8909820  27.8746830  34.5575150   9.2099920  27.0837740  51.3201370
   8.4445590  27.6522740  51.2356040   9.3915880  26.7913950  50.4269600
  12.2988330  27.4600970  35.9454130  11.7498430  27.9070270  36.5896870
  12.9207590  26.9550220  36.4691800  16.3523270  28.8143070  51.8776390
  17.0932740  29.1518830  51.3743850  15.5895950  28.9835130  51.3246160
   4.1885060  23.8196340  52.6815920   4.2290400  23.5210210  53.5901150
   5.0430560  24.2203950  52.5223440   7.9663450  26.4191890  37.8419430
   8.3879870  26.2531760  38.6850820   8.0914290  25.6092120  37.3474570
   6.1290870  22.3988440  50.6490410   5.5987330  21.9079390  50.0213750
   6.7978940  22.8272640  50.1148340  10.4791090  25.4429500  35.0896530
  10.9996750  24.7278520  34.7237680  11.1259490  26.0815370  35.3897040
  15.0268930  26.8657900  50.4131600  15.4409950  27.0202980  51.2622020
  14.0919930  26.9913120  50.5757380  15.4991100  24.2054060  52.4170750
  16.0811870  23.4506380  52.3291230  15.6752870  24.7361500  51.6402230
   6.6163170  19.3650810  50.7287700   6.5220040  18.7471560  50.0038570
   6.0360560  20.0917100  50.5017610   9.3824610  17.9224050  47.7615090
   8.9341910  17.9448310  46.9160640   8.7489810  17.5243070  48.3585390
   9.7884160  26.8178380  48.3827530  10.2072270  27.6611110  48.2103770
   8.8692790  26.9550420  48.1534310  12.1248060  24.5494560  49.7665370
  12.2444270  23.9535700  50.5060210  12.9842060  24.5864250  49.3466670
  14.4635960  25.1031750  48.3427880  13.9371180  25.6274370  47.7393020
  14.8067300  25.7359140  48.9737610   6.8622350  22.4925120  34.7877590
   6.6611410  21.6292480  35.1490930   6.6914400  22.4058480  33.8499190
   7.6391580  33.1231390  49.4985260   7.1012670  33.8477450  49.1793960
   7.8925540  32.6461730  48.7082600   8.8916830  21.0915910  51.0241190
   9.4816520  20.7831760  51.7119010   8.0737070  20.6195660  51.1801090
  13.7110260  20.7081720  51.2574210  13.0225780  20.0463260  51.1924200
  14.4316280  20.2619990  51.7022670  14.3410660  17.3033350  37.3164470
  14.6212950  16.4601250  37.6723890  13.5676390  17.5356460  37.8303220
   5.6605150  19.5925740  34.7755470   5.9631050  19.5993170  33.8674620
   6.3999740  19.2423600  35.2723130  10.4953790  34.3582600  49.7571910
  10.4212490  35.2617740  50.0644280   9.5932630  34.0394500  49.7293980
   8.8790080  18.5360360  35.7611670   8.5312080  17.8584350  35.1814120
   9.0802850  18.0749870  36.5755060  11.0439120  33.5241110  37.3798270
  11.9389910  33.8626080  37.4017030  11.0756750  32.8020520  36.7522550
   4.6835280  28.8968160  35.6085270   5.1210150  29.4397830  36.2642850
   5.1683010  28.0715110  35.6181610   1.8981080  31.6857190  43.0605530
   2.2284090  30.8178250  42.8284170   2.3272080  31.8915710  43.8910490
   6.4943000  30.0166200  40.7207500   6.1938540  29.8931170  41.6211410
   6.3880490  29.1574790  40.3123230   2.3871290  32.5527780  45.7987160
   1.9502280  32.7328580  46.6311310   2.9548970  33.3102400  45.6568880
  18.0233470  32.0544780  50.0864470  17.4235460  32.1137340  49.3428390
  18.1527370  31.1149760  50.2161320  19.2634920  29.7962600  35.4234180
  18.4327880  29.8639250  35.8941410  19.4406750  30.6866720  35.1201040
  18.7191380  26.5410080  37.9268380  19.4810290  27.1106730  38.0328070
  18.7345750  25.9737280  38.6976690   2.2195720  25.0648010  42.1576040
   1.5644560  24.7959650  41.5135740   3.0573670  24.9552490  41.7078020
  19.7251350  27.3960180  42.7710310  20.0960180  26.6127500  42.3646280
  20.3653280  28.0849280  42.5927610  16.7085110  28.7796760  48.1840630
  15.8944950  29.2093920  48.4466420  17.1159310  29.3915170  47.5709680
  18.7710550  26.8344450  35.0840900  19.0459390  27.7423330  34.9560120
  18.5821290  26.7706980  36.0202890  15.1686160  19.8589300  36.3794530
  15.5871040  19.6720280  35.5391190  14.8622220  19.0068350  36.6897460
  18.6675890  24.7713440  40.0770330  18.2919490  24.0041370  39.6451620
  17.9379010  25.1536140  40.5645260   3.2571650  25.4500580  46.6979380
   3.6244690  25.3627980  47.5775400   2.6882470  24.6867130  46.5986240
  18.0575510  23.9184960  49.7109850  17.8261600  23.6897710  48.8107800
  18.3180060  24.8384510  49.6654740   2.8087650  22.3609670  50.6037800
   1.9143700  22.3276430  50.9431510   3.3485200  22.5596460  51.3689050
  16.4963580  19.1441390  52.4889550  17.3733760  19.1524790  52.8723550
  16.5084420  18.4072230  51.8781900  17.9426850  22.9970930  43.3777570
  18.4664330  22.5033580  42.7467740  18.5286270  23.1321290  44.1225140
  18.1216570  23.0810800  46.8997120  17.1719280  23.0474340  47.0142110
  18.3029580  23.9910910  46.6646890   3.9761010  21.3312480  36.0095750
   4.6852710  20.9095700  35.5243030   3.2600950  21.3987710  35.3779100
   3.6235170  17.3851810  35.0498400   4.3463300  17.9260750  35.3679620
   3.8959690  17.1115230  34.1739940  17.4326820  22.2544280  39.3169980
  17.9285940  22.0215150  40.1018860  17.2342890  21.4156120  38.9007620
   3.3127360  16.6358000  44.9521020   3.9603550  16.0855380  44.5116180
   3.7329200  16.8901150  45.7736830  18.8613980  20.8905230  41.8507660
  18.7513260  20.7361270  42.7889930  19.6221570  20.3626170  41.6083070
  17.2079700  16.8299360  48.3090660  17.8451920  17.4433500  48.6749850
  17.3554590  16.8660020  47.3639890  19.7504250  18.7213150  35.0913800
  20.6753560  18.5894330  34.8832090  19.7280040  18.8005970  36.0450250
  19.8242740  19.4923810  37.7170510  19.0294240  19.4268930  38.2463420
  20.0286020  20.4274450  37.7055860  16.7661160  33.5315360  41.7108900
  17.3620230  33.2099930  41.0343320  17.0239310  33.0587180  42.5022170
   3.0659360  16.7913670  47.6946340   2.7174180  17.2477490  48.4604520
   2.7347060  15.8970800  47.7768770   4.6723730  29.9633270  51.8599530
   4.6293360  29.5926180  52.7413990   4.8034740  30.9010840  52.0001350
   8.3729760  31.5192860  47.4609250   8.1321120  31.7867420  46.5739770
   9.3132400  31.6898590  47.5160110  10.5784180  17.9825550  51.2165760
  10.5173070  18.5747380  51.9661170  11.5184560  17.8751510  51.0716020
  13.2158740  17.6395610  50.8558050  13.8299150  17.9574900  50.1939130
  13.7608300  17.1544200  51.4753910  19.6333920  33.5387240  48.2619890
  19.1392200  33.9356110  47.5447020  19.0247210  32.9136450  48.6557170
   3.7380000  16.3189870  50.9697110   4.2862990  16.1377920  50.2063220
   3.8035310  15.5283980  51.5053420   4.5111760  32.9095520  48.9797310
   3.9172080  32.7780220  49.7187350   4.5035600  32.0733660  48.5139410
  13.9566780  16.2027750  47.1827340  13.0826620  16.5362860  46.9800270
  13.8477530  15.7300930  48.0079210  14.8638760  18.4098620  48.5669060
  14.5352120  17.5950380  48.1870790  15.8121060  18.3668430  48.4434750
  17.3173370  34.1810660  45.5406630  16.8576340  34.9326470  45.1664650
  16.6885830  33.4617130  45.4821430   4.1423990  30.2753900  47.9305350
   3.4158050  29.6559190  47.8631300   4.2033140  30.6694510  47.0603430
   7.7469090  32.4898900  44.7154760   8.2634110  31.8786260  44.1903020
   8.3966470  32.9927680  45.2065770  10.4864590  33.3807390  45.5423740
  10.7742400  33.1261690  44.6656750  10.9987810  32.8284750  46.1329310
  11.7041600  17.1197590  46.1220250  10.9213390  17.5943090  46.4017010
  11.4104530  16.2152420  46.0133430  16.2562670  17.8220690  44.1669340
  16.6970760  17.7665790  43.3190940  15.9870260  18.7378700  44.2379520
  18.1201240  17.4535930  42.1778160  18.0589640  16.5097150  42.0309180
  18.8993270  17.5616020  42.7231620   2.4253990  33.5928290  41.1402110
   2.2576030  32.9598970  41.8384000   1.5588500  33.7987690  40.7896300
   3.0482010  17.4245070  38.6433970   3.8061370  17.5373950  38.0698000
   2.5859180  18.2614270  38.5977400   9.5895820  19.5384340  41.6336280
   8.7770330  19.1641230  41.2932160  10.0937460  18.7829420  41.9357470
  14.0920800  16.2026790  42.8719350  14.6950170  16.7747000  43.3467870
  13.3513790  16.7666230  42.6493250  17.2355400  16.6048350  38.1459630
  17.4306030  17.5031800  38.4127060  16.4485270  16.3735430  38.6392580
   4.0316690  32.2861520  38.5852250   3.5064310  32.6669550  37.8814210
   3.9561270  32.9112290  39.3061960   5.4207160  17.9509120  37.1835940
   5.9499920  17.1638920  37.0543890   6.0535480  18.6300310  37.4171470
   7.6145000  17.6884260  40.2381330   6.9847740  16.9871570  40.4051460
   7.0750140  18.4488390  40.0214490  10.5536950  34.3023490  52.9091940
  11.4804260  34.0667760  52.9527900  10.5387380  35.1295490  52.4277970
  18.7882010  33.8449060  39.9066190  18.9634200  33.1586800  39.2627110
  18.0903580  34.3696110  39.5142860   7.7400560  16.9668240  52.6733820
   7.4584830  17.4701840  51.9094640   8.1220260  16.1689990  52.3075950
   6.6309660  34.2343900  37.4601500   7.3628480  33.9503180  36.9125390
   6.8903330  33.9957180  38.3500880   5.7924450  30.3508630  37.4647830
   5.1633330  30.8193730  38.0133660   5.9072280  29.5057850  37.8994020
  14.3416020  16.3821820  53.2514290  14.2281470  16.7016430  54.1465810
  15.1585760  16.7834330  52.9551570  17.1214510  33.5293350  52.7332980
  17.9139830  33.0342580  52.5258940  17.4147660  34.2083490  53.3408590
  13.2474170  24.4014290  23.6149030  13.1668220  23.4868900  23.3440740
  12.8338590  24.8981360  22.9088740  11.3792210  26.1793310  25.4958300
  10.6034310  25.6993750  25.7856870  12.0305140  25.4998960  25.3214460
   5.3958040  26.4913120  26.3734060   4.5642920  26.2361830  26.7730570
   6.0039020  26.5623890  27.1091980  15.3999640  30.5853500  24.2757430
  14.9381170  29.8140740  24.6044600  16.2125190  30.6119570  24.7809880
   5.3759300  30.5253210  26.5692080   5.6787340  29.6350950  26.3902300
   6.1202890  31.0823430  26.3414330   3.8049990  21.4515010  20.1576450
   2.9166690  21.7930980  20.0556330   4.0891180  21.2515330  19.2657280
   1.7683000  24.0520660  26.0416150   2.3399110  23.2842860  26.0419790
   1.7684540  24.3509420  25.1322760  11.6262950  32.8711510  23.8961420
  11.0074390  33.3269010  23.3255860  12.4814730  33.0262970  23.4951120
  10.8201200  28.8550500  25.5028460  10.7509480  27.9140440  25.3417590
  11.5821060  28.9451910  26.0751030   3.0107870  19.4605020  27.8285080
   2.8310710  18.5630770  28.1087840   2.6087950  20.0076890  28.5032030
  11.8506370  21.6620880  25.7297390  12.2271190  20.7892760  25.6171060
  11.7525880  21.9979580  24.8387830   5.9811380  20.0346510  21.1914830
   6.0878130  20.9350240  21.4983590   5.0703740  19.9864480  20.9009480
  15.6330490  19.1571320  22.6625730  16.4540110  18.6667890  22.7051210
  15.6664570  19.7468980  23.4157570   3.6294540  21.9565520  26.4367420
   4.3104650  22.2203890  27.0554820   3.3142590  21.1166390  26.7705430
   7.8219110  23.0032880  25.5240010   8.3297330  23.5013850  26.1645030
   8.3532350  22.2268080  25.3479370  19.9230040  21.1738070  29.2269360
  19.2182210  21.5619780  28.7084470  20.1887960  21.8688360  29.8290290
   6.1055210  17.6431440  29.7903430   6.1073650  18.1603830  28.9849330
   5.2759520  17.1661620  29.7673360  12.4926300  27.7550750  21.2893330
  11.8743570  28.2200200  20.7256050  13.0049550  28.4478230  21.7062840
   7.3558060  27.2826620  27.9676930   7.0227440  27.9095540  28.6098000
   7.5324740  27.8088500  27.1878600  15.8691970  21.0971700  25.4353270
  15.1647540  21.3856590  26.0156380  16.2304130  21.9071810  25.0752830
   5.7870540  19.3541400  27.7973880   6.1287350  20.1983450  27.5027750
   4.8486350  19.5025140  27.9139220   6.5677160  29.2507420  29.7826110
   7.1851160  29.9258500  29.5010560   5.7070280  29.6595400  29.6913610
   1.8609500  28.4407280  18.6632960   1.4837480  28.9294380  17.9317860
   2.1182570  29.1132560  19.2939490  17.4854750  30.7146830  27.6980750
  16.8018270  31.3845940  27.6897420  18.0249040  30.9127480  26.9325610
  18.9378890  20.5426490  25.8262480  17.9903800  20.5765470  25.9577910
  19.2628880  21.3565440  26.2111840   9.4698430  16.8423670  24.1218470
   9.7773410  16.2870560  23.4053970   8.5399130  16.9768130  23.9391460
  15.0213490  32.5590960  26.4125930  15.0340650  32.1553250  25.5448190
  14.4688710  33.3338250  26.3087360  16.3158910  29.2807180  21.5016100
  16.2055240  28.3381510  21.6265520  16.3127160  29.6422820  22.3878860
  14.4198930  27.4620800  27.7408540  14.8367720  27.2480910  26.9062000
  15.1438750  27.7193590  28.3117160  11.8579190  24.9072500  20.8578590
  10.9308470  24.8409880  21.0867060  12.0104010  25.8452630  20.7433830
  11.8448270  21.1789500  17.8545750  10.9051940  21.3403460  17.9398210
  12.1631530  21.8975180  17.3081740  18.3661030  25.8608020  27.8324780
  17.5379660  25.9301110  27.3574910  18.9611510  26.4462330  27.3640610
  15.8876480  26.4692800  21.3613840  15.2688900  26.1312350  20.7140140
  15.8700930  25.8252560  22.0693030  15.3303040  22.6477340  28.7779650
  14.9174220  23.4731050  29.0319640  14.5978990  22.0622380  28.5856010
   7.4635830  25.4337240  23.6398320   7.0592830  24.7214490  23.1444220
   7.5498950  25.0890480  24.5286360   7.9317530  29.1204800  25.8037530
   7.6345820  28.5150270  25.1245310   8.8817350  29.1582110  25.6926890
   6.1764450  22.2080450  27.4197360   6.7279040  22.3175790  26.6450610
   6.6907960  22.5818050  28.1352590  16.0203140  32.6936670  29.4660630
  15.5433700  33.5008860  29.2733240  15.3364930  32.0415000  29.6186840
   7.0235960  28.8586490  32.4545330   6.1264490  29.0826460  32.7018730
   7.0488830  28.9821430  31.5056730  14.0641180  25.7079610  18.3686590
  14.5034460  24.8702040  18.2224410  14.7769600  26.3409010  18.4550730
   5.8507180  25.7299810  31.0302700   5.7114950  26.6022610  31.3990100
   4.9688540  25.3872620  30.8850640  12.1736560  30.6475680  22.3367830
  12.6132470  31.3900010  21.9223220  12.1123450  30.8902250  23.2606790
   7.6487530  31.6721510  33.2387850   7.6202960  32.0764460  32.3716280
   7.4852500  30.7431870  33.0759450  17.6458320  16.9622420  16.6827630
  17.3330980  17.0549250  17.5826700  18.4070790  17.5403450  16.6325060
   4.1640460  24.3282220  21.1404970   4.0438060  25.0544310  20.5286240
   3.8541350  23.5585130  20.6632880  19.6002350  32.4548610  34.5352020
  20.0762070  32.9331500  35.2141100  20.2209510  32.3866100  33.8097520
   1.8025830  27.4997360  26.9473610   1.8806250  27.6346130  26.0029330
   2.4167510  26.7913250  27.1401730   3.0473460  29.1997550  23.3579790
   2.6401540  29.3412140  22.5033390   3.9386470  28.9157710  23.1551000
  19.0035600  29.6461460  31.6952030  19.1298660  29.4073340  30.7769210
  19.0456980  28.8146000  32.1674110  12.8652340  33.3489460  30.2646840
  13.3797010  33.2597470  31.0669270  12.0221420  33.6949160  30.5574750
  14.8406740  33.6344800  19.6930840  14.6807880  33.3447740  20.5912670
  14.6753450  32.8584930  19.1576070   7.3195120  33.4143330  21.4702460
   7.1437600  32.4978870  21.2570260   6.4650860  33.7730620  21.7100260
  14.5432870  31.1432360  18.2528840  13.8498030  31.1409650  17.5931120
  15.2855730  30.7191680  17.8223010  14.1082800  32.7695070  22.3277330
  14.5639750  31.9884450  22.6415950  14.4475320  33.4801890  22.8718510
  18.8559610  21.6993920  32.6601770  18.2403880  22.2073590  32.1317230
  18.5356030  20.7992250  32.6027710   1.8585350  28.5411530  29.4868070
   2.0216390  28.0716890  28.6687440   2.3237800  28.0335090  30.1516910
   6.6304120  17.6717290  24.5228640   6.1872270  18.4526830  24.1913160
   7.1889110  17.9947180  25.2299580  10.9173930  20.5385810  30.1263960
  10.4553300  20.7468830  30.9383900  10.5152040  19.7245160  29.8234630
  15.9178440  21.7594760  31.2560620  15.0672030  21.4600510  31.5769690
  15.7580230  22.0036770  30.3444440  13.0128150  23.2596510  33.3559410
  13.3381560  22.4260260  33.0161640  13.8008480  23.7825030  33.5037740
   9.7462940  17.2927990  19.4034470   9.1217120  17.2887860  20.1287780
   9.6593060  16.4258950  19.0070440   8.6680020  18.2164620  26.3818240
   8.9652350  19.1227450  26.3010260   9.2165580  17.7283400  25.7677810
   6.4218340  22.7950860  22.2509890   6.1959260  22.5788030  23.1556510
   5.6410870  23.2279320  21.9055860  13.6516100  22.8014230  20.8500540
  13.0524990  23.5250030  20.6664160  14.1995710  22.7391010  20.0676990
   8.8617550  23.6936440  32.9170160   8.7661150  22.7531170  32.7670560
   9.7049530  23.9151510  32.5218230  12.2580970  21.4377770  22.8803820
  12.6510540  21.7549970  22.0672510  12.6197820  20.5589650  22.9948340
   3.9928090  20.1050110  31.0703940   3.5991480  20.9525320  31.2776720
   3.3046490  19.4676480  31.2612580  10.5673140  20.1885080  34.1400680
   9.8771460  19.9957280  34.7746770  11.3105440  20.4719720  34.6724980
  12.8436110  24.0283520  26.9754600  12.1117230  24.5370330  27.3244700
  12.4460450  23.2113500  26.6743380   9.2813500  20.7037720  25.3807090
   9.2849560  20.2627670  24.5311630  10.1764620  21.0255050  25.4878910
   5.1315880  20.5864210  24.3401300   4.7915930  21.0639440  25.0968350
   4.3693200  20.1329330  23.9802400   9.3433650  21.7049800  18.3713850
   9.4646470  21.6636280  19.3199670   8.9582160  22.5673950  18.2160580
  13.3062020  19.4817200  26.3877540  13.3234760  19.9325850  27.2319390
  13.0577600  18.5822840  26.6010980   8.3555150  24.0150940  17.7697150
   7.7872050  23.5669190  17.1433060   9.0644150  24.3743720  17.2362300
  16.7332770  16.8949380  32.2263920  17.0578540  16.1639040  32.7521900
  16.7689280  16.5763020  31.3244910   3.4324330  27.9162960  31.6463880
   3.0479120  27.2756630  32.2446840   3.7436520  28.6199080  32.2158610
   9.5821470  24.7639500  27.1272500   9.9491600  24.2898070  27.8733840
   9.3926530  25.6381070  27.4680840   2.4461960  19.5083190  23.2565970
   2.1608880  19.1438860  24.0944590   2.3840820  18.7763650  22.6429110
   7.3720840  23.8048140  29.4456710   7.0677910  24.6840120  29.6707070
   8.3267300  23.8647930  29.4814150   5.9002630  28.0109130  20.0423560
   5.1264890  27.4706750  19.8822280   6.6297260  27.4915740  19.7041320
  16.6590610  27.0074490  25.8349950  17.3789730  27.5029780  25.4446060
  16.4572430  26.3292380  25.1903820  12.1200550  18.4012450  19.9779340
  11.3065160  17.9025620  19.9024650  11.9262500  19.2410700  19.5615690
  12.0409410  27.0783550  31.7218950  11.9746720  26.1579220  31.4676540
  11.4114550  27.1758990  32.4363590  14.8348940  22.7732100  18.2741500
  15.7228560  23.0849330  18.0992840  14.8054030  21.9004350  17.8822080
   5.9440030  27.6789510  23.6802370   6.4618700  26.8757770  23.6259260
   5.4924050  27.6168650  24.5219200  10.8309530  28.9455790  18.9529670
  11.1725230  29.6898020  18.4572990  10.0022240  29.2586910  19.3154500
   3.4284570  24.6450880  30.5928070   3.0699510  25.3104730  31.1801410
   3.1339130  23.8134430  30.9640690   6.6297690  25.1035120  33.4767620
   6.3297830  25.2492300  32.5795440   7.4008930  24.5440410  33.3841010
  11.9726140  29.9004120  31.4722750  11.9870680  28.9685080  31.2541660
  11.2651240  29.9863880  32.1112520  17.1063210  24.0843940  17.7421360
  17.0226930  24.5158160  16.8917800  17.8257400  24.5442290  18.1748180
  18.1837350  26.5411460  30.8191330  17.4585540  27.1340240  30.6220720
  18.7112810  26.5335000  30.0204700  18.1350460  30.9386200  20.4703490
  17.4926620  30.2841820  20.7447210  17.7481120  31.3441290  19.6944160
  13.7136940  28.2671630  24.3175180  14.0660760  27.6699760  23.6576550
  12.8299270  27.9415860  24.4883430   9.8000220  29.0269320  21.7245590
  10.4871350  29.5738530  22.1053180   9.0132640  29.5710050  21.7595200
   9.1027430  26.0315350  21.3370950   9.5590210  26.8420600  21.5631140
   8.7515640  25.7138490  22.1689440  11.4060040  31.5421690  28.5663250
  12.0502260  31.7481070  29.2436670  11.7689480  30.7810090  28.1134100
   5.0039210  16.3753000  21.8093470   4.8753840  16.3670900  22.7578390
   4.1801230  16.7136090  21.4584480  12.6792120  29.5454040  27.2840700
  13.3214350  28.8447200  27.3972870  13.2041470  30.3252480  27.1037590
  16.5247840  29.8302660  17.0079840  16.2985420  29.1133100  17.6004480
  16.1344040  29.5815100  16.1701590  14.4529740  30.3448940  30.4876760
  14.7885980  30.9315630  31.1654680  13.5330080  30.2141650  30.7174550
   2.3063870  33.8569520  17.7824300   2.6661510  34.4558860  17.1281570
   2.1656210  34.4029410  18.5559330  16.1064090  27.7474600  18.6694000
  15.8185790  28.2087290  19.4571880  16.9016260  27.2872370  18.9378220
   2.2905730  32.1224380  32.2566700   2.3996850  31.1819120  32.1162090
   1.6386290  32.3879130  31.6080430  10.2818320  30.3940270  33.6564820
   9.9615190  29.6749510  34.2010510   9.6076680  31.0695340  33.7300880
   8.3232490  31.2400720  18.5997970   8.3142590  31.9730410  17.9842480
   7.4030850  30.9932300  18.6924930   3.9239130  26.4615610  19.3444730
   3.3167080  27.2014510  19.3540030   4.3988480  26.5514970  18.5182930
  13.4971920  20.6266430  29.0201620  13.8652740  19.8061640  29.3481190
  12.6370120  20.6868320  29.4357270  16.8633950  19.5823370  19.8289180
  16.2347110  19.6869040  19.1147410  16.3685870  19.8020150  20.6183060
  11.3092090  31.3028960  17.2623160  11.4104070  31.0992950  16.3325140
  10.4093830  31.0487240  17.4670940   8.8317980  21.8609320  21.2447060
   8.1234130  22.3295660  21.6860670   9.1162460  21.2031330  21.8792250
  10.4573910  23.2806020  29.2439590  10.9559160  23.7551840  29.9091440
  10.5996860  22.3569540  29.4509620  12.8633410  18.5859980  22.6842850
  12.7401190  18.6046110  21.7352360  13.8117970  18.6338920  22.8041250
   9.9510200  33.8215280  21.9570830  10.2051700  33.7836670  21.0350200
   9.0022680  33.6948610  21.9499080   7.0353000  20.1694400  18.6197770
   7.8843530  20.6064550  18.5537960   6.6684270  20.4814660  19.4469830
  17.6640770  19.4973980  30.0867980  17.1614370  20.2379380  30.4261790
  18.4797430  19.8857980  29.7704770  15.9562780  24.7407160  23.5329340
  15.0152920  24.7557390  23.7077030  16.2706850  23.9543120  23.9789640
   5.9344420  26.4226760  17.0933300   6.7007690  26.3108120  17.6558730
   6.0119110  25.7264730  16.4410070   4.6291180  23.8551830  17.7766190
   4.7094770  22.9079340  17.8883590   5.5210930  24.1858710  17.8826850
  17.9588360  31.9116010  25.2083600  18.0835780  32.7347180  25.6807410
  18.8253920  31.7006740  24.8607750   5.4305890  34.0047220  24.8800730
   6.1668370  33.4562680  25.1509300   5.8146810  34.8703230  24.7406720
   4.4364170  33.1893290  34.0686310   5.2376900  33.5105340  34.4821710
   3.9215990  32.8288870  34.7906220   8.5408200  33.1777530  16.7026300
   9.3336810  33.4666360  16.2508090   8.0212550  32.7469700  16.0238780
  13.2728800  29.2973160  34.0161720  12.6666960  29.3204760  33.2757470
  12.9682910  28.5656200  34.5528970  14.7029170  33.0253450  32.6271130
  15.6550920  32.9411470  32.5771370  14.5557390  33.6895160  33.3004920
  17.5938370  32.4047660  18.1263040  17.3079880  31.9912800  17.3117220
  17.3957920  33.3335370  18.0063560   9.0585600  28.3980940  16.5668650
   8.9536240  27.7833290  17.2930030   8.8909820  27.8746830  15.7831660
   9.2099920  27.0837740  32.5457880   8.4445590  27.6522740  32.4612550
   9.3915880  26.7913950  31.6526110  12.2988330  27.4600970  17.1710640
  11.7498430  27.9070270  17.8153380  12.9207590  26.9550220  17.6948310
  16.3523270  28.8143070  33.1032900  17.0932740  29.1518830  32.6000360
  15.5895950  28.9835130  32.5502670   4.1885060  23.8196340  33.9072430
   4.2290400  23.5210210  34.8157660   5.0430560  24.2203950  33.7479950
   7.9663450  26.4191890  19.0675940   8.3879870  26.2531760  19.9107330
   8.0914290  25.6092120  18.5731080   6.1290870  22.3988440  31.8746920
   5.5987330  21.9079390  31.2470260   6.7978940  22.8272640  31.3404850
  10.4791090  25.4429500  16.3153040  10.9996750  24.7278520  15.9494190
  11.1259490  26.0815370  16.6153550  15.0268930  26.8657900  31.6388110
  15.4409950  27.0202980  32.4878530  14.0919930  26.9913120  31.8013890
  15.4991100  24.2054060  33.6427260  16.0811870  23.4506380  33.5547740
  15.6752870  24.7361500  32.8658740   6.6163170  19.3650810  31.9544210
   6.5220040  18.7471560  31.2295080   6.0360560  20.0917100  31.7274120
   9.3824610  17.9224050  28.9871600   8.9341910  17.9448310  28.1417150
   8.7489810  17.5243070  29.5841900   9.7884160  26.8178380  29.6084040
  10.2072270  27.6611110  29.4360280   8.8692790  26.9550420  29.3790820
  12.1248060  24.5494560  30.9921880  12.2444270  23.9535700  31.7316720
  12.9842060  24.5864250  30.5723180  14.4635960  25.1031750  29.5684390
  13.9371180  25.6274370  28.9649530  14.8067300  25.7359140  30.1994120
   6.8622350  22.4925120  16.0134100   6.6611410  21.6292480  16.3747440
   6.6914400  22.4058480  15.0755700   7.6391580  33.1231390  30.7241770
   7.1012670  33.8477450  30.4050470   7.8925540  32.6461730  29.9339110
   8.8916830  21.0915910  32.2497700   9.4816520  20.7831760  32.9375520
   8.0737070  20.6195660  32.4057600  13.7110260  20.7081720  32.4830720
  13.0225780  20.0463260  32.4180710  14.4316280  20.2619990  32.9279180
  14.3410660  17.3033350  18.5420980  14.6212950  16.4601250  18.8980400
  13.5676390  17.5356460  19.0559730   5.6605150  19.5925740  16.0011980
   5.9631050  19.5993170  15.0931130   6.3999740  19.2423600  16.4979640
  10.4953790  34.3582600  30.9828420  10.4212490  35.2617740  31.2900790
   9.5932630  34.0394500  30.9550490   8.8790080  18.5360360  16.9868180
   8.5312080  17.8584350  16.4070630   9.0802850  18.0749870  17.8011570
  11.0439120  33.5241110  18.6054780  11.9389910  33.8626080  18.6273540
  11.0756750  32.8020520  17.9779060   4.6835280  28.8968160  16.8341780
   5.1210150  29.4397830  17.4899360   5.1683010  28.0715110  16.8438120
   1.8981080  31.6857190  24.2862040   2.2284090  30.8178250  24.0540680
   2.3272080  31.8915710  25.1167000   6.4943000  30.0166200  21.9464010
   6.1938540  29.8931170  22.8467920   6.3880490  29.1574790  21.5379740
   2.3871290  32.5527780  27.0243670   1.9502280  32.7328580  27.8567820
   2.9548970  33.3102400  26.8825390  18.0233470  32.0544780  31.3120980
  17.4235460  32.1137340  30.5684900  18.1527370  31.1149760  31.4417830
  19.2634920  29.7962600  16.6490690  18.4327880  29.8639250  17.1197920
  19.4406750  30.6866720  16.3457550  18.7191380  26.5410080  19.1524890
  19.4810290  27.1106730  19.2584580  18.7345750  25.9737280  19.9233200
   2.2195720  25.0648010  23.3832550   1.5644560  24.7959650  22.7392250
   3.0573670  24.9552490  22.9334530  19.7251350  27.3960180  23.9966820
  20.0960180  26.6127500  23.5902790  20.3653280  28.0849280  23.8184120
  16.7085110  28.7796760  29.4097140  15.8944950  29.2093920  29.6722930
  17.1159310  29.3915170  28.7966190  18.7710550  26.8344450  16.3097410
  19.0459390  27.7423330  16.1816630  18.5821290  26.7706980  17.2459400
  15.1686160  19.8589300  17.6051040  15.5871040  19.6720280  16.7647700
  14.8622220  19.0068350  17.9153970  18.6675890  24.7713440  21.3026840
  18.2919490  24.0041370  20.8708130  17.9379010  25.1536140  21.7901770
   3.2571650  25.4500580  27.9235890   3.6244690  25.3627980  28.8031910
   2.6882470  24.6867130  27.8242750  18.0575510  23.9184960  30.9366360
  17.8261600  23.6897710  30.0364310  18.3180060  24.8384510  30.8911250
   2.8087650  22.3609670  31.8294310   1.9143700  22.3276430  32.1688020
   3.3485200  22.5596460  32.5945560  16.4963580  19.1441390  33.7146060
  17.3733760  19.1524790  34.0980060  16.5084420  18.4072230  33.1038410
  17.9426850  22.9970930  24.6034080  18.4664330  22.5033580  23.9724250
  18.5286270  23.1321290  25.3481650  18.1216570  23.0810800  28.1253630
  17.1719280  23.0474340  28.2398620  18.3029580  23.9910910  27.8903400
   3.9761010  21.3312480  17.2352260   4.6852710  20.9095700  16.7499540
   3.2600950  21.3987710  16.6035610   3.6235170  17.3851810  16.2754910
   4.3463300  17.9260750  16.5936130   3.8959690  17.1115230  15.3996450
  17.4326820  22.2544280  20.5426490  17.9285940  22.0215150  21.3275370
  17.2342890  21.4156120  20.1264130   3.3127360  16.6358000  26.1777530
   3.9603550  16.0855380  25.7372690   3.7329200  16.8901150  26.9993340
  18.8613980  20.8905230  23.0764170  18.7513260  20.7361270  24.0146440
  19.6221570  20.3626170  22.8339580  17.2079700  16.8299360  29.5347170
  17.8451920  17.4433500  29.9006360  17.3554590  16.8660020  28.5896400
  19.7504250  18.7213150  16.3170310  20.6753560  18.5894330  16.1088600
  19.7280040  18.8005970  17.2706760  19.8242740  19.4923810  18.9427020
  19.0294240  19.4268930  19.4719930  20.0286020  20.4274450  18.9312370
  16.7661160  33.5315360  22.9365410  17.3620230  33.2099930  22.2599830
  17.0239310  33.0587180  23.7278680   3.0659360  16.7913670  28.9202850
   2.7174180  17.2477490  29.6861030   2.7347060  15.8970800  29.0025280
   4.6723730  29.9633270  33.0856040   4.6293360  29.5926180  33.9670500
   4.8034740  30.9010840  33.2257860   8.3729760  31.5192860  28.6865760
   8.1321120  31.7867420  27.7996280   9.3132400  31.6898590  28.7416620
  10.5784180  17.9825550  32.4422270  10.5173070  18.5747380  33.1917680
  11.5184560  17.8751510  32.2972530  13.2158740  17.6395610  32.0814560
  13.8299150  17.9574900  31.4195640  13.7608300  17.1544200  32.7010420
  19.6333920  33.5387240  29.4876400  19.1392200  33.9356110  28.7703530
  19.0247210  32.9136450  29.8813680   3.7380000  16.3189870  32.1953620
   4.2862990  16.1377920  31.4319730   3.8035310  15.5283980  32.7309930
   4.5111760  32.9095520  30.2053820   3.9172080  32.7780220  30.9443860
   4.5035600  32.0733660  29.7395920  13.9566780  16.2027750  28.4083850
  13.0826620  16.5362860  28.2056780  13.8477530  15.7300930  29.2335720
  14.8638760  18.4098620  29.7925570  14.5352120  17.5950380  29.4127300
  15.8121060  18.3668430  29.6691260  17.3173370  34.1810660  26.7663140
  16.8576340  34.9326470  26.3921160  16.6885830  33.4617130  26.7077940
   4.1423990  30.2753900  29.1561860   3.4158050  29.6559190  29.0887810
   4.2033140  30.6694510  28.2859940   7.7469090  32.4898900  25.9411270
   8.2634110  31.8786260  25.4159530   8.3966470  32.9927680  26.4322280
  10.4864590  33.3807390  26.7680250  10.7742400  33.1261690  25.8913260
  10.9987810  32.8284750  27.3585820  11.7041600  17.1197590  27.3476760
  10.9213390  17.5943090  27.6273520  11.4104530  16.2152420  27.2389940
  16.2562670  17.8220690  25.3925850  16.6970760  17.7665790  24.5447450
  15.9870260  18.7378700  25.4636030  18.1201240  17.4535930  23.4034670
  18.0589640  16.5097150  23.2565690  18.8993270  17.5616020  23.9488130
   2.4253990  33.5928290  22.3658620   2.2576030  32.9598970  23.0640510
   1.5588500  33.7987690  22.0152810   3.0482010  17.4245070  19.8690480
   3.8061370  17.5373950  19.2954510   2.5859180  18.2614270  19.8233910
   9.5895820  19.5384340  22.8592790   8.7770330  19.1641230  22.5188670
  10.0937460  18.7829420  23.1613980  14.0920800  16.2026790  24.0975860
  14.6950170  16.7747000  24.5724380  13.3513790  16.7666230  23.8749760
  17.2355400  16.6048350  19.3716140  17.4306030  17.5031800  19.6383570
  16.4485270  16.3735430  19.8649090   4.0316690  32.2861520  19.8108760
   3.5064310  32.6669550  19.1070720   3.9561270  32.9112290  20.5318470
   5.4207160  17.9509120  18.4092450   5.9499920  17.1638920  18.2800400
   6.0535480  18.6300310  18.6427980   7.6145000  17.6884260  21.4637840
   6.9847740  16.9871570  21.6307970   7.0750140  18.4488390  21.2471000
  10.5536950  34.3023490  34.1348450  11.4804260  34.0667760  34.1784410
  10.5387380  35.1295490  33.6534480  18.7882010  33.8449060  21.1322700
  18.9634200  33.1586800  20.4883620  18.0903580  34.3696110  20.7399370
   7.7400560  16.9668240  33.8990330   7.4584830  17.4701840  33.1351150
   8.1220260  16.1689990  33.5332460   6.6309660  34.2343900  18.6858010
   7.3628480  33.9503180  18.1381900   6.8903330  33.9957180  19.5757390
   5.7924450  30.3508630  18.6904340   5.1633330  30.8193730  19.2390170
   5.9072280  29.5057850  19.1250530  14.3416020  16.3821820  34.4770800
  14.2281470  16.7016430  35.3722320  15.1585760  16.7834330  34.1808080
  17.1214510  33.5293350  33.9589490  17.9139830  33.0342580  33.7515450
  17.4147660  34.2083490  34.5665100  13.2474170  24.4014290   4.8405540
  13.1668220  23.4868900   4.5697250  12.8338590  24.8981360   4.1345250
  11.3792210  26.1793310   6.7214810  10.6034310  25.6993750   7.0113380
  12.0305140  25.4998960   6.5470970   5.3958040  26.4913120   7.5990570
   4.5642920  26.2361830   7.9987080   6.0039020  26.5623890   8.3348490
  15.3999640  30.5853500   5.5013940  14.9381170  29.8140740   5.8301110
  16.2125190  30.6119570   6.0066390   5.3759300  30.5253210   7.7948590
   5.6787340  29.6350950   7.6158810   6.1202890  31.0823430   7.5670840
   1.7683000  24.0520660   7.2672660   2.3399110  23.2842860   7.2676300
   1.7684540  24.3509420   6.3579270  11.6262950  32.8711510   5.1217930
  11.0074390  33.3269010   4.5512370  12.4814730  33.0262970   4.7207630
  10.8201200  28.8550500   6.7284970  10.7509480  27.9140440   6.5674100
  11.5821060  28.9451910   7.3007540   3.0107870  19.4605020   9.0541590
   2.8310710  18.5630770   9.3344350   2.6087950  20.0076890   9.7288540
  11.8506370  21.6620880   6.9553900  12.2271190  20.7892760   6.8427570
  11.7525880  21.9979580   6.0644340   5.9811380  20.0346510   2.4171340
   6.0878130  20.9350240   2.7240100   5.0703740  19.9864480   2.1265990
  15.6330490  19.1571320   3.8882240  16.4540110  18.6667890   3.9307720
  15.6664570  19.7468980   4.6414080   3.6294540  21.9565520   7.6623930
   4.3104650  22.2203890   8.2811330   3.3142590  21.1166390   7.9961940
   7.8219110  23.0032880   6.7496520   8.3297330  23.5013850   7.3901540
   8.3532350  22.2268080   6.5735880  19.9230040  21.1738070  10.4525870
  19.2182210  21.5619780   9.9340980  20.1887960  21.8688360  11.0546800
   6.1055210  17.6431440  11.0159940   6.1073650  18.1603830  10.2105840
   5.2759520  17.1661620  10.9929870  12.4926300  27.7550750   2.5149840
  11.8743570  28.2200200   1.9512560  13.0049550  28.4478230   2.9319350
   7.3558060  27.2826620   9.1933440   7.0227440  27.9095540   9.8354510
   7.5324740  27.8088500   8.4135110  15.8691970  21.0971700   6.6609780
  15.1647540  21.3856590   7.2412890  16.2304130  21.9071810   6.3009340
   5.7870540  19.3541400   9.0230390   6.1287350  20.1983450   8.7284260
   4.8486350  19.5025140   9.1395730   6.5677160  29.2507420  11.0082620
   7.1851160  29.9258500  10.7267070   5.7070280  29.6595400  10.9170120
  17.4854750  30.7146830   8.9237260  16.8018270  31.3845940   8.9153930
  18.0249040  30.9127480   8.1582120  18.9378890  20.5426490   7.0518990
  17.9903800  20.5765470   7.1834420  19.2628880  21.3565440   7.4368350
   9.4698430  16.8423670   5.3474980   9.7773410  16.2870560   4.6310480
   8.5399130  16.9768130   5.1647970  15.0213490  32.5590960   7.6382440
  15.0340650  32.1553250   6.7704700  14.4688710  33.3338250   7.5343870
  16.3158910  29.2807180   2.7272610  16.2055240  28.3381510   2.8522030
  16.3127160  29.6422820   3.6135370  14.4198930  27.4620800   8.9665050
  14.8367720  27.2480910   8.1318510  15.1438750  27.7193590   9.5373670
  11.8579190  24.9072500   2.0835100  10.9308470  24.8409880   2.3123570
  12.0104010  25.8452630   1.9690340  18.3661030  25.8608020   9.0581290
  17.5379660  25.9301110   8.5831420  18.9611510  26.4462330   8.5897120
  15.8876480  26.4692800   2.5870350  15.2688900  26.1312350   1.9396650
  15.8700930  25.8252560   3.2949540  15.3303040  22.6477340  10.0036160
  14.9174220  23.4731050  10.2576150  14.5978990  22.0622380   9.8112520
   7.4635830  25.4337240   4.8654830   7.0592830  24.7214490   4.3700730
   7.5498950  25.0890480   5.7542870   7.9317530  29.1204800   7.0294040
   7.6345820  28.5150270   6.3501820   8.8817350  29.1582110   6.9183400
   6.1764450  22.2080450   8.6453870   6.7279040  22.3175790   7.8707120
   6.6907960  22.5818050   9.3609100  16.0203140  32.6936670  10.6917140
  15.5433700  33.5008860  10.4989750  15.3364930  32.0415000  10.8443350
   7.0235960  28.8586490  13.6801840   6.1264490  29.0826460  13.9275240
   7.0488830  28.9821430  12.7313240   5.8507180  25.7299810  12.2559210
   5.7114950  26.6022610  12.6246610   4.9688540  25.3872620  12.1107150
  12.1736560  30.6475680   3.5624340  12.6132470  31.3900010   3.1479730
  12.1123450  30.8902250   4.4863300   7.6487530  31.6721510  14.4644360
   7.6202960  32.0764460  13.5972790   7.4852500  30.7431870  14.3015960
   4.1640460  24.3282220   2.3661480   4.0438060  25.0544310   1.7542750
   3.8541350  23.5585130   1.8889390  19.6002350  32.4548610  15.7608530
  20.0762070  32.9331500  16.4397610  20.2209510  32.3866100  15.0354030
   1.8025830  27.4997360   8.1730120   1.8806250  27.6346130   7.2285840
   2.4167510  26.7913250   8.3658240   3.0473460  29.1997550   4.5836300
   2.6401540  29.3412140   3.7289900   3.9386470  28.9157710   4.3807510
  19.0035600  29.6461460  12.9208540  19.1298660  29.4073340  12.0025720
  19.0456980  28.8146000  13.3930620  12.8652340  33.3489460  11.4903350
  13.3797010  33.2597470  12.2925780  12.0221420  33.6949160  11.7831260
   7.3195120  33.4143330   2.6958970   7.1437600  32.4978870   2.4826770
   6.4650860  33.7730620   2.9356770  14.1082800  32.7695070   3.5533840
  14.5639750  31.9884450   3.8672460  14.4475320  33.4801890   4.0975020
  18.8559610  21.6993920  13.8858280  18.2403880  22.2073590  13.3573740
  18.5356030  20.7992250  13.8284220   1.8585350  28.5411530  10.7124580
   2.0216390  28.0716890   9.8943950   2.3237800  28.0335090  11.3773420
   6.6304120  17.6717290   5.7485150   6.1872270  18.4526830   5.4169670
   7.1889110  17.9947180   6.4556090  10.9173930  20.5385810  11.3520470
  10.4553300  20.7468830  12.1640410  10.5152040  19.7245160  11.0491140
  15.9178440  21.7594760  12.4817130  15.0672030  21.4600510  12.8026200
  15.7580230  22.0036770  11.5700950  13.0128150  23.2596510  14.5815920
  13.3381560  22.4260260  14.2418150  13.8008480  23.7825030  14.7294250
   8.6680020  18.2164620   7.6074750   8.9652350  19.1227450   7.5266770
   9.2165580  17.7283400   6.9934320   6.4218340  22.7950860   3.4766400
   6.1959260  22.5788030   4.3813020   5.6410870  23.2279320   3.1312370
  13.6516100  22.8014230   2.0757050  13.0524990  23.5250030   1.8920670
  14.1995710  22.7391010   1.2933500   8.8617550  23.6936440  14.1426670
   8.7661150  22.7531170  13.9927070   9.7049530  23.9151510  13.7474740
  12.2580970  21.4377770   4.1060330  12.6510540  21.7549970   3.2929020
  12.6197820  20.5589650   4.2204850   3.9928090  20.1050110  12.2960450
   3.5991480  20.9525320  12.5033230   3.3046490  19.4676480  12.4869090
  10.5673140  20.1885080  15.3657190   9.8771460  19.9957280  16.0003280
  11.3105440  20.4719720  15.8981490  12.8436110  24.0283520   8.2011110
  12.1117230  24.5370330   8.5501210  12.4460450  23.2113500   7.8999890
   9.2813500  20.7037720   6.6063600   9.2849560  20.2627670   5.7568140
  10.1764620  21.0255050   6.7135420   5.1315880  20.5864210   5.5657810
   4.7915930  21.0639440   6.3224860   4.3693200  20.1329330   5.2058910
  13.3062020  19.4817200   7.6134050  13.3234760  19.9325850   8.4575900
  13.0577600  18.5822840   7.8267490  16.7332770  16.8949380  13.4520430
  17.0578540  16.1639040  13.9778410  16.7689280  16.5763020  12.5501420
   3.4324330  27.9162960  12.8720390   3.0479120  27.2756630  13.4703350
   3.7436520  28.6199080  13.4415120   9.5821470  24.7639500   8.3529010
   9.9491600  24.2898070   9.0990350   9.3926530  25.6381070   8.6937350
   2.4461960  19.5083190   4.4822480   2.1608880  19.1438860   5.3201100
   2.3840820  18.7763650   3.8685620   7.3720840  23.8048140  10.6713220
   7.0677910  24.6840120  10.8963580   8.3267300  23.8647930  10.7070660
  16.6590610  27.0074490   7.0606460  17.3789730  27.5029780   6.6702570
  16.4572430  26.3292380   6.4160330  12.0409410  27.0783550  12.9475460
  11.9746720  26.1579220  12.6933050  11.4114550  27.1758990  13.6620100
   5.9440030  27.6789510   4.9058880   6.4618700  26.8757770   4.8515770
   5.4924050  27.6168650   5.7475710   3.4284570  24.6450880  11.8184580
   3.0699510  25.3104730  12.4057920   3.1339130  23.8134430  12.1897200
   6.6297690  25.1035120  14.7024130   6.3297830  25.2492300  13.8051950
   7.4008930  24.5440410  14.6097520  11.9726140  29.9004120  12.6979260
  11.9870680  28.9685080  12.4798170  11.2651240  29.9863880  13.3369030
  18.1837350  26.5411460  12.0447840  17.4585540  27.1340240  11.8477230
  18.7112810  26.5335000  11.2461210  13.7136940  28.2671630   5.5431690
  14.0660760  27.6699760   4.8833060  12.8299270  27.9415860   5.7139940
   9.8000220  29.0269320   2.9502100  10.4871350  29.5738530   3.3309690
   9.0132640  29.5710050   2.9851710   9.1027430  26.0315350   2.5627460
   9.5590210  26.8420600   2.7887650   8.7515640  25.7138490   3.3945950
  11.4060040  31.5421690   9.7919760  12.0502260  31.7481070  10.4693180
  11.7689480  30.7810090   9.3390610   5.0039210  16.3753000   3.0349980
   4.8753840  16.3670900   3.9834900   4.1801230  16.7136090   2.6840990
  12.6792120  29.5454040   8.5097210  13.3214350  28.8447200   8.6229380
  13.2041470  30.3252480   8.3294100  14.4529740  30.3448940  11.7133270
  14.7885980  30.9315630  12.3911190  13.5330080  30.2141650  11.9431060
   2.2905730  32.1224380  13.4823210   2.3996850  31.1819120  13.3418600
   1.6386290  32.3879130  12.8336940  10.2818320  30.3940270  14.8821330
   9.9615190  29.6749510  15.4267020   9.6076680  31.0695340  14.9557390
  13.4971920  20.6266430  10.2458130  13.8652740  19.8061640  10.5737700
  12.6370120  20.6868320  10.6613780   8.8317980  21.8609320   2.4703570
   8.1234130  22.3295660   2.9117180   9.1162460  21.2031330   3.1048760
  10.4573910  23.2806020  10.4696100  10.9559160  23.7551840  11.1347950
  10.5996860  22.3569540  10.6766130  12.8633410  18.5859980   3.9099360
  12.7401190  18.6046110   2.9608870  13.8117970  18.6338920   4.0297760
   9.9510200  33.8215280   3.1827340  10.2051700  33.7836670   2.2606710
   9.0022680  33.6948610   3.1755590  17.6640770  19.4973980  11.3124490
  17.1614370  20.2379380  11.6518300  18.4797430  19.8857980  10.9961280
  15.9562780  24.7407160   4.7585850  15.0152920  24.7557390   4.9333540
  16.2706850  23.9543120   5.2046150  17.9588360  31.9116010   6.4340110
  18.0835780  32.7347180   6.9063920  18.8253920  31.7006740   6.0864260
   5.4305890  34.0047220   6.1057240   6.1668370  33.4562680   6.3765810
   5.8146810  34.8703230   5.9663230   4.4364170  33.1893290  15.2942820
   5.2376900  33.5105340  15.7078220   3.9215990  32.8288870  16.0162730
  13.2728800  29.2973160  15.2418230  12.6666960  29.3204760  14.5013980
  12.9682910  28.5656200  15.7785480  14.7029170  33.0253450  13.8527640
  15.6550920  32.9411470  13.8027880  14.5557390  33.6895160  14.5261430
   9.2099920  27.0837740  13.7714390   8.4445590  27.6522740  13.6869060
   9.3915880  26.7913950  12.8782620  16.3523270  28.8143070  14.3289410
  17.0932740  29.1518830  13.8256870  15.5895950  28.9835130  13.7759180
   4.1885060  23.8196340  15.1328940   4.2290400  23.5210210  16.0414170
   5.0430560  24.2203950  14.9736460   6.1290870  22.3988440  13.1003430
   5.5987330  21.9079390  12.4726770   6.7978940  22.8272640  12.5661360
  15.0268930  26.8657900  12.8644620  15.4409950  27.0202980  13.7135040
  14.0919930  26.9913120  13.0270400  15.4991100  24.2054060  14.8683770
  16.0811870  23.4506380  14.7804250  15.6752870  24.7361500  14.0915250
   6.6163170  19.3650810  13.1800720   6.5220040  18.7471560  12.4551590
   6.0360560  20.0917100  12.9530630   9.3824610  17.9224050  10.2128110
   8.9341910  17.9448310   9.3673660   8.7489810  17.5243070  10.8098410
   9.7884160  26.8178380  10.8340550  10.2072270  27.6611110  10.6616790
   8.8692790  26.9550420  10.6047330  12.1248060  24.5494560  12.2178390
  12.2444270  23.9535700  12.9573230  12.9842060  24.5864250  11.7979690
  14.4635960  25.1031750  10.7940900  13.9371180  25.6274370  10.1906040
  14.8067300  25.7359140  11.4250630   7.6391580  33.1231390  11.9498280
   7.1012670  33.8477450  11.6306980   7.8925540  32.6461730  11.1595620
   8.8916830  21.0915910  13.4754210   9.4816520  20.7831760  14.1632030
   8.0737070  20.6195660  13.6314110  13.7110260  20.7081720  13.7087230
  13.0225780  20.0463260  13.6437220  14.4316280  20.2619990  14.1535690
  10.4953790  34.3582600  12.2084930  10.4212490  35.2617740  12.5157300
   9.5932630  34.0394500  12.1807000   1.8981080  31.6857190   5.5118550
   2.2284090  30.8178250   5.2797190   2.3272080  31.8915710   6.3423510
   6.4943000  30.0166200   3.1720520   6.1938540  29.8931170   4.0724430
   6.3880490  29.1574790   2.7636250   2.3871290  32.5527780   8.2500180
   1.9502280  32.7328580   9.0824330   2.9548970  33.3102400   8.1081900
  18.0233470  32.0544780  12.5377490  17.4235460  32.1137340  11.7941410
  18.1527370  31.1149760  12.6674340   2.2195720  25.0648010   4.6089060
   1.5644560  24.7959650   3.9648760   3.0573670  24.9552490   4.1591040
  19.7251350  27.3960180   5.2223330  20.0960180  26.6127500   4.8159300
  20.3653280  28.0849280   5.0440630  16.7085110  28.7796760  10.6353650
  15.8944950  29.2093920  10.8979440  17.1159310  29.3915170  10.0222700
  18.6675890  24.7713440   2.5283350  18.2919490  24.0041370   2.0964640
  17.9379010  25.1536140   3.0158280   3.2571650  25.4500580   9.1492400
   3.6244690  25.3627980  10.0288420   2.6882470  24.6867130   9.0499260
  18.0575510  23.9184960  12.1622870  17.8261600  23.6897710  11.2620820
  18.3180060  24.8384510  12.1167760   2.8087650  22.3609670  13.0550820
   1.9143700  22.3276430  13.3944530   3.3485200  22.5596460  13.8202070
  16.4963580  19.1441390  14.9402570  17.3733760  19.1524790  15.3236570
  16.5084420  18.4072230  14.3294920  17.9426850  22.9970930   5.8290590
  18.4664330  22.5033580   5.1980760  18.5286270  23.1321290   6.5738160
  18.1216570  23.0810800   9.3510140  17.1719280  23.0474340   9.4655130
  18.3029580  23.9910910   9.1159910  17.4326820  22.2544280   1.7683000
  17.9285940  22.0215150   2.5531880  17.2342890  21.4156120   1.3520640
   3.3127360  16.6358000   7.4034040   3.9603550  16.0855380   6.9629200
   3.7329200  16.8901150   8.2249850  18.8613980  20.8905230   4.3020680
  18.7513260  20.7361270   5.2402950  19.6221570  20.3626170   4.0596090
  17.2079700  16.8299360  10.7603680  17.8451920  17.4433500  11.1262870
  17.3554590  16.8660020   9.8152910  16.7661160  33.5315360   4.1621920
  17.3620230  33.2099930   3.4856340  17.0239310  33.0587180   4.9535190
   3.0659360  16.7913670  10.1459360   2.7174180  17.2477490  10.9117540
   2.7347060  15.8970800  10.2281790   4.6723730  29.9633270  14.3112550
   4.6293360  29.5926180  15.1927010   4.8034740  30.9010840  14.4514370
   8.3729760  31.5192860   9.9122270   8.1321120  31.7867420   9.0252790
   9.3132400  31.6898590   9.9673130  10.5784180  17.9825550  13.6678780
  10.5173070  18.5747380  14.4174190  11.5184560  17.8751510  13.5229040
  13.2158740  17.6395610  13.3071070  13.8299150  17.9574900  12.6452150
  13.7608300  17.1544200  13.9266930  19.6333920  33.5387240  10.7132910
  19.1392200  33.9356110   9.9960040  19.0247210  32.9136450  11.1070190
   3.7380000  16.3189870  13.4210130   4.2862990  16.1377920  12.6576240
   3.8035310  15.5283980  13.9566440   4.5111760  32.9095520  11.4310330
   3.9172080  32.7780220  12.1700370   4.5035600  32.0733660  10.9652430
  13.9566780  16.2027750   9.6340360  13.0826620  16.5362860   9.4313290
  13.8477530  15.7300930  10.4592230  14.8638760  18.4098620  11.0182080
  14.5352120  17.5950380  10.6383810  15.8121060  18.3668430  10.8947770
  17.3173370  34.1810660   7.9919650  16.8576340  34.9326470   7.6177670
  16.6885830  33.4617130   7.9334450   4.1423990  30.2753900  10.3818370
   3.4158050  29.6559190  10.3144320   4.2033140  30.6694510   9.5116450
   7.7469090  32.4898900   7.1667780   8.2634110  31.8786260   6.6416040
   8.3966470  32.9927680   7.6578790  10.4864590  33.3807390   7.9936760
  10.7742400  33.1261690   7.1169770  10.9987810  32.8284750   8.5842330
  11.7041600  17.1197590   8.5733270  10.9213390  17.5943090   8.8530030
  11.4104530  16.2152420   8.4646450  16.2562670  17.8220690   6.6182360
  16.6970760  17.7665790   5.7703960  15.9870260  18.7378700   6.6892540
  18.1201240  17.4535930   4.6291180  18.0589640  16.5097150   4.4822200
  18.8993270  17.5616020   5.1744640   2.4253990  33.5928290   3.5915130
   2.2576030  32.9598970   4.2897020   1.5588500  33.7987690   3.2409320
   9.5895820  19.5384340   4.0849300   8.7770330  19.1641230   3.7445180
  10.0937460  18.7829420   4.3870490  14.0920800  16.2026790   5.3232370
  14.6950170  16.7747000   5.7980890  13.3513790  16.7666230   5.1006270
   7.6145000  17.6884260   2.6894350   6.9847740  16.9871570   2.8564480
   7.0750140  18.4488390   2.4727510  10.5536950  34.3023490  15.3604960
  11.4804260  34.0667760  15.4040920  10.5387380  35.1295490  14.8790990
  18.7882010  33.8449060   2.3579210  18.9634200  33.1586800   1.7140130
  18.0903580  34.3696110   1.9655880   7.7400560  16.9668240  15.1246840
   7.4584830  17.4701840  14.3607660   8.1220260  16.1689990  14.7588970
  14.3416020  16.3821820  15.7027310  14.2281470  16.7016430  16.5978830
  15.1585760  16.7834330  15.4064590  17.1214510  33.5293350  15.1846000
  17.9139830  33.0342580  14.9771960  17.4147660  34.2083490  15.7921610
  13.2474170   5.6270800  61.1636010  13.1668220   4.7125410  60.8927720
  12.8338590   6.1237870  60.4575720  11.3792210   7.4049820  63.0445280
  10.6034310   6.9250260  63.3343850  12.0305140   6.7255470  62.8701440
   5.3958040   7.7169630  63.9221040   4.5642920   7.4618340  64.3217550
   6.0039020   7.7880400  64.6578960  15.3999640  11.8110010  61.8244410
  14.9381170  11.0397250  62.1531580  16.2125190  11.8376080  62.3296860
   5.3759300  11.7509720  64.1179060   5.6787340  10.8607460  63.9389280
   6.1202890  12.3079940  63.8901310   3.8049990   2.6771520  57.7063430
   2.9166690   3.0187490  57.6043310   4.0891180   2.4771840  56.8144260
   1.7683000   5.2777170  63.5903130   2.3399110   4.5099370  63.5906770
   1.7684540   5.5765930  62.6809740  11.6262950  14.0968020  61.4448400
  11.0074390  14.5525520  60.8742840  12.4814730  14.2519480  61.0438100
  10.8201200  10.0807010  63.0515440  10.7509480   9.1396950  62.8904570
  11.5821060  10.1708420  63.6238010  11.8506370   2.8877390  63.2784370
  12.2271190   2.0149270  63.1658040  11.7525880   3.2236090  62.3874810
   3.6294540   3.1822030  63.9854400   4.3104650   3.4460400  64.6041800
   3.3142590   2.3422900  64.3192410   7.8219110   4.2289390  63.0726990
   8.3297330   4.7270360  63.7132010   8.3532350   3.4524590  62.8966350
  19.9230040   2.3994580  66.7756340  19.2182210   2.7876290  66.2571450
  20.1887960   3.0944870  67.3777270  12.4926300   8.9807260  58.8380310
  11.8743570   9.4456710  58.2743030  13.0049550   9.6734740  59.2549820
   7.3558060   8.5083130  65.5163910   7.0227440   9.1352050  66.1584980
   7.5324740   9.0345010  64.7365580  15.8691970   2.3228210  62.9840250
  15.1647540   2.6113100  63.5643360  16.2304130   3.1328320  62.6239810
   6.5677160  10.4763930  67.3313090   7.1851160  11.1515010  67.0497540
   5.7070280  10.8851910  67.2400590   1.8609500   9.6663790  56.2119940
   1.4837480  10.1550890  55.4804840   2.1182570  10.3389070  56.8426470
  17.4854750  11.9403340  65.2467730  16.8018270  12.6102450  65.2384400
  18.0249040  12.1383990  64.4812590  18.9378890   1.7683000  63.3749460
  17.9903800   1.8021980  63.5064890  19.2628880   2.5821950  63.7598820
  15.0213490  13.7847470  63.9612910  15.0340650  13.3809760  63.0935170
  14.4688710  14.5594760  63.8574340  16.3158910  10.5063690  59.0503080
  16.2055240   9.5638020  59.1752500  16.3127160  10.8679330  59.9365840
  14.4198930   8.6877310  65.2895520  14.8367720   8.4737420  64.4548980
  15.1438750   8.9450100  65.8604140  11.8579190   6.1329010  58.4065570
  10.9308470   6.0666390  58.6354040  12.0104010   7.0709140  58.2920810
  11.8448270   2.4046010  55.4032730  10.9051940   2.5659970  55.4885190
  12.1631530   3.1231690  54.8568720  18.3661030   7.0864530  65.3811760
  17.5379660   7.1557620  64.9061890  18.9611510   7.6718840  64.9127590
  15.8876480   7.6949310  58.9100820  15.2688900   7.3568860  58.2627120
  15.8700930   7.0509070  59.6180010  15.3303040   3.8733850  66.3266630
  14.9174220   4.6987560  66.5806620  14.5978990   3.2878890  66.1342990
   7.4635830   6.6593750  61.1885300   7.0592830   5.9471000  60.6931200
   7.5498950   6.3146990  62.0773340   7.9317530  10.3461310  63.3524510
   7.6345820   9.7406780  62.6732290   8.8817350  10.3838620  63.2413870
   6.1764450   3.4336960  64.9684340   6.7279040   3.5432300  64.1937590
   6.6907960   3.8074560  65.6839570  16.0203140  13.9193180  67.0147610
  15.5433700  14.7265370  66.8220220  15.3364930  13.2671510  67.1673820
  14.0641180   6.9336120  55.9173570  14.5034460   6.0958550  55.7711390
  14.7769600   7.5665520  56.0037710  12.1736560  11.8732190  59.8854810
  12.6132470  12.6156520  59.4710200  12.1123450  12.1158760  60.8093770
   4.1640460   5.5538730  58.6891950   4.0438060   6.2800820  58.0773220
   3.8541350   4.7841640  58.2119860   1.8025830   8.7253870  64.4960590
   1.8806250   8.8602640  63.5516310   2.4167510   8.0169760  64.6888710
   3.0473460  10.4254060  60.9066770   2.6401540  10.5668650  60.0520370
   3.9386470  10.1414220  60.7037980  14.8406740  14.8601310  57.2417820
  14.6807880  14.5704250  58.1399650  14.6753450  14.0841440  56.7063050
   7.3195120  14.6399840  59.0189440   7.1437600  13.7235380  58.8057240
   6.4650860  14.9987130  59.2587240  14.5432870  12.3688870  55.8015820
  13.8498030  12.3666160  55.1418100  15.2855730  11.9448190  55.3709990
  14.1082800  13.9951580  59.8764310  14.5639750  13.2140960  60.1902930
  14.4475320  14.7058400  60.4205490   1.8585350   9.7668040  67.0355050
   2.0216390   9.2973400  66.2174420   2.3237800   9.2591600  67.7003890
   6.4218340   4.0207370  59.7996870   6.1959260   3.8044540  60.7043490
   5.6410870   4.4535830  59.4542840  13.6516100   4.0270740  58.3987520
  13.0524990   4.7506540  58.2151140  14.1995710   3.9647520  57.6163970
  12.2580970   2.6634280  60.4290800  12.6510540   2.9806480  59.6159490
  12.6197820   1.7846160  60.5435320  12.8436110   5.2540030  64.5241580
  12.1117230   5.7626840  64.8731680  12.4460450   4.4370010  64.2230360
   9.3433650   2.9306310  55.9200830   9.4646470   2.8892790  56.8686650
   8.9582160   3.7930460  55.7647560   8.3555150   5.2407450  55.3184130
   7.7872050   4.7925700  54.6920040   9.0644150   5.6000230  54.7849280
   9.5821470   5.9896010  64.6759480   9.9491600   5.5154580  65.4220820
   9.3926530   6.8637580  65.0167820   7.3720840   5.0304650  66.9943690
   7.0677910   5.9096630  67.2194050   8.3267300   5.0904440  67.0301130
   5.9002630   9.2365640  57.5910540   5.1264890   8.6963260  57.4309260
   6.6297260   8.7172250  57.2528300  16.6590610   8.2331000  63.3836930
  17.3789730   8.7286290  62.9933040  16.4572430   7.5548890  62.7390800
  14.8348940   3.9988610  55.8228480  15.7228560   4.3105840  55.6479820
  14.8054030   3.1260860  55.4309060   5.9440030   8.9046020  61.2289350
   6.4618700   8.1014280  61.1746240   5.4924050   8.8425160  62.0706180
  10.8309530  10.1712300  56.5016650  11.1725230  10.9154530  56.0059970
  10.0022240  10.4843420  56.8641480  17.1063210   5.3100450  55.2908340
  17.0226930   5.7414670  54.4404780  17.8257400   5.7698800  55.7235160
  18.1350460  12.1642710  58.0190470  17.4926620  11.5098330  58.2934190
  17.7481120  12.5697800  57.2431140  13.7136940   9.4928140  61.8662160
  14.0660760   8.8956270  61.2063530  12.8299270   9.1672370  62.0370410
   9.8000220  10.2525830  59.2732570  10.4871350  10.7995040  59.6540160
   9.0132640  10.7966560  59.3082180   9.1027430   7.2571860  58.8857930
   9.5590210   8.0677110  59.1118120   8.7515640   6.9395000  59.7176420
  11.4060040  12.7678200  66.1150230  12.0502260  12.9737580  66.7923650
  11.7689480  12.0066600  65.6621080  12.6792120  10.7710550  64.8327680
  13.3214350  10.0703710  64.9459850  13.2041470  11.5508990  64.6524570
  16.5247840  11.0559170  54.5566820  16.2985420  10.3389610  55.1491460
  16.1344040  10.8071610  53.7188570   2.3063870  15.0826030  55.3311280
   2.6661510  15.6815370  54.6768550   2.1656210  15.6285920  56.1046310
  16.1064090   8.9731110  56.2180980  15.8185790   9.4343800  57.0058860
  16.9016260   8.5128880  56.4865200   8.3232490  12.4657230  56.1484950
   8.3142590  13.1986920  55.5329460   7.4030850  12.2188810  56.2411910
   3.9239130   7.6872120  56.8931710   3.3167080   8.4271020  56.9027010
   4.3988480   7.7771480  56.0669910  11.3092090  12.5285470  54.8110140
  11.4104070  12.3249460  53.8812120  10.4093830  12.2743750  55.0157920
   8.8317980   3.0865830  58.7934040   8.1234130   3.5552170  59.2347650
   9.1162460   2.4287840  59.4279230  10.4573910   4.5062530  66.7926570
  10.9559160   4.9808350  67.4578420  10.5996860   3.5826050  66.9996600
   9.9510200  15.0471790  59.5057810  10.2051700  15.0093180  58.5837180
   9.0022680  14.9205120  59.4986060  15.9562780   5.9663670  61.0816320
  15.0152920   5.9813900  61.2564010  16.2706850   5.1799630  61.5276620
   5.9344420   7.6483270  54.6420280   6.7007690   7.5364630  55.2045710
   6.0119110   6.9521240  53.9897050   4.6291180   5.0808340  55.3253170
   4.7094770   4.1335850  55.4370570   5.5210930   5.4115220  55.4313830
  17.9588360  13.1372520  62.7570580  18.0835780  13.9603690  63.2294390
  18.8253920  12.9263250  62.4094730   5.4305890  15.2303730  62.4287710
   6.1668370  14.6819190  62.6996280   5.8146810  16.0959740  62.2893700
   8.5408200  14.4034040  54.2513280   9.3336810  14.6922870  53.7995070
   8.0212550  13.9726210  53.5725760  17.5938370  13.6304170  55.6750020
  17.3079880  13.2169310  54.8604200  17.3957920  14.5591880  55.5550540
   9.0585600   9.6237450  54.1155630   8.9536240   9.0089800  54.8417010
   8.8909820   9.1003340  53.3318640  12.2988330   8.6857480  54.7197620
  11.7498430   9.1326780  55.3640360  12.9207590   8.1806730  55.2435290
   7.9663450   7.6448400  56.6162920   8.3879870   7.4788270  57.4594310
   8.0914290   6.8348630  56.1218060  10.4791090   6.6686010  53.8640020
  10.9996750   5.9535030  53.4981170  11.1259490   7.3071880  54.1640530
   9.7884160   8.0434890  67.1571020  10.2072270   8.8867620  66.9847260
   8.8692790   8.1806930  66.9277800  14.4635960   6.3288260  67.1171370
  13.9371180   6.8530880  66.5136510  14.8067300   6.9615650  67.7481100
   6.8622350   3.7181630  53.5621080   6.6611410   2.8548990  53.9234420
   6.6914400   3.6314990  52.6242680  11.0439120  14.7497620  56.1541760
  11.9389910  15.0882590  56.1760520  11.0756750  14.0277030  55.5266040
   4.6835280  10.1224670  54.3828760   5.1210150  10.6654340  55.0386340
   5.1683010   9.2971620  54.3925100   1.8981080  12.9113700  61.8349020
   2.2284090  12.0434760  61.6027660   2.3272080  13.1172220  62.6653980
   6.4943000  11.2422710  59.4950990   6.1938540  11.1187680  60.3954900
   6.3880490  10.3831300  59.0866720   2.3871290  13.7784290  64.5730650
   1.9502280  13.9585090  65.4054800   2.9548970  14.5358910  64.4312370
  19.2634920  11.0219110  54.1977670  18.4327880  11.0895760  54.6684900
  19.4406750  11.9123230  53.8944530  18.7191380   7.7666590  56.7011870
  19.4810290   8.3363240  56.8071560  18.7345750   7.1993790  57.4720180
   2.2195720   6.2904520  60.9319530   1.5644560   6.0216160  60.2879230
   3.0573670   6.1809000  60.4821510  19.7251350   8.6216690  61.5453800
  20.0960180   7.8384010  61.1389770  20.3653280   9.3105790  61.3671100
  16.7085110  10.0053270  66.9584120  15.8944950  10.4350430  67.2209910
  17.1159310  10.6171680  66.3453170  18.7710550   8.0600960  53.8584390
  19.0459390   8.9679840  53.7303610  18.5821290   7.9963490  54.7946380
  18.6675890   5.9969950  58.8513820  18.2919490   5.2297880  58.4195110
  17.9379010   6.3792650  59.3388750   3.2571650   6.6757090  65.4722870
   3.6244690   6.5884490  66.3518890   2.6882470   5.9123640  65.3729730
  17.9426850   4.2227440  62.1521060  18.4664330   3.7290090  61.5211230
  18.5286270   4.3577800  62.8968630  18.1216570   4.3067310  65.6740610
  17.1719280   4.2730850  65.7885600  18.3029580   5.2167420  65.4390380
   3.9761010   2.5568990  54.7839240   4.6852710   2.1352210  54.2986520
   3.2600950   2.6244220  54.1522590  17.4326820   3.4800790  58.0913470
  17.9285940   3.2471660  58.8762350  17.2342890   2.6412630  57.6751110
  18.8613980   2.1161740  60.6251150  18.7513260   1.9617780  61.5633420
  19.6221570   1.5882680  60.3826560  16.7661160  14.7571870  60.4852390
  17.3620230  14.4356440  59.8086810  17.0239310  14.2843690  61.2765660
   8.3729760  12.7449370  66.2352740   8.1321120  13.0123930  65.3483260
   9.3132400  12.9155100  66.2903600  19.6333920  14.7643750  67.0363380
  19.1392200  15.1612620  66.3190510  19.0247210  14.1392960  67.4300660
  17.3173370  15.4067170  64.3150120  16.8576340  16.1582980  63.9408140
  16.6885830  14.6873640  64.2564920   4.1423990  11.5010410  66.7048840
   3.4158050  10.8815700  66.6374790   4.2033140  11.8951020  65.8346920
   7.7469090  13.7155410  63.4898250   8.2634110  13.1042770  62.9646510
   8.3966470  14.2184190  63.9809260  10.4864590  14.6063900  64.3167230
  10.7742400  14.3518200  63.4400240  10.9987810  14.0541260  64.9072800
   2.4253990  14.8184800  59.9145600   2.2576030  14.1855480  60.6127490
   1.5588500  15.0244200  59.5639790   4.0316690  13.5118030  57.3595740
   3.5064310  13.8926060  56.6557700   3.9561270  14.1368800  58.0805450
  18.7882010  15.0705570  58.6809680  18.9634200  14.3843310  58.0370600
  18.0903580  15.5952620  58.2886350   6.6309660  15.4600410  56.2344990
   7.3628480  15.1759690  55.6868880   6.8903330  15.2213690  57.1244370
   5.7924450  11.5765140  56.2391320   5.1633330  12.0450240  56.7877150
   5.9072280  10.7314360  56.6737510  13.2474170   5.6270800  42.3892520
  13.1668220   4.7125410  42.1184230  12.8338590   6.1237870  41.6832230
  11.3792210   7.4049820  44.2701790  10.6034310   6.9250260  44.5600360
  12.0305140   6.7255470  44.0957950   5.3958040   7.7169630  45.1477550
   4.5642920   7.4618340  45.5474060   6.0039020   7.7880400  45.8835470
  15.3999640  11.8110010  43.0500920  14.9381170  11.0397250  43.3788090
  16.2125190  11.8376080  43.5553370   5.3759300  11.7509720  45.3435570
   5.6787340  10.8607460  45.1645790   6.1202890  12.3079940  45.1157820
   3.8049990   2.6771520  38.9319940   2.9166690   3.0187490  38.8299820
   4.0891180   2.4771840  38.0400770   1.7683000   5.2777170  44.8159640
   2.3399110   4.5099370  44.8163280   1.7684540   5.5765930  43.9066250
  11.6262950  14.0968020  42.6704910  11.0074390  14.5525520  42.0999350
  12.4814730  14.2519480  42.2694610  10.8201200  10.0807010  44.2771950
  10.7509480   9.1396950  44.1161080  11.5821060  10.1708420  44.8494520
  11.8506370   2.8877390  44.5040880  12.2271190   2.0149270  44.3914550
  11.7525880   3.2236090  43.6131320   3.6294540   3.1822030  45.2110910
   4.3104650   3.4460400  45.8298310   3.3142590   2.3422900  45.5448920
   7.8219110   4.2289390  44.2983500   8.3297330   4.7270360  44.9388520
   8.3532350   3.4524590  44.1222860  19.9230040   2.3994580  48.0012850
  19.2182210   2.7876290  47.4827960  20.1887960   3.0944870  48.6033780
  12.4926300   8.9807260  40.0636820  11.8743570   9.4456710  39.4999540
  13.0049550   9.6734740  40.4806330   7.3558060   8.5083130  46.7420420
   7.0227440   9.1352050  47.3841490   7.5324740   9.0345010  45.9622090
  15.8691970   2.3228210  44.2096760  15.1647540   2.6113100  44.7899870
  16.2304130   3.1328320  43.8496320   6.5677160  10.4763930  48.5569600
   7.1851160  11.1515010  48.2754050   5.7070280  10.8851910  48.4657100
   1.8609500   9.6663790  37.4376450   1.4837480  10.1550890  36.7061350
   2.1182570  10.3389070  38.0682980  17.4854750  11.9403340  46.4724240
  16.8018270  12.6102450  46.4640910  18.0249040  12.1383990  45.7069100
  18.9378890   1.7683000  44.6005970  17.9903800   1.8021980  44.7321400
  19.2628880   2.5821950  44.9855330  15.0213490  13.7847470  45.1869420
  15.0340650  13.3809760  44.3191680  14.4688710  14.5594760  45.0830850
  16.3158910  10.5063690  40.2759590  16.2055240   9.5638020  40.4009010
  16.3127160  10.8679330  41.1622350  14.4198930   8.6877310  46.5152030
  14.8367720   8.4737420  45.6805490  15.1438750   8.9450100  47.0860650
  11.8579190   6.1329010  39.6322080  10.9308470   6.0666390  39.8610550
  12.0104010   7.0709140  39.5177320  11.8448270   2.4046010  36.6289240
  10.9051940   2.5659970  36.7141700  12.1631530   3.1231690  36.0825230
  18.3661030   7.0864530  46.6068270  17.5379660   7.1557620  46.1318400
  18.9611510   7.6718840  46.1384100  15.8876480   7.6949310  40.1357330
  15.2688900   7.3568860  39.4883630  15.8700930   7.0509070  40.8436520
  15.3303040   3.8733850  47.5523140  14.9174220   4.6987560  47.8063130
  14.5978990   3.2878890  47.3599500   7.4635830   6.6593750  42.4141810
   7.0592830   5.9471000  41.9187710   7.5498950   6.3146990  43.3029850
   7.9317530  10.3461310  44.5781020   7.6345820   9.7406780  43.8988800
   8.8817350  10.3838620  44.4670380   6.1764450   3.4336960  46.1940850
   6.7279040   3.5432300  45.4194100   6.6907960   3.8074560  46.9096080
  16.0203140  13.9193180  48.2404120  15.5433700  14.7265370  48.0476730
  15.3364930  13.2671510  48.3930330   7.0235960  10.0843000  51.2288820
   6.1264490  10.3082970  51.4762220   7.0488830  10.2077940  50.2800220
  14.0641180   6.9336120  37.1430080  14.5034460   6.0958550  36.9967900
  14.7769600   7.5665520  37.2294220   5.8507180   6.9556320  49.8046190
   5.7114950   7.8279120  50.1733590   4.9688540   6.6129130  49.6594130
  12.1736560  11.8732190  41.1111320  12.6132470  12.6156520  40.6966710
  12.1123450  12.1158760  42.0350280   7.6487530  12.8978020  52.0131340
   7.6202960  13.3020970  51.1459770   7.4852500  11.9688380  51.8502940
   4.1640460   5.5538730  39.9148460   4.0438060   6.2800820  39.3029730
   3.8541350   4.7841640  39.4376370  19.6002350  13.6805120  53.3095510
  20.0762070  14.1588010  53.9884590  20.2209510  13.6122610  52.5841010
   1.8025830   8.7253870  45.7217100   1.8806250   8.8602640  44.7772820
   2.4167510   8.0169760  45.9145220   3.0473460  10.4254060  42.1323280
   2.6401540  10.5668650  41.2776880   3.9386470  10.1414220  41.9294490
  19.0035600  10.8717970  50.4695520  19.1298660  10.6329850  49.5512700
  19.0456980  10.0402510  50.9417600  12.8652340  14.5745970  49.0390330
  13.3797010  14.4853980  49.8412760  12.0221420  14.9205670  49.3318240
  14.8406740  14.8601310  38.4674330  14.6807880  14.5704250  39.3656160
  14.6753450  14.0841440  37.9319560   7.3195120  14.6399840  40.2445950
   7.1437600  13.7235380  40.0313750   6.4650860  14.9987130  40.4843750
  14.5432870  12.3688870  37.0272330  13.8498030  12.3666160  36.3674610
  15.2855730  11.9448190  36.5966500  14.1082800  13.9951580  41.1020820
  14.5639750  13.2140960  41.4159440  14.4475320  14.7058400  41.6462000
  18.8559610   2.9250430  51.4345260  18.2403880   3.4330100  50.9060720
  18.5356030   2.0248760  51.3771200   1.8585350   9.7668040  48.2611560
   2.0216390   9.2973400  47.4430930   2.3237800   9.2591600  48.9260400
  15.9178440   2.9851270  50.0304110  15.0672030   2.6857020  50.3513180
  15.7580230   3.2293280  49.1187930  13.0128150   4.4853020  52.1302900
  13.3381560   3.6516770  51.7905130  13.8008480   5.0081540  52.2781230
   6.4218340   4.0207370  41.0253380   6.1959260   3.8044540  41.9300000
   5.6410870   4.4535830  40.6799350  13.6516100   4.0270740  39.6244030
  13.0524990   4.7506540  39.4407650  14.1995710   3.9647520  38.8420480
   8.8617550   4.9192950  51.6913650   8.7661150   3.9787680  51.5414050
   9.7049530   5.1408020  51.2961720  12.2580970   2.6634280  41.6547310
  12.6510540   2.9806480  40.8416000  12.6197820   1.7846160  41.7691830
  12.8436110   5.2540030  45.7498090  12.1117230   5.7626840  46.0988190
  12.4460450   4.4370010  45.4486870   9.3433650   2.9306310  37.1457340
   9.4646470   2.8892790  38.0943160   8.9582160   3.7930460  36.9904070
   8.3555150   5.2407450  36.5440640   7.7872050   4.7925700  35.9176550
   9.0644150   5.6000230  36.0105790   3.4324330   9.1419470  50.4207370
   3.0479120   8.5013140  51.0190330   3.7436520   9.8455590  50.9902100
   9.5821470   5.9896010  45.9015990   9.9491600   5.5154580  46.6477330
   9.3926530   6.8637580  46.2424330   7.3720840   5.0304650  48.2200200
   7.0677910   5.9096630  48.4450560   8.3267300   5.0904440  48.2557640
   5.9002630   9.2365640  38.8167050   5.1264890   8.6963260  38.6565770
   6.6297260   8.7172250  38.4784810  16.6590610   8.2331000  44.6093440
  17.3789730   8.7286290  44.2189550  16.4572430   7.5548890  43.9647310
  12.0409410   8.3040060  50.4962440  11.9746720   7.3835730  50.2420030
  11.4114550   8.4015500  51.2107080  14.8348940   3.9988610  37.0484990
  15.7228560   4.3105840  36.8736330  14.8054030   3.1260860  36.6565570
   5.9440030   8.9046020  42.4545860   6.4618700   8.1014280  42.4002750
   5.4924050   8.8425160  43.2962690  10.8309530  10.1712300  37.7273160
  11.1725230  10.9154530  37.2316480  10.0022240  10.4843420  38.0897990
   3.4284570   5.8707390  49.3671560   3.0699510   6.5361240  49.9544900
   3.1339130   5.0390940  49.7384180   6.6297690   6.3291630  52.2511110
   6.3297830   6.4748810  51.3538930   7.4008930   5.7696920  52.1584500
  11.9726140  11.1260630  50.2466240  11.9870680  10.1941590  50.0285150
  11.2651240  11.2120390  50.8856010  17.1063210   5.3100450  36.5164850
  17.0226930   5.7414670  35.6661290  17.8257400   5.7698800  36.9491670
  18.1837350   7.7667970  49.5934820  17.4585540   8.3596750  49.3964210
  18.7112810   7.7591510  48.7948190  18.1350460  12.1642710  39.2446980
  17.4926620  11.5098330  39.5190700  17.7481120  12.5697800  38.4687650
  13.7136940   9.4928140  43.0918670  14.0660760   8.8956270  42.4320040
  12.8299270   9.1672370  43.2626920   9.8000220  10.2525830  40.4989080
  10.4871350  10.7995040  40.8796670   9.0132640  10.7966560  40.5338690
   9.1027430   7.2571860  40.1114440   9.5590210   8.0677110  40.3374630
   8.7515640   6.9395000  40.9432930  11.4060040  12.7678200  47.3406740
  12.0502260  12.9737580  48.0180160  11.7689480  12.0066600  46.8877590
  12.6792120  10.7710550  46.0584190  13.3214350  10.0703710  46.1716360
  13.2041470  11.5508990  45.8781080  16.5247840  11.0559170  35.7823330
  16.2985420  10.3389610  36.3747970  16.1344040  10.8071610  34.9445080
  14.4529740  11.5705450  49.2620250  14.7885980  12.1572140  49.9398170
  13.5330080  11.4398160  49.4918040   2.3063870  15.0826030  36.5567790
   2.6661510  15.6815370  35.9025060   2.1656210  15.6285920  37.3302820
  16.1064090   8.9731110  37.4437490  15.8185790   9.4343800  38.2315370
  16.9016260   8.5128880  37.7121710   2.2905730  13.3480890  51.0310190
   2.3996850  12.4075630  50.8905580   1.6386290  13.6135640  50.3823920
  10.2818320  11.6196780  52.4308310   9.9615190  10.9006020  52.9754000
   9.6076680  12.2951850  52.5044370   8.3232490  12.4657230  37.3741460
   8.3142590  13.1986920  36.7585970   7.4030850  12.2188810  37.4668420
   3.9239130   7.6872120  38.1188220   3.3167080   8.4271020  38.1283520
   4.3988480   7.7771480  37.2926420  11.3092090  12.5285470  36.0366650
  11.4104070  12.3249460  35.1068630  10.4093830  12.2743750  36.2414430
   8.8317980   3.0865830  40.0190550   8.1234130   3.5552170  40.4604160
   9.1162460   2.4287840  40.6535740  10.4573910   4.5062530  48.0183080
  10.9559160   4.9808350  48.6834930  10.5996860   3.5826050  48.2253110
   9.9510200  15.0471790  40.7314320  10.2051700  15.0093180  39.8093690
   9.0022680  14.9205120  40.7242570  15.9562780   5.9663670  42.3072830
  15.0152920   5.9813900  42.4820520  16.2706850   5.1799630  42.7533130
   5.9344420   7.6483270  35.8676790   6.7007690   7.5364630  36.4302220
   6.0119110   6.9521240  35.2153560   4.6291180   5.0808340  36.5509680
   4.7094770   4.1335850  36.6627080   5.5210930   5.4115220  36.6570340
  17.9588360  13.1372520  43.9827090  18.0835780  13.9603690  44.4550900
  18.8253920  12.9263250  43.6351240   5.4305890  15.2303730  43.6544220
   6.1668370  14.6819190  43.9252790   5.8146810  16.0959740  43.5150210
   4.4364170  14.4149800  52.8429800   5.2376900  14.7361850  53.2565200
   3.9215990  14.0545380  53.5649710   8.5408200  14.4034040  35.4769790
   9.3336810  14.6922870  35.0251580   8.0212550  13.9726210  34.7982270
  13.2728800  10.5229670  52.7905210  12.6666960  10.5461270  52.0500960
  12.9682910   9.7912710  53.3272460  14.7029170  14.2509960  51.4014620
  15.6550920  14.1667980  51.3514860  14.5557390  14.9151670  52.0748410
  17.5938370  13.6304170  36.9006530  17.3079880  13.2169310  36.0860710
  17.3957920  14.5591880  36.7807050   9.0585600   9.6237450  35.3412140
   8.9536240   9.0089800  36.0673520   8.8909820   9.1003340  34.5575150
   9.2099920   8.3094250  51.3201370   8.4445590   8.8779250  51.2356040
   9.3915880   8.0170460  50.4269600  12.2988330   8.6857480  35.9454130
  11.7498430   9.1326780  36.5896870  12.9207590   8.1806730  36.4691800
  16.3523270  10.0399580  51.8776390  17.0932740  10.3775340  51.3743850
  15.5895950  10.2091640  51.3246160   4.1885060   5.0452850  52.6815920
   4.2290400   4.7466720  53.5901150   5.0430560   5.4460460  52.5223440
   7.9663450   7.6448400  37.8419430   8.3879870   7.4788270  38.6850820
   8.0914290   6.8348630  37.3474570   6.1290870   3.6244950  50.6490410
   5.5987330   3.1335900  50.0213750   6.7978940   4.0529150  50.1148340
  10.4791090   6.6686010  35.0896530  10.9996750   5.9535030  34.7237680
  11.1259490   7.3071880  35.3897040  15.0268930   8.0914410  50.4131600
  15.4409950   8.2459490  51.2622020  14.0919930   8.2169630  50.5757380
  15.4991100   5.4310570  52.4170750  16.0811870   4.6762890  52.3291230
  15.6752870   5.9618010  51.6402230   9.7884160   8.0434890  48.3827530
  10.2072270   8.8867620  48.2103770   8.8692790   8.1806930  48.1534310
  12.1248060   5.7751070  49.7665370  12.2444270   5.1792210  50.5060210
  12.9842060   5.8120760  49.3466670  14.4635960   6.3288260  48.3427880
  13.9371180   6.8530880  47.7393020  14.8067300   6.9615650  48.9737610
   6.8622350   3.7181630  34.7877590   6.6611410   2.8548990  35.1490930
   6.6914400   3.6314990  33.8499190   7.6391580  14.3487900  49.4985260
   7.1012670  15.0733960  49.1793960   7.8925540  13.8718240  48.7082600
   8.8916830   2.3172420  51.0241190   9.4816520   2.0088270  51.7119010
   8.0737070   1.8452170  51.1801090  10.4953790  15.5839110  49.7571910
  10.4212490  16.4874250  50.0644280   9.5932630  15.2651010  49.7293980
  11.0439120  14.7497620  37.3798270  11.9389910  15.0882590  37.4017030
  11.0756750  14.0277030  36.7522550   4.6835280  10.1224670  35.6085270
   5.1210150  10.6654340  36.2642850   5.1683010   9.2971620  35.6181610
   1.8981080  12.9113700  43.0605530   2.2284090  12.0434760  42.8284170
   2.3272080  13.1172220  43.8910490   6.4943000  11.2422710  40.7207500
   6.1938540  11.1187680  41.6211410   6.3880490  10.3831300  40.3123230
   2.3871290  13.7784290  45.7987160   1.9502280  13.9585090  46.6311310
   2.9548970  14.5358910  45.6568880  18.0233470  13.2801290  50.0864470
  17.4235460  13.3393850  49.3428390  18.1527370  12.3406270  50.2161320
  19.2634920  11.0219110  35.4234180  18.4327880  11.0895760  35.8941410
  19.4406750  11.9123230  35.1201040  18.7191380   7.7666590  37.9268380
  19.4810290   8.3363240  38.0328070  18.7345750   7.1993790  38.6976690
   2.2195720   6.2904520  42.1576040   1.5644560   6.0216160  41.5135740
   3.0573670   6.1809000  41.7078020  19.7251350   8.6216690  42.7710310
  20.0960180   7.8384010  42.3646280  20.3653280   9.3105790  42.5927610
  16.7085110  10.0053270  48.1840630  15.8944950  10.4350430  48.4466420
  17.1159310  10.6171680  47.5709680  18.7710550   8.0600960  35.0840900
  19.0459390   8.9679840  34.9560120  18.5821290   7.9963490  36.0202890
  18.6675890   5.9969950  40.0770330  18.2919490   5.2297880  39.6451620
  17.9379010   6.3792650  40.5645260   3.2571650   6.6757090  46.6979380
   3.6244690   6.5884490  47.5775400   2.6882470   5.9123640  46.5986240
  18.0575510   5.1441470  49.7109850  17.8261600   4.9154220  48.8107800
  18.3180060   6.0641020  49.6654740   2.8087650   3.5866180  50.6037800
   1.9143700   3.5532940  50.9431510   3.3485200   3.7852970  51.3689050
  17.9426850   4.2227440  43.3777570  18.4664330   3.7290090  42.7467740
  18.5286270   4.3577800  44.1225140  18.1216570   4.3067310  46.8997120
  17.1719280   4.2730850  47.0142110  18.3029580   5.2167420  46.6646890
   3.9761010   2.5568990  36.0095750   4.6852710   2.1352210  35.5243030
   3.2600950   2.6244220  35.3779100  17.4326820   3.4800790  39.3169980
  17.9285940   3.2471660  40.1018860  17.2342890   2.6412630  38.9007620
  18.8613980   2.1161740  41.8507660  18.7513260   1.9617780  42.7889930
  19.6221570   1.5882680  41.6083070  16.7661160  14.7571870  41.7108900
  17.3620230  14.4356440  41.0343320  17.0239310  14.2843690  42.5022170
   4.6723730  11.1889780  51.8599530   4.6293360  10.8182690  52.7413990
   4.8034740  12.1267350  52.0001350   8.3729760  12.7449370  47.4609250
   8.1321120  13.0123930  46.5739770   9.3132400  12.9155100  47.5160110
  19.6333920  14.7643750  48.2619890  19.1392200  15.1612620  47.5447020
  19.0247210  14.1392960  48.6557170   4.5111760  14.1352030  48.9797310
   3.9172080  14.0036730  49.7187350   4.5035600  13.2990170  48.5139410
  17.3173370  15.4067170  45.5406630  16.8576340  16.1582980  45.1664650
  16.6885830  14.6873640  45.4821430   4.1423990  11.5010410  47.9305350
   3.4158050  10.8815700  47.8631300   4.2033140  11.8951020  47.0603430
   7.7469090  13.7155410  44.7154760   8.2634110  13.1042770  44.1903020
   8.3966470  14.2184190  45.2065770  10.4864590  14.6063900  45.5423740
  10.7742400  14.3518200  44.6656750  10.9987810  14.0541260  46.1329310
   2.4253990  14.8184800  41.1402110   2.2576030  14.1855480  41.8384000
   1.5588500  15.0244200  40.7896300   4.0316690  13.5118030  38.5852250
   3.5064310  13.8926060  37.8814210   3.9561270  14.1368800  39.3061960
  10.5536950  15.5280000  52.9091940  11.4804260  15.2924270  52.9527900
  10.5387380  16.3552000  52.4277970  18.7882010  15.0705570  39.9066190
  18.9634200  14.3843310  39.2627110  18.0903580  15.5952620  39.5142860
   6.6309660  15.4600410  37.4601500   7.3628480  15.1759690  36.9125390
   6.8903330  15.2213690  38.3500880   5.7924450  11.5765140  37.4647830
   5.1633330  12.0450240  38.0133660   5.9072280  10.7314360  37.8994020
  17.1214510  14.7549860  52.7332980  17.9139830  14.2599090  52.5258940
  17.4147660  15.4340000  53.3408590  13.2474170   5.6270800  23.6149030
  13.1668220   4.7125410  23.3440740  12.8338590   6.1237870  22.9088740
  11.3792210   7.4049820  25.4958300  10.6034310   6.9250260  25.7856870
  12.0305140   6.7255470  25.3214460   5.3958040   7.7169630  26.3734060
   4.5642920   7.4618340  26.7730570   6.0039020   7.7880400  27.1091980
  15.3999640  11.8110010  24.2757430  14.9381170  11.0397250  24.6044600
  16.2125190  11.8376080  24.7809880   5.3759300  11.7509720  26.5692080
   5.6787340  10.8607460  26.3902300   6.1202890  12.3079940  26.3414330
   3.8049990   2.6771520  20.1576450   2.9166690   3.0187490  20.0556330
   4.0891180   2.4771840  19.2657280   1.7683000   5.2777170  26.0416150
   2.3399110   4.5099370  26.0419790   1.7684540   5.5765930  25.1322760
  11.6262950  14.0968020  23.8961420  11.0074390  14.5525520  23.3255860
  12.4814730  14.2519480  23.4951120  10.8201200  10.0807010  25.5028460
  10.7509480   9.1396950  25.3417590  11.5821060  10.1708420  26.0751030
  11.8506370   2.8877390  25.7297390  12.2271190   2.0149270  25.6171060
  11.7525880   3.2236090  24.8387830   3.6294540   3.1822030  26.4367420
   4.3104650   3.4460400  27.0554820   3.3142590   2.3422900  26.7705430
   7.8219110   4.2289390  25.5240010   8.3297330   4.7270360  26.1645030
   8.3532350   3.4524590  25.3479370  19.9230040   2.3994580  29.2269360
  19.2182210   2.7876290  28.7084470  20.1887960   3.0944870  29.8290290
  12.4926300   8.9807260  21.2893330  11.8743570   9.4456710  20.7256050
  13.0049550   9.6734740  21.7062840   7.3558060   8.5083130  27.9676930
   7.0227440   9.1352050  28.6098000   7.5324740   9.0345010  27.1878600
  15.8691970   2.3228210  25.4353270  15.1647540   2.6113100  26.0156380
  16.2304130   3.1328320  25.0752830   6.5677160  10.4763930  29.7826110
   7.1851160  11.1515010  29.5010560   5.7070280  10.8851910  29.6913610
   1.8609500   9.6663790  18.6632960   1.4837480  10.1550890  17.9317860
   2.1182570  10.3389070  19.2939490  17.4854750  11.9403340  27.6980750
  16.8018270  12.6102450  27.6897420  18.0249040  12.1383990  26.9325610
  18.9378890   1.7683000  25.8262480  17.9903800   1.8021980  25.9577910
  19.2628880   2.5821950  26.2111840  15.0213490  13.7847470  26.4125930
  15.0340650  13.3809760  25.5448190  14.4688710  14.5594760  26.3087360
  16.3158910  10.5063690  21.5016100  16.2055240   9.5638020  21.6265520
  16.3127160  10.8679330  22.3878860  14.4198930   8.6877310  27.7408540
  14.8367720   8.4737420  26.9062000  15.1438750   8.9450100  28.3117160
  11.8579190   6.1329010  20.8578590  10.9308470   6.0666390  21.0867060
  12.0104010   7.0709140  20.7433830  11.8448270   2.4046010  17.8545750
  10.9051940   2.5659970  17.9398210  12.1631530   3.1231690  17.3081740
  18.3661030   7.0864530  27.8324780  17.5379660   7.1557620  27.3574910
  18.9611510   7.6718840  27.3640610  15.8876480   7.6949310  21.3613840
  15.2688900   7.3568860  20.7140140  15.8700930   7.0509070  22.0693030
  15.3303040   3.8733850  28.7779650  14.9174220   4.6987560  29.0319640
  14.5978990   3.2878890  28.5856010   7.4635830   6.6593750  23.6398320
   7.0592830   5.9471000  23.1444220   7.5498950   6.3146990  24.5286360
   7.9317530  10.3461310  25.8037530   7.6345820   9.7406780  25.1245310
   8.8817350  10.3838620  25.6926890   6.1764450   3.4336960  27.4197360
   6.7279040   3.5432300  26.6450610   6.6907960   3.8074560  28.1352590
  16.0203140  13.9193180  29.4660630  15.5433700  14.7265370  29.2733240
  15.3364930  13.2671510  29.6186840   7.0235960  10.0843000  32.4545330
   6.1264490  10.3082970  32.7018730   7.0488830  10.2077940  31.5056730
  14.0641180   6.9336120  18.3686590  14.5034460   6.0958550  18.2224410
  14.7769600   7.5665520  18.4550730   5.8507180   6.9556320  31.0302700
   5.7114950   7.8279120  31.3990100   4.9688540   6.6129130  30.8850640
  12.1736560  11.8732190  22.3367830  12.6132470  12.6156520  21.9223220
  12.1123450  12.1158760  23.2606790   7.6487530  12.8978020  33.2387850
   7.6202960  13.3020970  32.3716280   7.4852500  11.9688380  33.0759450
   4.1640460   5.5538730  21.1404970   4.0438060   6.2800820  20.5286240
   3.8541350   4.7841640  20.6632880  19.6002350  13.6805120  34.5352020
  20.0762070  14.1588010  35.2141100  20.2209510  13.6122610  33.8097520
   1.8025830   8.7253870  26.9473610   1.8806250   8.8602640  26.0029330
   2.4167510   8.0169760  27.1401730   3.0473460  10.4254060  23.3579790
   2.6401540  10.5668650  22.5033390   3.9386470  10.1414220  23.1551000
  19.0035600  10.8717970  31.6952030  19.1298660  10.6329850  30.7769210
  19.0456980  10.0402510  32.1674110  12.8652340  14.5745970  30.2646840
  13.3797010  14.4853980  31.0669270  12.0221420  14.9205670  30.5574750
  14.8406740  14.8601310  19.6930840  14.6807880  14.5704250  20.5912670
  14.6753450  14.0841440  19.1576070   7.3195120  14.6399840  21.4702460
   7.1437600  13.7235380  21.2570260   6.4650860  14.9987130  21.7100260
  14.5432870  12.3688870  18.2528840  13.8498030  12.3666160  17.5931120
  15.2855730  11.9448190  17.8223010  14.1082800  13.9951580  22.3277330
  14.5639750  13.2140960  22.6415950  14.4475320  14.7058400  22.8718510
  18.8559610   2.9250430  32.6601770  18.2403880   3.4330100  32.1317230
  18.5356030   2.0248760  32.6027710   1.8585350   9.7668040  29.4868070
   2.0216390   9.2973400  28.6687440   2.3237800   9.2591600  30.1516910
  15.9178440   2.9851270  31.2560620  15.0672030   2.6857020  31.5769690
  15.7580230   3.2293280  30.3444440  13.0128150   4.4853020  33.3559410
  13.3381560   3.6516770  33.0161640  13.8008480   5.0081540  33.5037740
   6.4218340   4.0207370  22.2509890   6.1959260   3.8044540  23.1556510
   5.6410870   4.4535830  21.9055860  13.6516100   4.0270740  20.8500540
  13.0524990   4.7506540  20.6664160  14.1995710   3.9647520  20.0676990
   8.8617550   4.9192950  32.9170160   8.7661150   3.9787680  32.7670560
   9.7049530   5.1408020  32.5218230  12.2580970   2.6634280  22.8803820
  12.6510540   2.9806480  22.0672510  12.6197820   1.7846160  22.9948340
  12.8436110   5.2540030  26.9754600  12.1117230   5.7626840  27.3244700
  12.4460450   4.4370010  26.6743380   9.3433650   2.9306310  18.3713850
   9.4646470   2.8892790  19.3199670   8.9582160   3.7930460  18.2160580
   8.3555150   5.2407450  17.7697150   7.7872050   4.7925700  17.1433060
   9.0644150   5.6000230  17.2362300   3.4324330   9.1419470  31.6463880
   3.0479120   8.5013140  32.2446840   3.7436520   9.8455590  32.2158610
   9.5821470   5.9896010  27.1272500   9.9491600   5.5154580  27.8733840
   9.3926530   6.8637580  27.4680840   7.3720840   5.0304650  29.4456710
   7.0677910   5.9096630  29.6707070   8.3267300   5.0904440  29.4814150
   5.9002630   9.2365640  20.0423560   5.1264890   8.6963260  19.8822280
   6.6297260   8.7172250  19.7041320  16.6590610   8.2331000  25.8349950
  17.3789730   8.7286290  25.4446060  16.4572430   7.5548890  25.1903820
  12.0409410   8.3040060  31.7218950  11.9746720   7.3835730  31.4676540
  11.4114550   8.4015500  32.4363590  14.8348940   3.9988610  18.2741500
  15.7228560   4.3105840  18.0992840  14.8054030   3.1260860  17.8822080
   5.9440030   8.9046020  23.6802370   6.4618700   8.1014280  23.6259260
   5.4924050   8.8425160  24.5219200  10.8309530  10.1712300  18.9529670
  11.1725230  10.9154530  18.4572990  10.0022240  10.4843420  19.3154500
   3.4284570   5.8707390  30.5928070   3.0699510   6.5361240  31.1801410
   3.1339130   5.0390940  30.9640690   6.6297690   6.3291630  33.4767620
   6.3297830   6.4748810  32.5795440   7.4008930   5.7696920  33.3841010
  11.9726140  11.1260630  31.4722750  11.9870680  10.1941590  31.2541660
  11.2651240  11.2120390  32.1112520  17.1063210   5.3100450  17.7421360
  17.0226930   5.7414670  16.8917800  17.8257400   5.7698800  18.1748180
  18.1837350   7.7667970  30.8191330  17.4585540   8.3596750  30.6220720
  18.7112810   7.7591510  30.0204700  18.1350460  12.1642710  20.4703490
  17.4926620  11.5098330  20.7447210  17.7481120  12.5697800  19.6944160
  13.7136940   9.4928140  24.3175180  14.0660760   8.8956270  23.6576550
  12.8299270   9.1672370  24.4883430   9.8000220  10.2525830  21.7245590
  10.4871350  10.7995040  22.1053180   9.0132640  10.7966560  21.7595200
   9.1027430   7.2571860  21.3370950   9.5590210   8.0677110  21.5631140
   8.7515640   6.9395000  22.1689440  11.4060040  12.7678200  28.5663250
  12.0502260  12.9737580  29.2436670  11.7689480  12.0066600  28.1134100
  12.6792120  10.7710550  27.2840700  13.3214350  10.0703710  27.3972870
  13.2041470  11.5508990  27.1037590  16.5247840  11.0559170  17.0079840
  16.2985420  10.3389610  17.6004480  16.1344040  10.8071610  16.1701590
  14.4529740  11.5705450  30.4876760  14.7885980  12.1572140  31.1654680
  13.5330080  11.4398160  30.7174550   2.3063870  15.0826030  17.7824300
   2.6661510  15.6815370  17.1281570   2.1656210  15.6285920  18.5559330
  16.1064090   8.9731110  18.6694000  15.8185790   9.4343800  19.4571880
  16.9016260   8.5128880  18.9378220   2.2905730  13.3480890  32.2566700
   2.3996850  12.4075630  32.1162090   1.6386290  13.6135640  31.6080430
  10.2818320  11.6196780  33.6564820   9.9615190  10.9006020  34.2010510
   9.6076680  12.2951850  33.7300880   8.3232490  12.4657230  18.5997970
   8.3142590  13.1986920  17.9842480   7.4030850  12.2188810  18.6924930
   3.9239130   7.6872120  19.3444730   3.3167080   8.4271020  19.3540030
   4.3988480   7.7771480  18.5182930  11.3092090  12.5285470  17.2623160
  11.4104070  12.3249460  16.3325140  10.4093830  12.2743750  17.4670940
   8.8317980   3.0865830  21.2447060   8.1234130   3.5552170  21.6860670
   9.1162460   2.4287840  21.8792250  10.4573910   4.5062530  29.2439590
  10.9559160   4.9808350  29.9091440  10.5996860   3.5826050  29.4509620
   9.9510200  15.0471790  21.9570830  10.2051700  15.0093180  21.0350200
   9.0022680  14.9205120  21.9499080  15.9562780   5.9663670  23.5329340
  15.0152920   5.9813900  23.7077030  16.2706850   5.1799630  23.9789640
   5.9344420   7.6483270  17.0933300   6.7007690   7.5364630  17.6558730
   6.0119110   6.9521240  16.4410070   4.6291180   5.0808340  17.7766190
   4.7094770   4.1335850  17.8883590   5.5210930   5.4115220  17.8826850
  17.9588360  13.1372520  25.2083600  18.0835780  13.9603690  25.6807410
  18.8253920  12.9263250  24.8607750   5.4305890  15.2303730  24.8800730
   6.1668370  14.6819190  25.1509300   5.8146810  16.0959740  24.7406720
   4.4364170  14.4149800  34.0686310   5.2376900  14.7361850  34.4821710
   3.9215990  14.0545380  34.7906220   8.5408200  14.4034040  16.7026300
   9.3336810  14.6922870  16.2508090   8.0212550  13.9726210  16.0238780
  13.2728800  10.5229670  34.0161720  12.6666960  10.5461270  33.2757470
  12.9682910   9.7912710  34.5528970  14.7029170  14.2509960  32.6271130
  15.6550920  14.1667980  32.5771370  14.5557390  14.9151670  33.3004920
  17.5938370  13.6304170  18.1263040  17.3079880  13.2169310  17.3117220
  17.3957920  14.5591880  18.0063560   9.0585600   9.6237450  16.5668650
   8.9536240   9.0089800  17.2930030   8.8909820   9.1003340  15.7831660
   9.2099920   8.3094250  32.5457880   8.4445590   8.8779250  32.4612550
   9.3915880   8.0170460  31.6526110  12.2988330   8.6857480  17.1710640
  11.7498430   9.1326780  17.8153380  12.9207590   8.1806730  17.6948310
  16.3523270  10.0399580  33.1032900  17.0932740  10.3775340  32.6000360
  15.5895950  10.2091640  32.5502670   4.1885060   5.0452850  33.9072430
   4.2290400   4.7466720  34.8157660   5.0430560   5.4460460  33.7479950
   7.9663450   7.6448400  19.0675940   8.3879870   7.4788270  19.9107330
   8.0914290   6.8348630  18.5731080   6.1290870   3.6244950  31.8746920
   5.5987330   3.1335900  31.2470260   6.7978940   4.0529150  31.3404850
  10.4791090   6.6686010  16.3153040  10.9996750   5.9535030  15.9494190
  11.1259490   7.3071880  16.6153550  15.0268930   8.0914410  31.6388110
  15.4409950   8.2459490  32.4878530  14.0919930   8.2169630  31.8013890
  15.4991100   5.4310570  33.6427260  16.0811870   4.6762890  33.5547740
  15.6752870   5.9618010  32.8658740   9.7884160   8.0434890  29.6084040
  10.2072270   8.8867620  29.4360280   8.8692790   8.1806930  29.3790820
  12.1248060   5.7751070  30.9921880  12.2444270   5.1792210  31.7316720
  12.9842060   5.8120760  30.5723180  14.4635960   6.3288260  29.5684390
  13.9371180   6.8530880  28.9649530  14.8067300   6.9615650  30.1994120
   6.8622350   3.7181630  16.0134100   6.6611410   2.8548990  16.3747440
   6.6914400   3.6314990  15.0755700   7.6391580  14.3487900  30.7241770
   7.1012670  15.0733960  30.4050470   7.8925540  13.8718240  29.9339110
   8.8916830   2.3172420  32.2497700   9.4816520   2.0088270  32.9375520
   8.0737070   1.8452170  32.4057600  10.4953790  15.5839110  30.9828420
  10.4212490  16.4874250  31.2900790   9.5932630  15.2651010  30.9550490
  11.0439120  14.7497620  18.6054780  11.9389910  15.0882590  18.6273540
  11.0756750  14.0277030  17.9779060   4.6835280  10.1224670  16.8341780
   5.1210150  10.6654340  17.4899360   5.1683010   9.2971620  16.8438120
   1.8981080  12.9113700  24.2862040   2.2284090  12.0434760  24.0540680
   2.3272080  13.1172220  25.1167000   6.4943000  11.2422710  21.9464010
   6.1938540  11.1187680  22.8467920   6.3880490  10.3831300  21.5379740
   2.3871290  13.7784290  27.0243670   1.9502280  13.9585090  27.8567820
   2.9548970  14.5358910  26.8825390  18.0233470  13.2801290  31.3120980
  17.4235460  13.3393850  30.5684900  18.1527370  12.3406270  31.4417830
  19.2634920  11.0219110  16.6490690  18.4327880  11.0895760  17.1197920
  19.4406750  11.9123230  16.3457550  18.7191380   7.7666590  19.1524890
  19.4810290   8.3363240  19.2584580  18.7345750   7.1993790  19.9233200
   2.2195720   6.2904520  23.3832550   1.5644560   6.0216160  22.7392250
   3.0573670   6.1809000  22.9334530  19.7251350   8.6216690  23.9966820
  20.0960180   7.8384010  23.5902790  20.3653280   9.3105790  23.8184120
  16.7085110  10.0053270  29.4097140  15.8944950  10.4350430  29.6722930
  17.1159310  10.6171680  28.7966190  18.7710550   8.0600960  16.3097410
  19.0459390   8.9679840  16.1816630  18.5821290   7.9963490  17.2459400
  18.6675890   5.9969950  21.3026840  18.2919490   5.2297880  20.8708130
  17.9379010   6.3792650  21.7901770   3.2571650   6.6757090  27.9235890
   3.6244690   6.5884490  28.8031910   2.6882470   5.9123640  27.8242750
  18.0575510   5.1441470  30.9366360  17.8261600   4.9154220  30.0364310
  18.3180060   6.0641020  30.8911250   2.8087650   3.5866180  31.8294310
   1.9143700   3.5532940  32.1688020   3.3485200   3.7852970  32.5945560
  17.9426850   4.2227440  24.6034080  18.4664330   3.7290090  23.9724250
  18.5286270   4.3577800  25.3481650  18.1216570   4.3067310  28.1253630
  17.1719280   4.2730850  28.2398620  18.3029580   5.2167420  27.8903400
   3.9761010   2.5568990  17.2352260   4.6852710   2.1352210  16.7499540
   3.2600950   2.6244220  16.6035610  17.4326820   3.4800790  20.5426490
  17.9285940   3.2471660  21.3275370  17.2342890   2.6412630  20.1264130
  18.8613980   2.1161740  23.0764170  18.7513260   1.9617780  24.0146440
  19.6221570   1.5882680  22.8339580  16.7661160  14.7571870  22.9365410
  17.3620230  14.4356440  22.2599830  17.0239310  14.2843690  23.7278680
   4.6723730  11.1889780  33.0856040   4.6293360  10.8182690  33.9670500
   4.8034740  12.1267350  33.2257860   8.3729760  12.7449370  28.6865760
   8.1321120  13.0123930  27.7996280   9.3132400  12.9155100  28.7416620
  19.6333920  14.7643750  29.4876400  19.1392200  15.1612620  28.7703530
  19.0247210  14.1392960  29.8813680   4.5111760  14.1352030  30.2053820
   3.9172080  14.0036730  30.9443860   4.5035600  13.2990170  29.7395920
  17.3173370  15.4067170  26.7663140  16.8576340  16.1582980  26.3921160
  16.6885830  14.6873640  26.7077940   4.1423990  11.5010410  29.1561860
   3.4158050  10.8815700  29.0887810   4.2033140  11.8951020  28.2859940
   7.7469090  13.7155410  25.9411270   8.2634110  13.1042770  25.4159530
   8.3966470  14.2184190  26.4322280  10.4864590  14.6063900  26.7680250
  10.7742400  14.3518200  25.8913260  10.9987810  14.0541260  27.3585820
   2.4253990  14.8184800  22.3658620   2.2576030  14.1855480  23.0640510
   1.5588500  15.0244200  22.0152810   4.0316690  13.5118030  19.8108760
   3.5064310  13.8926060  19.1070720   3.9561270  14.1368800  20.5318470
  10.5536950  15.5280000  34.1348450  11.4804260  15.2924270  34.1784410
  10.5387380  16.3552000  33.6534480  18.7882010  15.0705570  21.1322700
  18.9634200  14.3843310  20.4883620  18.0903580  15.5952620  20.7399370
   6.6309660  15.4600410  18.6858010   7.3628480  15.1759690  18.1381900
   6.8903330  15.2213690  19.5757390   5.7924450  11.5765140  18.6904340
   5.1633330  12.0450240  19.2390170   5.9072280  10.7314360  19.1250530
  17.1214510  14.7549860  33.9589490  17.9139830  14.2599090  33.7515450
  17.4147660  15.4340000  34.5665100  13.2474170   5.6270800   4.8405540
  13.1668220   4.7125410   4.5697250  12.8338590   6.1237870   4.1345250
  11.3792210   7.4049820   6.7214810  10.6034310   6.9250260   7.0113380
  12.0305140   6.7255470   6.5470970   5.3958040   7.7169630   7.5990570
   4.5642920   7.4618340   7.9987080   6.0039020   7.7880400   8.3348490
  15.3999640  11.8110010   5.5013940  14.9381170  11.0397250   5.8301110
  16.2125190  11.8376080   6.0066390   5.3759300  11.7509720   7.7948590
   5.6787340  10.8607460   7.6158810   6.1202890  12.3079940   7.5670840
   1.7683000   5.2777170   7.2672660   2.3399110   4.5099370   7.2676300
   1.7684540   5.5765930   6.3579270  11.6262950  14.0968020   5.1217930
  11.0074390  14.5525520   4.5512370  12.4814730  14.2519480   4.7207630
  10.8201200  10.0807010   6.7284970  10.7509480   9.1396950   6.5674100
  11.5821060  10.1708420   7.3007540  11.8506370   2.8877390   6.9553900
  12.2271190   2.0149270   6.8427570  11.7525880   3.2236090   6.0644340
   3.6294540   3.1822030   7.6623930   4.3104650   3.4460400   8.2811330
   3.3142590   2.3422900   7.9961940   7.8219110   4.2289390   6.7496520
   8.3297330   4.7270360   7.3901540   8.3532350   3.4524590   6.5735880
  19.9230040   2.3994580  10.4525870  19.2182210   2.7876290   9.9340980
  20.1887960   3.0944870  11.0546800  12.4926300   8.9807260   2.5149840
  11.8743570   9.4456710   1.9512560  13.0049550   9.6734740   2.9319350
   7.3558060   8.5083130   9.1933440   7.0227440   9.1352050   9.8354510
   7.5324740   9.0345010   8.4135110  15.8691970   2.3228210   6.6609780
  15.1647540   2.6113100   7.2412890  16.2304130   3.1328320   6.3009340
   6.5677160  10.4763930  11.0082620   7.1851160  11.1515010  10.7267070
   5.7070280  10.8851910  10.9170120  17.4854750  11.9403340   8.9237260
  16.8018270  12.6102450   8.9153930  18.0249040  12.1383990   8.1582120
  18.9378890   1.7683000   7.0518990  17.9903800   1.8021980   7.1834420
  19.2628880   2.5821950   7.4368350  15.0213490  13.7847470   7.6382440
  15.0340650  13.3809760   6.7704700  14.4688710  14.5594760   7.5343870
  16.3158910  10.5063690   2.7272610  16.2055240   9.5638020   2.8522030
  16.3127160  10.8679330   3.6135370  14.4198930   8.6877310   8.9665050
  14.8367720   8.4737420   8.1318510  15.1438750   8.9450100   9.5373670
  11.8579190   6.1329010   2.0835100  10.9308470   6.0666390   2.3123570
  12.0104010   7.0709140   1.9690340  18.3661030   7.0864530   9.0581290
  17.5379660   7.1557620   8.5831420  18.9611510   7.6718840   8.5897120
  15.8876480   7.6949310   2.5870350  15.2688900   7.3568860   1.9396650
  15.8700930   7.0509070   3.2949540  15.3303040   3.8733850  10.0036160
  14.9174220   4.6987560  10.2576150  14.5978990   3.2878890   9.8112520
   7.4635830   6.6593750   4.8654830   7.0592830   5.9471000   4.3700730
   7.5498950   6.3146990   5.7542870   7.9317530  10.3461310   7.0294040
   7.6345820   9.7406780   6.3501820   8.8817350  10.3838620   6.9183400
   6.1764450   3.4336960   8.6453870   6.7279040   3.5432300   7.8707120
   6.6907960   3.8074560   9.3609100  16.0203140  13.9193180  10.6917140
  15.5433700  14.7265370  10.4989750  15.3364930  13.2671510  10.8443350
   7.0235960  10.0843000  13.6801840   6.1264490  10.3082970  13.9275240
   7.0488830  10.2077940  12.7313240   5.8507180   6.9556320  12.2559210
   5.7114950   7.8279120  12.6246610   4.9688540   6.6129130  12.1107150
  12.1736560  11.8732190   3.5624340  12.6132470  12.6156520   3.1479730
  12.1123450  12.1158760   4.4863300   7.6487530  12.8978020  14.4644360
   7.6202960  13.3020970  13.5972790   7.4852500  11.9688380  14.3015960
   4.1640460   5.5538730   2.3661480   4.0438060   6.2800820   1.7542750
   3.8541350   4.7841640   1.8889390  19.6002350  13.6805120  15.7608530
  20.0762070  14.1588010  16.4397610  20.2209510  13.6122610  15.0354030
   1.8025830   8.7253870   8.1730120   1.8806250   8.8602640   7.2285840
   2.4167510   8.0169760   8.3658240   3.0473460  10.4254060   4.5836300
   2.6401540  10.5668650   3.7289900   3.9386470  10.1414220   4.3807510
  19.0035600  10.8717970  12.9208540  19.1298660  10.6329850  12.0025720
  19.0456980  10.0402510  13.3930620  12.8652340  14.5745970  11.4903350
  13.3797010  14.4853980  12.2925780  12.0221420  14.9205670  11.7831260
   7.3195120  14.6399840   2.6958970   7.1437600  13.7235380   2.4826770
   6.4650860  14.9987130   2.9356770  14.1082800  13.9951580   3.5533840
  14.5639750  13.2140960   3.8672460  14.4475320  14.7058400   4.0975020
  18.8559610   2.9250430  13.8858280  18.2403880   3.4330100  13.3573740
  18.5356030   2.0248760  13.8284220   1.8585350   9.7668040  10.7124580
   2.0216390   9.2973400   9.8943950   2.3237800   9.2591600  11.3773420
  15.9178440   2.9851270  12.4817130  15.0672030   2.6857020  12.8026200
  15.7580230   3.2293280  11.5700950  13.0128150   4.4853020  14.5815920
  13.3381560   3.6516770  14.2418150  13.8008480   5.0081540  14.7294250
   6.4218340   4.0207370   3.4766400   6.1959260   3.8044540   4.3813020
   5.6410870   4.4535830   3.1312370  13.6516100   4.0270740   2.0757050
  13.0524990   4.7506540   1.8920670  14.1995710   3.9647520   1.2933500
   8.8617550   4.9192950  14.1426670   8.7661150   3.9787680  13.9927070
   9.7049530   5.1408020  13.7474740  12.2580970   2.6634280   4.1060330
  12.6510540   2.9806480   3.2929020  12.6197820   1.7846160   4.2204850
  12.8436110   5.2540030   8.2011110  12.1117230   5.7626840   8.5501210
  12.4460450   4.4370010   7.8999890   3.4324330   9.1419470  12.8720390
   3.0479120   8.5013140  13.4703350   3.7436520   9.8455590  13.4415120
   9.5821470   5.9896010   8.3529010   9.9491600   5.5154580   9.0990350
   9.3926530   6.8637580   8.6937350   7.3720840   5.0304650  10.6713220
   7.0677910   5.9096630  10.8963580   8.3267300   5.0904440  10.7070660
  16.6590610   8.2331000   7.0606460  17.3789730   8.7286290   6.6702570
  16.4572430   7.5548890   6.4160330  12.0409410   8.3040060  12.9475460
  11.9746720   7.3835730  12.6933050  11.4114550   8.4015500  13.6620100
   5.9440030   8.9046020   4.9058880   6.4618700   8.1014280   4.8515770
   5.4924050   8.8425160   5.7475710   3.4284570   5.8707390  11.8184580
   3.0699510   6.5361240  12.4057920   3.1339130   5.0390940  12.1897200
   6.6297690   6.3291630  14.7024130   6.3297830   6.4748810  13.8051950
   7.4008930   5.7696920  14.6097520  11.9726140  11.1260630  12.6979260
  11.9870680  10.1941590  12.4798170  11.2651240  11.2120390  13.3369030
  18.1837350   7.7667970  12.0447840  17.4585540   8.3596750  11.8477230
  18.7112810   7.7591510  11.2461210  13.7136940   9.4928140   5.5431690
  14.0660760   8.8956270   4.8833060  12.8299270   9.1672370   5.7139940
   9.8000220  10.2525830   2.9502100  10.4871350  10.7995040   3.3309690
   9.0132640  10.7966560   2.9851710   9.1027430   7.2571860   2.5627460
   9.5590210   8.0677110   2.7887650   8.7515640   6.9395000   3.3945950
  11.4060040  12.7678200   9.7919760  12.0502260  12.9737580  10.4693180
  11.7689480  12.0066600   9.3390610  12.6792120  10.7710550   8.5097210
  13.3214350  10.0703710   8.6229380  13.2041470  11.5508990   8.3294100
  14.4529740  11.5705450  11.7133270  14.7885980  12.1572140  12.3911190
  13.5330080  11.4398160  11.9431060   2.2905730  13.3480890  13.4823210
   2.3996850  12.4075630  13.3418600   1.6386290  13.6135640  12.8336940
  10.2818320  11.6196780  14.8821330   9.9615190  10.9006020  15.4267020
   9.6076680  12.2951850  14.9557390   8.8317980   3.0865830   2.4703570
   8.1234130   3.5552170   2.9117180   9.1162460   2.4287840   3.1048760
  10.4573910   4.5062530  10.4696100  10.9559160   4.9808350  11.1347950
  10.5996860   3.5826050  10.6766130   9.9510200  15.0471790   3.1827340
  10.2051700  15.0093180   2.2606710   9.0022680  14.9205120   3.1755590
  15.9562780   5.9663670   4.7585850  15.0152920   5.9813900   4.9333540
  16.2706850   5.1799630   5.2046150  17.9588360  13.1372520   6.4340110
  18.0835780  13.9603690   6.9063920  18.8253920  12.9263250   6.0864260
   5.4305890  15.2303730   6.1057240   6.1668370  14.6819190   6.3765810
   5.8146810  16.0959740   5.9663230   4.4364170  14.4149800  15.2942820
   5.2376900  14.7361850  15.7078220   3.9215990  14.0545380  16.0162730
  13.2728800  10.5229670  15.2418230  12.6666960  10.5461270  14.5013980
  12.9682910   9.7912710  15.7785480  14.7029170  14.2509960  13.8527640
  15.6550920  14.1667980  13.8027880  14.5557390  14.9151670  14.5261430
   9.2099920   8.3094250  13.7714390   8.4445590   8.8779250  13.6869060
   9.3915880   8.0170460  12.8782620  16.3523270  10.0399580  14.3289410
  17.0932740  10.3775340  13.8256870  15.5895950  10.2091640  13.7759180
   4.1885060   5.0452850  15.1328940   4.2290400   4.7466720  16.0414170
   5.0430560   5.4460460  14.9736460   6.1290870   3.6244950  13.1003430
   5.5987330   3.1335900  12.4726770   6.7978940   4.0529150  12.5661360
  15.0268930   8.0914410  12.8644620  15.4409950   8.2459490  13.7135040
  14.0919930   8.2169630  13.0270400  15.4991100   5.4310570  14.8683770
  16.0811870   4.6762890  14.7804250  15.6752870   5.9618010  14.0915250
   9.7884160   8.0434890  10.8340550  10.2072270   8.8867620  10.6616790
   8.8692790   8.1806930  10.6047330  12.1248060   5.7751070  12.2178390
  12.2444270   5.1792210  12.9573230  12.9842060   5.8120760  11.7979690
  14.4635960   6.3288260  10.7940900  13.9371180   6.8530880  10.1906040
  14.8067300   6.9615650  11.4250630   7.6391580  14.3487900  11.9498280
   7.1012670  15.0733960  11.6306980   7.8925540  13.8718240  11.1595620
   8.8916830   2.3172420  13.4754210   9.4816520   2.0088270  14.1632030
   8.0737070   1.8452170  13.6314110  10.4953790  15.5839110  12.2084930
  10.4212490  16.4874250  12.5157300   9.5932630  15.2651010  12.1807000
   1.8981080  12.9113700   5.5118550   2.2284090  12.0434760   5.2797190
   2.3272080  13.1172220   6.3423510   6.4943000  11.2422710   3.1720520
   6.1938540  11.1187680   4.0724430   6.3880490  10.3831300   2.7636250
   2.3871290  13.7784290   8.2500180   1.9502280  13.9585090   9.0824330
   2.9548970  14.5358910   8.1081900  18.0233470  13.2801290  12.5377490
  17.4235460  13.3393850  11.7941410  18.1527370  12.3406270  12.6674340
   2.2195720   6.2904520   4.6089060   1.5644560   6.0216160   3.9648760
   3.0573670   6.1809000   4.1591040  19.7251350   8.6216690   5.2223330
  20.0960180   7.8384010   4.8159300  20.3653280   9.3105790   5.0440630
  16.7085110  10.0053270  10.6353650  15.8944950  10.4350430  10.8979440
  17.1159310  10.6171680  10.0222700  18.6675890   5.9969950   2.5283350
  18.2919490   5.2297880   2.0964640  17.9379010   6.3792650   3.0158280
   3.2571650   6.6757090   9.1492400   3.6244690   6.5884490  10.0288420
   2.6882470   5.9123640   9.0499260  18.0575510   5.1441470  12.1622870
  17.8261600   4.9154220  11.2620820  18.3180060   6.0641020  12.1167760
   2.8087650   3.5866180  13.0550820   1.9143700   3.5532940  13.3944530
   3.3485200   3.7852970  13.8202070  17.9426850   4.2227440   5.8290590
  18.4664330   3.7290090   5.1980760  18.5286270   4.3577800   6.5738160
  18.1216570   4.3067310   9.3510140  17.1719280   4.2730850   9.4655130
  18.3029580   5.2167420   9.1159910  17.4326820   3.4800790   1.7683000
  17.9285940   3.2471660   2.5531880  17.2342890   2.6412630   1.3520640
  18.8613980   2.1161740   4.3020680  18.7513260   1.9617780   5.2402950
  19.6221570   1.5882680   4.0596090  16.7661160  14.7571870   4.1621920
  17.3620230  14.4356440   3.4856340  17.0239310  14.2843690   4.9535190
   4.6723730  11.1889780  14.3112550   4.6293360  10.8182690  15.1927010
   4.8034740  12.1267350  14.4514370   8.3729760  12.7449370   9.9122270
   8.1321120  13.0123930   9.0252790   9.3132400  12.9155100   9.9673130
  19.6333920  14.7643750  10.7132910  19.1392200  15.1612620   9.9960040
  19.0247210  14.1392960  11.1070190   4.5111760  14.1352030  11.4310330
   3.9172080  14.0036730  12.1700370   4.5035600  13.2990170  10.9652430
  17.3173370  15.4067170   7.9919650  16.8576340  16.1582980   7.6177670
  16.6885830  14.6873640   7.9334450   4.1423990  11.5010410  10.3818370
   3.4158050  10.8815700  10.3144320   4.2033140  11.8951020   9.5116450
   7.7469090  13.7155410   7.1667780   8.2634110  13.1042770   6.6416040
   8.3966470  14.2184190   7.6578790  10.4864590  14.6063900   7.9936760
  10.7742400  14.3518200   7.1169770  10.9987810  14.0541260   8.5842330
   2.4253990  14.8184800   3.5915130   2.2576030  14.1855480   4.2897020
   1.5588500  15.0244200   3.2409320  10.5536950  15.5280000  15.3604960
  11.4804260  15.2924270  15.4040920  10.5387380  16.3552000  14.8790990
  18.7882010  15.0705570   2.3579210  18.9634200  14.3843310   1.7140130
  18.0903580  15.5952620   1.9655880  17.1214510  14.7549860  15.1846000
  17.9139830  14.2599090  14.9771960  17.4147660  15.4340000  15.7921610
  77.3548390  69.3336180  69.4037960  90.0000000  90.0000000  90.0000000
