default_name
 41976
  25.7092782  41.2884019  30.1788072  25.9111814  40.9028830  29.1794522
  26.5709488  41.5906904  28.6505608  24.9742691  40.8049632  28.6310855
  26.5781814  39.5458830  29.2434522  26.8291814  39.0088830  30.3304522
  26.8901814  38.9388830  28.1484522  26.6706345  39.3308985  27.2438958
  27.5331814  37.6318830  28.1974522  28.0020443  37.4873281  29.1707819
  26.5051814  36.5208830  27.9804522  25.7172023  36.6646464  28.7197223
  26.0934495  36.6562453  26.9803253  27.0701814  35.1158830  28.1094522
  27.8710914  34.9903474  27.3808338  27.4719691  34.9923853  29.1151446
  26.0261814  34.0448830  27.8704522  24.8431814  34.3408830  27.7054522
  26.4601814  32.7908830  27.8484522  25.8070575  32.0363415  27.6928962
  27.4415912  32.5968744  27.9873651  28.6361814  37.5338830  27.1504522
  28.4681814  36.8768830  26.1244522  29.7661814  38.1838830  27.4164522
  29.8634956  38.6972405  28.2807978  30.8651814  38.2238830  26.4624522
  30.6324537  37.5757346  25.6175613  31.1031814  39.6428830  25.9394522
  32.0040352  39.6582377  25.3259982  30.2497189  39.9571493  25.3386707
  31.3381814  40.8968830  27.2184522  32.1191814  37.6798830  27.1284522
  32.1941814  37.5558830  28.3514522  33.1061814  37.3518830  26.2994522
  32.9524518  37.4260397  25.3039788  34.3921814  36.8558830  26.7634522
  34.4028295  36.8513507  27.8533904  34.6621814  35.4358830  26.2664522
  33.9799663  34.7424146  26.7581669  34.5088099  35.3924677  25.1881701
  36.3481814  34.8778830  26.6024522  35.5061814  37.7768830  26.2894522
  35.4881814  38.2548830  25.1514522  36.4521814  38.0408830  27.1914522
  36.2683180  37.7826716  28.1504207  37.6861814  38.7728830  26.8934522
  38.0842673  39.2127344  27.8078687  38.7531814  37.8488830  26.2884522
  38.7551384  36.9168897  26.8536822  38.4881814  37.5508830  24.8214522
  38.4865363  38.4824185  24.2554677  39.2684308  36.8940639  24.4368764
  37.5193014  37.0621998  24.7186863  40.0391814  38.4688830  26.4034522
  40.7073185  37.8923228  26.0256011  37.4401814  39.9818830  25.9944522
  38.2881814  40.3488830  25.1774522  36.2851814  40.6248830  26.1484522
  35.5179653  40.2038849  26.6526738  36.0791814  41.9318830  25.5454522
  36.9376278  42.5681655  25.7606578  35.9171814  41.8278830  24.0354522
  35.7917820  42.8310383  23.6279553  36.8173492  41.3766486  23.6180970
  34.7921814  41.0368830  23.6964522  34.7122677  40.9870054  22.7410854
  34.8591814  42.6008830  26.1594522  34.1391814  42.0118830  26.9684522
  34.6461814  43.8528830  25.7514522  35.2581061  44.2759408  25.0683201
  33.5731814  44.6608830  26.3104522  33.4496891  44.4782589  27.3779246
  33.8621814  46.1508830  26.0764522  33.8944252  46.3415415  25.0037407
  32.7791814  47.0098830  26.7114522  32.7466441  46.8201042  27.7843110
  33.0001628  48.0626911  26.5357733  31.8136110  46.7632440  26.2699297
  35.2411814  46.5218830  26.6304522  35.1711354  46.4936286  27.7178326
  35.9417183  45.7584474  26.2920536  35.7291814  47.8808830  26.1934522
  35.0293468  48.6449348  26.5319138  36.7113518  48.0712416  26.6261231
  35.7999275  47.9097542  25.1061338  32.2481814  44.2538830  25.6864522
  32.1951814  43.8078830  24.5334522  31.1671814  44.4018830  26.4484522
  31.2698324  44.6051514  27.4324462  29.8251814  44.2248830  25.9174522
  29.7750671  44.6680391  24.9228667  29.4381814  42.7448830  25.8144522
  28.4109141  42.6612508  25.4597314  30.1057230  42.2420950  25.1146719
  29.5251814  41.7988830  27.3394522  28.8271814  44.9658830  26.7924522
  29.1061814  45.2898830  27.9494522  27.6601814  45.2398830  26.2164522
  27.5516417  44.9698935  25.2492790  26.5681814  45.9638830  26.8594522
  25.7775059  46.1483426  26.1321929  25.9821814  45.1618830  28.0274522
  25.6497288  44.1931776  27.6543780  26.7608124  45.0146626  28.7758906
  24.8871814  45.8428830  28.6134522  24.5384217  45.3219820  29.3405208
  26.9831814  47.3468830  27.3444522  26.2681814  47.9568830  28.1474522
  28.1191814  47.8588830  26.8794522  28.7233830  47.3146521  26.2804093
  28.5501814  49.1918830  27.2644522  28.3569655  49.3538053  28.3248993
  30.0491814  49.3548830  27.0104522  30.4949710  48.5524281  27.5981912
  30.2066807  49.1584472  25.9499302  30.7051814  50.6868830  27.3854522
  30.2803262  51.4684028  26.7555112  30.4771814  51.0328830  28.8404522
  30.9022020  50.2519968  29.4710655  30.9577266  51.9844585  29.0677869
  29.4071085  51.1118380  29.0323131  32.1921814  50.6238830  27.0994522
  32.3507729  50.4298911  26.0386435  32.6548600  51.5736472  27.3677388
  32.6418890  49.8227359  27.6859891  27.7531814  50.2448830  26.4994522
  27.0521814  49.9478830  25.5284522  27.8381814  51.4868830  26.9714522
  28.3194876  51.6481506  27.8446283  27.2051814  52.6218830  26.3114522
  26.6982607  52.2918308  25.4047019  26.1691814  53.2628830  27.2474522
  25.3355873  52.5642922  27.3195009  26.6375513  53.3709884  28.2257379
  25.6601814  54.6078830  26.7814522  26.2811814  55.7818830  27.1834522
  27.1465981  55.7186406  27.8431141  25.8221814  57.0138830  26.7634522
  26.3214734  57.9278765  27.0850500  24.7251814  57.0838830  25.9344522
  24.2661814  58.3118830  25.5154522  24.7834877  59.0433348  25.8603756
  24.0881814  55.9338830  25.5224522  23.2202213  55.9890261  24.8654096
  24.5561814  54.7048830  25.9474522  24.0560656  53.7908430  25.6272723
  28.2071814  53.6698830  25.8514522  28.1991814  54.0558830  24.6784522
  29.0821814  54.1408830  26.7374522  29.0892396  53.7790324  27.6803805
  30.0091814  55.2198830  26.4024522  30.0807711  55.3143782  25.3189188
  29.5341814  56.5528830  26.9784522  28.5772146  56.7846422  26.5109038
  29.3895208  56.4093734  28.0492362  30.4991814  57.6988830  26.7484522
  31.3593613  57.5665643  27.4047168  30.8290750  57.6804553  25.7097354
  29.8751814  59.0498830  27.0344522  28.7011814  59.1408830  27.3934522
  30.6581814  60.1078830  26.8724522  30.2943328  61.0333683  27.0490664
  31.6147542  59.9832945  26.5732075  31.3981814  54.8738830  26.9194522
  31.5411814  54.3348830  28.0204522  32.4101814  55.1848830  26.1184522
  32.2019582  55.5242342  25.1902372  33.8041814  55.0318830  26.4994522
  33.9083330  55.1679316  27.5759012  34.3141814  53.6378830  26.1314522
  33.4759015  52.9958409  26.4019481  34.4512676  53.6193401  25.0502661
  35.5861814  53.1308830  26.8154522  35.4761815  53.2275515  27.8955708
  35.8211814  51.6738830  26.4594522  35.9317474  51.5764766  25.3794587
  36.7282218  51.3211216  26.9503065  34.9725378  51.0764736  26.7926285
  36.7961814  53.9668830  26.4454522  36.6320038  55.0000435  26.7515968
  37.6781774  53.5743138  26.9514896  36.9492761  53.9280143  25.3669578
  34.6351814  56.0978830  25.7984522  34.5391814  56.2798830  24.5844522
  35.4511814  56.8148830  26.5654522  35.5418000  56.6721730  27.5612039
  36.2151814  57.8888830  25.9504522  36.6887941  57.5248548  25.0387101
  35.3071814  59.0708830  25.5924522  35.9551984  59.8758601  25.2457751
  34.6664155  58.7429235  24.7739403  34.4491814  59.5708830  26.7354522
  33.6961652  58.8205998  26.9765798  35.0987487  59.7230641  27.5974281
  33.7801814  60.8938830  26.4224522  34.2911814  61.6308830  25.5524522
  32.7401814  61.1958830  27.0434522  32.3855041  62.0512860  26.7911254
  37.3311814  58.3658830  26.8634522  37.0981814  58.6688830  28.0334522
  32.4699174  60.5226755  27.6721239  33.8075960  62.4508966  25.4255831
  35.0778106  61.2516253  25.1545890  38.5361814  58.4488830  26.3094522
  38.7419175  57.9480371  25.4568530  39.5981814  59.2278830  26.9244522
  39.6142265  59.0435425  27.9986312  40.9551814  58.8428830  26.3434522
  40.9585813  57.7709300  26.1459569  41.1037563  59.3843983  25.4092217
  42.1001814  59.1658830  27.2764522  41.9941814  60.0558830  28.1174522
  43.2041814  58.4448830  27.1324522  43.9993170  58.6195848  27.7302302
  43.2445968  57.7244982  26.4256898  39.3041814  60.7028830  26.6824522
  38.2951814  61.0438830  26.0574522  40.1741814  61.5808830  27.1764522
  40.9880257  61.2789018  27.6927507  39.9481814  63.0108830  27.0184522
  39.7597943  63.2387943  25.9693260  38.7391814  63.4638830  27.8424522
  38.0300793  62.6365053  27.8156275  39.0768200  63.6192664  28.8671259
  38.0671814  64.7188830  27.3384522  38.7021814  65.9498830  27.4114522
  39.7047571  65.9999782  27.8362249  38.0861814  67.0998830  26.9574522
  38.5991960  68.0599539  27.0138587  36.8141814  67.0278830  26.4304522
  36.1951814  68.1688830  25.9794522  36.7377758  68.9545080  26.0793735
  36.1601814  65.8178830  26.3534522  35.1548432  65.7604559  25.9362020
  36.7851814  64.6738830  26.8084522  36.2713709  63.7140782  26.7548452
  41.1931814  63.7708830  27.4454522  41.8291814  63.4148830  28.4414522
  41.5291814  64.8138830  26.6934522  41.0192846  64.9897676  25.8395382
  42.6461814  65.6918830  27.0254522  42.4420011  66.1992105  27.9683353
  43.9481814  64.8988830  27.1684522  44.7969711  65.5808965  27.1183240
  43.9551969  64.3807834  28.1274224  44.2291814  63.6248830  25.9274522
  42.8081814  66.7738830  25.9654522  42.7561814  66.4918830  24.7674522
  43.0011814  67.9968830  26.3264522  43.0490153  68.2619142  27.2998842
  43.1561814  69.0348830  25.3214522  43.0807109  68.5933792  24.3277323
  42.3729410  69.7825040  25.4467437  44.1313264  69.5085003  25.4349372
  29.8470365  24.4783700  32.7474634  29.6591814  24.6978830  31.6964522
  28.8941616  25.4702531  31.6171585  29.3164923  23.7946175  31.1917003
  30.9151814  25.1888830  31.0094522  31.9811814  25.2998830  31.6304522
  30.8751814  25.4968830  29.7574522  30.0329186  25.3863204  29.2111295
  32.0781814  25.9708830  29.0844522  32.7862492  26.3539309  29.8193083
  32.7431814  24.8308830  28.3134522  32.6575132  23.9037565  28.8801944
  32.2706253  24.7055752  27.3392404  34.2021814  25.0428830  28.0574522
  34.7641814  26.2958830  27.9334522  34.2513206  27.1633498  28.0010909
  36.0611814  26.1758830  27.7154522  36.6872269  27.0589206  27.5873487
  36.3621814  24.8898830  27.6954522  37.2807510  24.4965960  27.5482953
  35.2181814  24.1608830  27.9084522  35.2618600  23.0719643  27.9296510
  31.7301814  27.1188830  28.1464522  30.9161814  26.9608830  27.2374522
  32.3441814  28.2788830  28.3794522  32.9770415  28.3671932  29.1616215
  32.0831814  29.4598830  27.5644522  31.3414314  29.2269455  26.8004848
  31.5471814  30.5978830  28.4354522  30.6363381  30.1848981  28.8689349
  32.2742584  30.7820556  29.2263628  31.2221814  31.9148830  27.7244522
  30.9416625  31.7023995  26.6928221  30.0761814  32.6248830  28.4244522
  30.3561502  32.8381267  29.4560740  29.8569285  33.5591119  27.9074945
  29.1919612  31.9876080  28.4128017  32.4381814  32.8238830  27.6584522
  33.2371329  32.3236341  27.1111617  32.1731010  33.7496887  27.1478473
  32.7777602  33.0512579  28.6689402  33.3431814  29.8968830  26.8284522
  33.3101814  30.1258830  25.6154522  34.4551814  30.0158830  27.5504522
  34.4330812  29.8103932  28.5390800  35.7041814  30.4848830  26.9714522
  35.6587043  30.3843730  25.8870498  35.9661814  31.9548830  27.3164522
  35.0669853  32.3927598  27.7498223  36.7837189  32.0199887  28.0344312
  36.4171814  32.9758830  25.8974522  36.8481814  29.6118830  27.4664522
  36.7521814  28.9538830  28.5054522  37.9401814  29.6248830  26.7104522
  37.9895405  30.2639864  25.9299333  39.0701814  28.7568830  26.9584522
  38.6947254  27.8227736  27.3762699  39.5597115  28.5571343  26.0052680
  40.0801814  29.3538830  27.9154522  39.7631814  30.1988830  28.7554522
  41.3211814  28.8998830  27.7764522  41.5281408  28.2512713  27.0304161
  42.3911814  29.2628830  28.6904522  41.9821587  29.7958375  29.5487990
  43.1071814  28.0078830  29.1904522  43.5943899  27.5240579  28.3439061
  43.8595826  28.3038659  29.9214697  42.1961814  27.1038830  29.7904522
  42.6703433  26.3266686  30.0949323  43.3891814  30.2048830  28.0214522
  43.3841814  30.4058830  26.8044522  44.2561814  30.7878830  28.8464522
  44.1287139  30.6557391  29.8396236  45.3311814  31.6688830  28.3974522
  45.8636803  32.0653971  29.2619294  46.3271814  30.9108830  27.5144522
  46.4112838  29.8756217  27.8449973  45.9966551  30.9344792  26.4760421
  47.7101814  31.4808830  27.5364522  48.8371814  30.7048830  27.3764522
  48.8294114  29.7052278  27.2324771  49.9111814  31.4718830  27.4414522
  50.9075587  31.0425240  27.3366567  49.5211814  32.7178830  27.6384522
  50.1248562  33.5225719  27.7287429  48.1491814  32.7508830  27.7024522
  47.6336770  33.6978321  27.8625888  44.8031814  32.8938830  27.6614522
  45.4871814  33.4438830  26.7924522  43.5921814  33.3308830  27.9894522
  43.0182688  32.8184946  28.6438083  43.0431814  34.5338830  27.3864522
  43.1896234  34.5066358  26.3066784  41.5471814  34.6378830  27.6734522
  41.4995436  34.9321442  28.7218988  41.1229071  35.4288296  27.0549906
  40.7501814  33.3488830  27.4694522  41.0549037  32.6201799  28.2206094
  39.2651814  33.6188830  27.6014522  38.9596045  34.3471994  26.8502687
  38.7121574  32.6913113  27.4535470  39.0539220  34.0126595  28.5956403
  41.0681814  32.7298830  26.1264522  42.1319113  32.4975147  26.0756295
  40.4903940  31.8140414  26.0019645  40.8117217  33.4313965  25.3325970
  43.7621814  35.7688830  27.9144522  44.1511814  35.8388830  29.0824522
  43.9371814  36.7518830  27.0354522  43.6009102  36.6338029  26.0904241
  44.6451814  37.9818830  27.3684522  44.6810082  38.1414060  28.4461201
  46.0871814  37.9738830  26.8234522  46.0579541  37.8248775  25.7440810
  46.7801814  39.2918830  27.1344522  46.8102057  39.4413756  28.2137351
  47.7971570  39.2695184  26.7428391  46.2304434  40.1104914  26.6699418
  46.8681814  36.8068830  27.4044522  46.3810388  35.8709228  27.1310062
  47.8839890  36.8161588  27.0092959  46.9004901  36.8953333  28.4903774
  43.8691814  39.1648830  26.8094522  43.3631814  39.1158830  25.6844522
  43.7741814  40.2248830  27.6044522  44.0879649  40.1394574  28.5606644
  43.2111814  41.4948830  27.1744522  43.2692206  41.5651342  26.0882684
  41.7471814  41.6308830  27.5954522  41.2151403  40.7665959  27.1979106
  41.7204940  41.6038198  28.6847894  41.0811814  42.9048830  27.1044522
  41.6559283  43.7628904  27.4531499  41.0833465  42.8854275  26.0146284
  39.6431814  43.0258830  27.5604522  39.2671814  42.3278830  28.5234522
  38.8891814  43.8168830  26.9564522  37.9949721  43.8255840  27.3050110
  44.0311814  42.6248830  27.7764522  44.6131814  42.4748830  28.8544522
  39.3293978  44.2828982  26.2419467  38.3410698  42.4588022  28.7415127
  39.9675076  41.7814715  28.8866256  44.0771814  43.7548830  27.0774522
  43.6056284  43.8034179  26.1856106  44.8231814  44.9198830  27.5274522
  44.7170384  45.0328212  28.6063766  46.3091814  44.7818830  27.1944522
  46.4322939  44.6770866  26.1165093  46.8425044  45.6690234  27.5359910
  46.7135333  43.9010269  27.6931419  44.2491814  46.1698830  26.8804522
  44.4611814  46.4088830  25.6884522  43.5371814  46.9658830  27.6694522
  43.3901969  46.6921389  28.6304721  42.9191814  48.1978830  27.2004522
  42.9999718  48.2599272  26.1152230  41.4391814  48.2388830  27.5834522
  40.9753220  47.5327908  26.8947089  41.3469044  47.8649506  28.6031383
  40.7391814  49.5928830  27.4724522  41.1097574  50.2476457  28.2611601
  41.0081814  50.2218830  26.1304522  40.6374418  49.5678684  25.3412020
  40.5009882  51.1849048  26.0717594  42.0810467  50.3686816  26.0059111
  39.2471814  49.4308830  27.7004522  39.0735928  49.0199258  28.6949776
  38.7590837  50.4020757  27.6189260  38.8360058  48.7541565  26.9514029
  43.6601814  49.3868830  27.7924522  43.7711814  49.5088830  29.0164522
  44.1631814  50.2588830  26.9224522  44.0194312  50.0956590  25.9361495
  44.9371814  51.4248830  27.3234522  45.0917730  51.4059585  28.4022676
  46.3021814  51.4418830  26.6344522  46.1295260  51.4189009  25.5584591
  46.7614494  52.3917996  26.9080056  47.2221814  50.3088830  27.0204522
  46.9421814  49.0058830  26.6444522  46.0390202  48.8065472  26.0676814
  47.7831814  47.9698830  26.9874522  47.5461979  46.9483997  26.6899417
  48.9261814  48.2288830  27.7064522  49.7681814  47.1968830  28.0484522
  49.4613893  46.3429072  27.7350778  49.2311814  49.5168830  28.0874522
  50.1356237  49.7241714  28.6593929  48.3831814  50.5478830  27.7404522
  48.6209096  51.5707951  28.0324046  44.1751814  52.6948830  26.9754522
  43.7861814  52.8958830  25.8204522  43.9691814  53.5448830  27.9754522
  44.1799593  53.2351038  28.9133802  43.4361814  54.8878830  27.7954522
  43.2175469  55.0526290  26.7403897  42.1501814  55.0858830  28.5974522
  42.3933915  54.5985650  29.5416288  42.0440322  56.1585206  28.7595665
  40.8361814  54.5198830  28.0554522  40.1570266  54.3372905  28.8882245
  40.2001814  55.4968830  27.0914522  40.8786017  55.6796277  26.2581161
  39.2662532  55.0801692  26.7143203  39.9967641  56.4358383  27.6063160
  41.0431814  53.1798830  27.3894522  41.4504805  52.4732347  28.1125395
  40.0890338  52.8077595  27.0163198  41.7396043  53.2903983  26.5582601
  44.5061814  55.8678830  28.2534522  44.5591814  56.2218830  29.4354522
  45.3531814  56.3058830  27.3234522  45.1908237  56.1061047  26.3468111
  46.5681814  57.0248830  27.6894522  46.6091283  57.2376449  28.7577008
  47.8221814  56.2208830  27.2994522  47.8484452  56.1073641  26.2156982
  49.0801814  56.9398830  27.7644522  49.0548548  57.0533682  28.8482330
  49.9574536  56.3584058  27.4809417  49.1305936  57.9236136  27.2977251
  47.7651814  54.8158830  27.8764522  46.8848193  54.3003643  27.4926488
  48.6616269  54.2672433  27.5875240  47.7081596  54.8710315  28.9635622
  46.6051814  58.4028830  27.0454522  47.0451814  58.5558830  25.9004522
  46.1491814  59.4138830  27.7784522  45.5635526  59.2466742  28.5841690
  46.4501814  60.7908830  27.4184522  46.4731234  60.8915677  26.3333553
  45.3871814  61.7348830  27.9734522  45.0423520  61.3667293  28.9397104
  45.8130018  62.7308039  28.0955932  43.9121814  61.8998830  26.9474522
  47.8231814  61.1628830  27.9584522  47.9561814  61.6628830  29.0784522
  48.8491814  60.9168830  27.1504522  48.6760623  60.6828771  26.1833068
  50.2191814  60.9718830  27.6074522  50.3119899  60.3236683  28.4788324
  50.8584612  60.5982373  26.8075713  50.6661814  62.3708830  27.9834522
  49.8741814  63.2628830  28.2884522  51.9861814  62.5518830  27.9524522
  52.5755077  61.8001474  27.6242946  52.6241814  63.7738830  28.4254522
  52.4658272  63.8882211  29.4978094  54.1281814  63.7128830  28.1574522
  54.2597911  63.6137875  27.0799745  54.5533582  64.6600895  28.4893025
  54.8341814  62.5678830  28.8604522  54.5964506  62.6031753  29.9236264
  54.4626392  61.6350321  28.4363711  56.3371814  62.5978830  28.6644522
  56.8591814  63.6388830  28.2164522  56.9961814  61.5788830  28.9584522
  57.9370590  61.6791232  28.7975785  52.0321814  65.0178830  27.7784522
  51.8311814  65.0608830  26.5604522  56.4510259  60.8636719  29.2942460
  57.8116019  63.5667122  28.1161558  56.2218407  64.3372176  28.0520054
  51.7461814  66.0328830  28.5904522  51.8555918  65.8984277  29.5854650
  51.2491814  67.3188830  28.1174522  51.4388444  67.4080334  27.0477891
  49.7471814  67.4598830  28.3604522  49.5840834  67.3369138  29.4311422
  49.4695926  68.4716943  28.0650163  48.8941814  66.4588830  27.6004522
  49.1753845  66.4935230  26.5479193  49.0936145  65.4632324  27.9966952
  47.4131814  66.7718830  27.7394522  46.8431092  66.0640301  27.1377372
  47.1262778  66.6717974  28.7862419  47.0961814  68.1238830  27.2954522
  47.8519363  68.6636595  26.8984949  45.8961814  68.6808830  27.3774522
  44.8631814  68.0298830  27.8864522  44.9817778  67.0851509  28.2233740
  43.9606676  68.4805866  27.9357959  45.7271814  69.9248830  26.9384522
  46.5100430  70.4304552  26.5490623  44.8167563  70.3583090  26.9964771
  52.0081814  68.4218830  28.8384522  52.5201814  68.2068830  29.9424522
  52.0861814  69.5838830  28.2204522  51.7044037  69.6886640  27.2912773
  52.7111814  70.7338830  28.8394522  52.0953999  71.6160924  28.6644698
  52.8011160  70.5611051  29.9119069  54.0951814  70.9738830  28.2594522
  54.3511814  70.6758830  27.0944522  54.9691814  71.5118830  29.1064522
  54.6842934  71.6466180  30.0660275  56.3031814  71.9468830  28.7144522
  56.4061386  71.8757748  27.6316584  56.5541814  73.3968830  29.1354522
  56.5007040  73.5020209  30.2190506  57.5427962  73.6991619  28.7899551
  55.5761814  74.3838830  28.5584522  54.2331814  74.3288830  28.8874522
  53.8859545  73.5534873  29.5703102  53.3371814  75.2388830  28.3634522
  52.2805894  75.1775237  28.6241227  53.7791814  76.2238830  27.5114522
  53.0749693  76.9460332  27.0983126  55.1141814  76.2968830  27.1804522
  55.4668783  77.0753103  26.5038756  56.0061814  75.3828830  27.7064522
  57.0639473  75.4443711  27.4506195  57.3251814  71.0238830  29.3594522
  57.2931814  70.8108830  30.5754522  58.2261814  70.4768830  28.5464522
  58.1811907  70.6864603  27.5594606  59.2541814  69.5558830  29.0104522
  59.2965170  69.5764198  30.0994358  58.9551814  68.1238830  28.5594522
  58.9597608  68.0599779  27.4713372  59.7024915  67.4424882  28.9660587
  57.6191814  67.6158830  29.0134522  56.4551814  68.0948830  28.4424522
  56.5216767  68.8459605  27.6553304  55.2271814  67.6378830  28.8534522
  54.3180575  68.0280715  28.3959072  55.1451814  66.6868830  29.8434522
  54.1714927  66.3239146  30.1725180  56.2951814  66.1928830  30.4194522
  56.2338274  65.4361573  31.2015661  57.5261814  66.6578830  30.0044522
  58.4372517  66.2691721  30.4593748  60.6021814  70.0078830  28.4754522
  60.7541814  70.2158830  27.2674522  61.5801814  70.1428830  29.3714522
  61.3924958  69.9250584  30.3396598  62.8991814  70.6538830  29.0214522
  62.9708945  70.7735749  27.9404202  63.1481814  72.0098830  29.6804522
  63.2630011  71.8400103  30.7509937  64.0852890  72.3862765  29.2702606
  62.0531814  73.0238830  29.4464522  60.8671814  72.9678830  30.1584522
  60.7337770  72.1730219  30.8922769  59.8671814  73.8908830  29.9544522
  58.9378082  73.8299848  30.5207196  60.0451814  74.8938830  29.0314522
  59.0491814  75.8188830  28.8254522  58.2781190  75.6690534  29.3773703
  61.2131814  74.9758830  28.3134522  61.3548512  75.7700706  27.5804474
  62.2111814  74.0448830  28.5244522  63.1420635  74.1065462  27.9607535
  63.9911814  69.6668830  29.4154522  65.0541814  70.0688830  29.8964522
  63.7431814  68.3768830  29.2194522  62.8445846  68.0874336  28.8605063
  64.7221814  67.3468830  29.5434522  64.9168206  67.3413737  30.6159188
  64.2261814  65.9508830  29.1264522  64.1030358  65.9286291  28.0436595
  65.2231814  64.8798830  29.5454522  65.3465067  64.9012181  30.6282428
  64.8540993  63.9003291  29.2415580  66.1839502  65.0700227  29.0670479
  62.9581814  65.6868830  29.7384522  62.6516227  64.8156858  29.4764645
  66.0561814  67.6268830  28.8594522  66.0991814  67.9638830  27.6764522
  67.1531814  67.5088830  29.5284522  67.1550219  67.2338843  30.5002916
  68.4281814  67.7738830  28.8854522  68.2597929  68.0570620  27.8464356
  68.9359002  68.5863804  29.4052311  69.0471152  66.8773748  28.9214258
  86.3751130  96.2366600  45.1552820  86.2945180  95.3221210  44.8844530
  85.9615550  96.7333670  44.4492530  84.5069170  98.0145620  47.0362090
  83.7311270  97.5346060  47.3260660  85.1582100  97.3351270  46.8618250
  78.5235000  98.3265430  47.9137850  77.6919880  98.0714140  48.3134360
  79.1315980  98.3976200  48.6495770  76.9326950  93.2867320  41.6980240
  76.0443650  93.6283290  41.5960120  77.2168140  93.0867640  40.8061070
  74.8959960  95.8872970  47.5819940  75.4676070  95.1195170  47.5823580
  74.8961500  96.1861730  46.6726550  76.1384830  91.2957330  49.3688870
  75.9587670  90.3983080  49.6491630  75.7364910  91.8429200  50.0435820
  84.9783330  93.4973190  47.2701180  85.3548150  92.6245070  47.1574850
  84.8802840  93.8331890  46.3791620  79.1088340  91.8698820  42.7318620
  79.2155090  92.7702550  43.0387380  78.1980700  91.8216790  42.4413270
  88.7607450  90.9923630  44.2029520  89.5817070  90.5020200  44.2455000
  88.7941530  91.5821290  44.9561360  76.7571500  93.7917830  47.9771210
  77.4381610  94.0556200  48.5958610  76.4419550  92.9518700  48.3109220
  80.9496070  94.8385190  47.0643800  81.4574290  95.3366160  47.7048820
  81.4809310  94.0620390  46.8883160  79.2332170  89.4783750  51.3307220
  79.2350610  89.9956140  50.5253120  78.4036480  89.0013930  51.3077150
  88.9968930  92.9324010  46.9757060  88.2924500  93.2208900  47.5560170
  89.3581090  93.7424120  46.6156620  78.9147500  91.1893710  49.3377670
  79.2564310  92.0335760  49.0431540  77.9763310  91.3377450  49.4543010
  82.5975390  88.6775980  45.6622260  82.9050370  88.1222870  44.9457760
  81.6676090  88.8120440  45.4795250  84.9856150  96.7424810  42.3982380
  84.0585430  96.6762190  42.6270850  85.1380970  97.6804940  42.2837620
  84.9725230  93.0141810  39.3949540  84.0328900  93.1755770  39.4802000
  85.2908490  93.7327490  38.8485530  89.0153440  98.3045110  42.9017630
  88.3965860  97.9664660  42.2543930  88.9977890  97.6604870  43.6096820
  88.4580000  94.4829650  50.3183440  88.0451180  95.3083360  50.5723430
  87.7255950  93.8974690  50.1259800  80.5912790  97.2689550  45.1802110
  80.1869790  96.5566800  44.6848010  80.6775910  96.9242790  46.0690150
  79.3041410  94.0432760  48.9601150  79.8556000  94.1528100  48.1854400
  79.8184920  94.4170360  49.6756380  87.1918140  97.5431920  39.9090380
  87.6311420  96.7054350  39.7628200  87.9046560  98.1761320  39.9954520
  78.9784140  97.5652120  52.5706490  78.8391910  98.4374920  52.9393890
  78.0965500  97.2224930  52.4254430  77.2917420  96.1634530  42.6808760
  77.1715020  96.8896620  42.0690030  76.9818310  95.3937440  42.2036670
  79.7581080  89.5069600  46.0632430  79.3149230  90.2879140  45.7316950
  80.3166070  89.8299490  46.7703370  84.0450890  92.3738120  51.6667750
  83.5830260  92.5821140  52.4787690  83.6429000  91.5597470  51.3638420
  89.0455400  93.5947070  52.7964410  88.1948990  93.2952820  53.1173480
  88.8857190  93.8389080  51.8848230  82.8739900  89.1280300  40.9438260
  82.2494080  89.1240170  41.6691570  82.7870020  88.2611260  40.5474230
  81.7956980  90.0516930  47.9222030  82.0929310  90.9579760  47.8414050
  82.3442540  89.5635710  47.3081600  79.5495300  94.6303170  43.7913680
  79.3236220  94.4140340  44.6960300  78.7687830  95.0631630  43.4459650
  86.7793060  94.6366540  42.3904330  86.1801950  95.3602340  42.2067950
  87.3272670  94.5743320  41.6080780  85.3857930  93.2730080  44.4207610
  85.7787500  93.5902280  43.6076300  85.7474780  92.3941960  44.5352130
  77.1205050  91.9402420  52.6107730  76.7268440  92.7877630  52.8180510
  76.4323450  91.3028790  52.8016370  74.4222100  89.8630880  46.6437810
  74.1335150  90.4333740  47.3562790  75.1667860  89.3835330  47.0069040
  74.6092330  93.8051000  37.8540530  74.5267000  94.7481760  37.9955520
  74.2575390  93.6625910  36.9752880  85.9713070  95.8635830  48.5158390
  85.2394190  96.3722640  48.8648490  85.5737410  95.0465810  48.2147170
  82.4090460  92.5390030  46.9210880  82.4126520  92.0979980  46.0715420
  83.3041580  92.8607360  47.0282700  78.2592840  92.4216520  45.8805090
  77.9192890  92.8991750  46.6372140  77.4970160  91.9681640  45.5206190
  82.4710610  93.5402110  39.9117640  82.5923430  93.4988590  40.8603460
  82.0859120  94.4026260  39.7564370  86.4338980  91.3169510  47.9281330
  86.4511720  91.7678160  48.7723180  86.1854560  90.4175150  48.1414770
  81.4832110  95.8503250  39.3100940  80.9149010  95.4021500  38.6836850
  82.1921110  96.2096030  38.7766090  82.7098430  96.5991810  48.6676290
  83.0768560  96.1250380  49.4137630  82.5203490  97.4733380  49.0084630
  75.5738920  91.3435500  44.7969760  75.2885840  90.9791170  45.6348380
  75.5117780  90.6115960  44.1832900  80.4997800  95.6400450  50.9860500
  80.1954870  96.5192430  51.2110860  81.4544260  95.7000240  51.0217940
  85.2477510  90.2364760  41.5183130  84.4342120  89.7377930  41.4428440
  85.0539460  91.0763010  41.1019480  87.9625900  94.6084410  39.8145290
  88.8505520  94.9201640  39.6396630  87.9330990  93.7356660  39.4225870
  76.5561530  96.4803190  52.1331860  76.1976470  97.1457040  52.7205200
  76.2616090  95.6486740  52.5044480  75.0669580  96.4794450  38.7566460
  75.9364430  96.7619250  39.0402380  74.5759900  97.2930320  38.6415270
  78.1316170  88.2105310  43.3497260  78.0030800  88.2023210  44.2982180
  77.3078190  88.5488400  42.9988270  75.1310100  89.9696430  52.8103960
  74.4168620  90.1693350  53.4156570  75.5505140  89.1936000  53.1818760
  86.6248880  92.4618740  50.5605410  86.9929700  91.6413950  50.8884980
  85.7647080  92.5220630  50.9761060  89.9910910  91.4175680  41.3692970
  89.3624070  91.5221350  40.6551200  89.4962830  91.6372460  42.1586850
  81.9594940  93.6961630  42.7850850  81.2511090  94.1647970  43.2264460
  82.2439420  93.0383640  43.4196040  83.5850870  95.1158330  50.7843380
  84.0836120  95.5904150  51.4495230  83.7273820  94.1921850  50.9913410
  85.9910370  90.4212290  44.2246640  85.8678150  90.4398420  43.2756150
  86.9394930  90.4691230  44.3445040  80.1629960  92.0046710  40.1601560
  81.0120490  92.4416860  40.0941750  79.7961230  92.3166970  40.9873620
  89.0839740  96.5759470  45.0733130  88.1429880  96.5909700  45.2480820
  89.3983810  95.7895430  45.5193430  79.0621380  98.2579070  38.6337090
  79.8284650  98.1460430  39.1962520  79.1396070  97.5617040  37.9813860
  77.7568140  95.6904140  39.3169980  77.8371730  94.7431650  39.4287380
  78.6487890  96.0211020  39.4230640  81.0940410  98.2544200  40.6079730
  81.5156830  98.0884070  41.4511120  81.2191250  97.4444430  40.1134870
  79.2567830  94.2340750  53.4150710  78.7264290  93.7431700  52.7874050
  79.9255900  94.6624950  52.8808640  83.6068050  97.2781810  37.8556830
  84.1273710  96.5630830  37.4897980  84.2536450  97.9167680  38.1557340
  79.7440130  91.2003120  53.4948000  79.6497000  90.5823870  52.7698870
  79.1637520  91.9269410  53.2677910  82.5101570  89.7576360  50.5275390
  82.0618870  89.7800620  49.6820940  81.8766770  89.3595380  51.1245690
  85.2525020  96.3846870  52.5325670  85.3721230  95.7888010  53.2720510
  86.1119020  96.4216560  52.1126970  87.5912920  96.9384060  51.1088180
  87.0648140  97.4626680  50.5053320  87.9344260  97.5711450  51.7397910
  79.9899310  94.3277430  37.5537890  79.7888370  93.4644790  37.9151230
  79.8191360  94.2410790  36.6159490  87.4687620  89.1385660  40.0824770
  87.7489910  88.2953560  40.4384190  86.6953350  89.3708770  40.5963520
  78.7882110  91.4278050  37.5415770  79.0908010  91.4345480  36.6334920
  79.5276700  91.0775910  38.0383430  82.0067040  90.3712670  38.5271970
  81.6589040  89.6936660  37.9474420  82.2079810  89.9102180  39.3415360
  75.3472680  96.9000320  44.9236340  74.6921520  96.6311960  44.2796040
  76.1850630  96.7904800  44.4738320  88.2963120  91.6941610  39.1454830
  88.7148000  91.5072590  38.3051490  87.9899180  90.8420660  39.4557760
  76.3848610  97.2852890  49.4639680  76.7521650  97.1980290  50.3435700
  75.8159430  96.5219440  49.3646540  75.9364610  94.1961980  53.3698100
  75.0420660  94.1628740  53.7091810  76.4762160  94.3948770  54.1349350
  74.5610760  94.1099250  40.8661670  73.6574840  94.3729450  40.6913330
  75.0451380  94.3810420  40.0861630  77.1037970  93.1664790  38.7756050
  77.8129670  92.7448010  38.2903330  76.3877910  93.2340020  38.1439400
  76.7512130  89.2204120  37.8158700  77.4740260  89.7613060  38.1339920
  77.0236650  88.9467540  36.9400240  76.4404320  88.4710310  47.7181320
  77.0880510  87.9207690  47.2776480  76.8606160  88.7253460  48.5397130
  76.1936320  88.6265980  50.4606640  75.8451140  89.0829800  51.2264820
  75.8624020  87.7323110  50.5429070  87.0843740  88.0380060  49.9487640
  86.2103580  88.3715170  49.7460570  86.9754490  87.5653240  50.7739510
  87.9915720  90.2450930  51.3329360  87.6629080  89.4302690  50.9531090
  88.9398020  90.2020740  51.2095050  84.8318560  88.9549900  48.8880550
  84.0490350  89.4295400  49.1677310  84.5381490  88.0504730  48.7793730
  89.3839630  89.6573000  46.9329640  89.8247720  89.6018100  46.0851240
  89.1147220  90.5731010  47.0039820  76.1758970  89.2597380  41.4094270
  76.9338330  89.3726260  40.8358300  75.7136140  90.0966580  41.3637700
  82.7172780  91.3736650  44.3996580  81.9047290  90.9993540  44.0592460
  83.2214420  90.6181730  44.7017770  87.2197760  88.0379100  45.6379650
  87.8227130  88.6099310  46.1128170  86.4790750  88.6018540  45.4153550
  78.5484120  89.7861430  39.9496240  79.0776880  88.9991230  39.8204190
  79.1812440  90.4652620  40.1831770  80.7421960  89.5236570  43.0041630
  80.1124700  88.8223880  43.1711760  80.2027100  90.2840700  42.7874790
  86.3751130  96.2366600  26.3809330  86.2945180  95.3221210  26.1101040
  85.9615550  96.7333670  25.6749040  84.5069170  98.0145620  28.2618600
  83.7311270  97.5346060  28.5517170  85.1582100  97.3351270  28.0874760
  78.5235000  98.3265430  29.1394360  77.6919880  98.0714140  29.5390870
  79.1315980  98.3976200  29.8752280  76.9326950  93.2867320  22.9236750
  76.0443650  93.6283290  22.8216630  77.2168140  93.0867640  22.0317580
  74.8959960  95.8872970  28.8076450  75.4676070  95.1195170  28.8080090
  74.8961500  96.1861730  27.8983060  76.1384830  91.2957330  30.5945380
  75.9587670  90.3983080  30.8748140  75.7364910  91.8429200  31.2692330
  84.9783330  93.4973190  28.4957690  85.3548150  92.6245070  28.3831360
  84.8802840  93.8331890  27.6048130  79.1088340  91.8698820  23.9575130
  79.2155090  92.7702550  24.2643890  78.1980700  91.8216790  23.6669780
  88.7607450  90.9923630  25.4286030  89.5817070  90.5020200  25.4711510
  88.7941530  91.5821290  26.1817870  76.7571500  93.7917830  29.2027720
  77.4381610  94.0556200  29.8215120  76.4419550  92.9518700  29.5365730
  80.9496070  94.8385190  28.2900310  81.4574290  95.3366160  28.9305330
  81.4809310  94.0620390  28.1139670  79.2332170  89.4783750  32.5563730
  79.2350610  89.9956140  31.7509630  78.4036480  89.0013930  32.5333660
  88.9968930  92.9324010  28.2013570  88.2924500  93.2208900  28.7816680
  89.3581090  93.7424120  27.8413130  78.9147500  91.1893710  30.5634180
  79.2564310  92.0335760  30.2688050  77.9763310  91.3377450  30.6799520
  82.5975390  88.6775980  26.8878770  82.9050370  88.1222870  26.1714270
  81.6676090  88.8120440  26.7051760  84.9856150  96.7424810  23.6238890
  84.0585430  96.6762190  23.8527360  85.1380970  97.6804940  23.5094130
  84.9725230  93.0141810  20.6206050  84.0328900  93.1755770  20.7058510
  85.2908490  93.7327490  20.0742040  89.0153440  98.3045110  24.1274140
  88.3965860  97.9664660  23.4800440  88.9977890  97.6604870  24.8353330
  88.4580000  94.4829650  31.5439950  88.0451180  95.3083360  31.7979940
  87.7255950  93.8974690  31.3516310  80.5912790  97.2689550  26.4058620
  80.1869790  96.5566800  25.9104520  80.6775910  96.9242790  27.2946660
  79.3041410  94.0432760  30.1857660  79.8556000  94.1528100  29.4110910
  79.8184920  94.4170360  30.9012890  87.1918140  97.5431920  21.1346890
  87.6311420  96.7054350  20.9884710  87.9046560  98.1761320  21.2211030
  78.9784140  97.5652120  33.7963000  78.8391910  98.4374920  34.1650400
  78.0965500  97.2224930  33.6510940  77.2917420  96.1634530  23.9065270
  77.1715020  96.8896620  23.2946540  76.9818310  95.3937440  23.4293180
  79.7581080  89.5069600  27.2888940  79.3149230  90.2879140  26.9573460
  80.3166070  89.8299490  27.9959880  84.0450890  92.3738120  32.8924260
  83.5830260  92.5821140  33.7044200  83.6429000  91.5597470  32.5894930
  89.0455400  93.5947070  34.0220920  88.1948990  93.2952820  34.3429990
  88.8857190  93.8389080  33.1104740  86.1405110  95.0948820  36.1219710
  86.4658520  94.2612570  35.7821940  86.9285440  95.6177340  36.2698040
  82.8739900  89.1280300  22.1694770  82.2494080  89.1240170  22.8948080
  82.7870020  88.2611260  21.7730740  81.7956980  90.0516930  29.1478540
  82.0929310  90.9579760  29.0670560  82.3442540  89.5635710  28.5338110
  79.5495300  94.6303170  25.0170190  79.3236220  94.4140340  25.9216810
  78.7687830  95.0631630  24.6716160  86.7793060  94.6366540  23.6160840
  86.1801950  95.3602340  23.4324460  87.3272670  94.5743320  22.8337290
  81.9894510  95.5288750  35.6830460  81.8938110  94.5883480  35.5330860
  82.8326490  95.7503820  35.2878530  85.3857930  93.2730080  25.6464120
  85.7787500  93.5902280  24.8332810  85.7474780  92.3941960  25.7608640
  77.1205050  91.9402420  33.8364240  76.7268440  92.7877630  34.0437020
  76.4323450  91.3028790  34.0272880  83.6950100  92.0237390  36.9060980
  83.0048420  91.8309590  37.5407070  84.4382400  92.3072030  37.4385280
  74.4222100  89.8630880  27.8694320  74.1335150  90.4333740  28.5819300
  75.1667860  89.3835330  28.2325550  74.6092330  93.8051000  19.0797040
  74.5267000  94.7481760  19.2212030  74.2575390  93.6625910  18.2009390
  85.9713070  95.8635830  29.7414900  85.2394190  96.3722640  30.0905000
  85.5737410  95.0465810  29.4403680  82.4090460  92.5390030  28.1467390
  82.4126520  92.0979980  27.2971930  83.3041580  92.8607360  28.2539210
  78.2592840  92.4216520  27.1061600  77.9192890  92.8991750  27.8628650
  77.4970160  91.9681640  26.7462700  82.4710610  93.5402110  21.1374150
  82.5923430  93.4988590  22.0859970  82.0859120  94.4026260  20.9820880
  86.4338980  91.3169510  29.1537840  86.4511720  91.7678160  29.9979690
  86.1854560  90.4175150  29.3671280  81.4832110  95.8503250  20.5357450
  80.9149010  95.4021500  19.9093360  82.1921110  96.2096030  20.0022600
  89.8609730  88.7301690  34.9924220  90.1855500  87.9991350  35.5182200
  89.8966240  88.4115330  34.0905210  82.7098430  96.5991810  29.8932800
  83.0768560  96.1250380  30.6394140  82.5203490  97.4733380  30.2341140
  75.5738920  91.3435500  26.0226270  75.2885840  90.9791170  26.8604890
  75.5117780  90.6115960  25.4089410  80.4997800  95.6400450  32.2117010
  80.1954870  96.5192430  32.4367370  81.4544260  95.7000240  32.2474450
  85.2477510  90.2364760  22.7439640  84.4342120  89.7377930  22.6684950
  85.0539460  91.0763010  22.3275990  87.9625900  94.6084410  21.0401800
  88.8505520  94.9201640  20.8653140  87.9330990  93.7356660  20.6482380
  76.5561530  96.4803190  33.3588370  76.1976470  97.1457040  33.9461710
  76.2616090  95.6486740  33.7300990  79.7574650  96.9387430  36.2427920
  79.4574790  97.0844610  35.3455740  80.5285890  96.3792720  36.1501310
  75.0669580  96.4794450  19.9822970  75.9364430  96.7619250  20.2658890
  74.5759900  97.2930320  19.8671780  78.1316170  88.2105310  24.5753770
  78.0030800  88.2023210  25.5238690  77.3078190  88.5488400  24.2244780
  75.1310100  89.9696430  34.0360470  74.4168620  90.1693350  34.6413080
  75.5505140  89.1936000  34.4075270  86.6248880  92.4618740  31.7861920
  86.9929700  91.6413950  32.1141490  85.7647080  92.5220630  32.2017570
  89.9910910  91.4175680  22.5949480  89.3624070  91.5221350  21.8807710
  89.4962830  91.6372460  23.3843360  81.9594940  93.6961630  24.0107360
  81.2511090  94.1647970  24.4520970  82.2439420  93.0383640  24.6452550
  83.5850870  95.1158330  32.0099890  84.0836120  95.5904150  32.6751740
  83.7273820  94.1921850  32.2169920  85.9910370  90.4212290  25.4503150
  85.8678150  90.4398420  24.5012660  86.9394930  90.4691230  25.5701550
  80.1629960  92.0046710  21.3858070  81.0120490  92.4416860  21.3198260
  79.7961230  92.3166970  22.2130130  89.0839740  96.5759470  26.2989640
  88.1429880  96.5909700  26.4737330  89.3983810  95.7895430  26.7449940
  79.0621380  98.2579070  19.8593600  79.8284650  98.1460430  20.4219030
  79.1396070  97.5617040  19.2070370  77.7568140  95.6904140  20.5426490
  77.8371730  94.7431650  20.6543890  78.6487890  96.0211020  20.6487150
  75.2838940  97.5119060  35.7782660  75.7877960  96.9326340  36.3498890
  74.5446360  97.7959290  36.3159030  77.3162020  95.6548650  36.6732730
  77.3567360  95.3562520  37.5817960  78.1707520  96.0556260  36.5140250
  81.0940410  98.2544200  21.8336240  81.5156830  98.0884070  22.6767630
  81.2191250  97.4444430  21.3391380  79.2567830  94.2340750  34.6407220
  78.7264290  93.7431700  34.0130560  79.9255900  94.6624950  34.1065150
  83.6068050  97.2781810  19.0813340  84.1273710  96.5630830  18.7154490
  84.2536450  97.9167680  19.3813850  88.6268060  96.0406370  36.4087560
  89.2088830  95.2858690  36.3208040  88.8029830  96.5713810  35.6319040
  79.7440130  91.2003120  34.7204510  79.6497000  90.5823870  33.9955380
  79.1637520  91.9269410  34.4934420  82.5101570  89.7576360  31.7531900
  82.0618870  89.7800620  30.9077450  81.8766770  89.3595380  32.3502200
  85.2525020  96.3846870  33.7582180  85.3721230  95.7888010  34.4977020
  86.1119020  96.4216560  33.3383480  87.5912920  96.9384060  32.3344690
  87.0648140  97.4626680  31.7309830  87.9344260  97.5711450  32.9654420
  79.9899310  94.3277430  18.7794400  79.7888370  93.4644790  19.1407740
  79.8191360  94.2410790  17.8416000  82.0193790  92.9268220  35.0158000
  82.6093480  92.6184070  35.7035820  81.2014030  92.4547970  35.1717900
  86.8387220  92.5434030  35.2491020  86.1502740  91.8815570  35.1841010
  87.5593240  92.0972300  35.6939480  87.4687620  89.1385660  21.3081280
  87.7489910  88.2953560  21.6640700  86.6953350  89.3708770  21.8220030
  78.7882110  91.4278050  18.7672280  79.0908010  91.4345480  17.8591430
  79.5276700  91.0775910  19.2639940  82.0067040  90.3712670  19.7528480
  81.6589040  89.6936660  19.1730930  82.2079810  89.9102180  20.5671870
  75.3472680  96.9000320  26.1492850  74.6921520  96.6311960  25.5052550
  76.1850630  96.7904800  25.6994830  88.2963120  91.6941610  20.3711340
  88.7148000  91.5072590  19.5308000  87.9899180  90.8420660  20.6814270
  76.3848610  97.2852890  30.6896190  76.7521650  97.1980290  31.5692210
  75.8159430  96.5219440  30.5903050  75.9364610  94.1961980  34.5954610
  75.0420660  94.1628740  34.9348320  76.4762160  94.3948770  35.3605860
  74.5610760  94.1099250  22.0918180  73.6574840  94.3729450  21.9169840
  75.0451380  94.3810420  21.3118140  77.1037970  93.1664790  20.0012560
  77.8129670  92.7448010  19.5159840  76.3877910  93.2340020  19.3695910
  76.7512130  89.2204120  19.0415210  77.4740260  89.7613060  19.3596430
  77.0236650  88.9467540  18.1656750  76.4404320  88.4710310  28.9437830
  77.0880510  87.9207690  28.5032990  76.8606160  88.7253460  29.7653640
  76.1936320  88.6265980  31.6863150  75.8451140  89.0829800  32.4521330
  75.8624020  87.7323110  31.7685580  83.7061140  89.8177860  35.2082570
  83.6450030  90.4099690  35.9577980  84.6461520  89.7103820  35.0632830
  86.3435700  89.4747920  34.8474860  86.9576110  89.7927210  34.1855940
  86.8885260  88.9896510  35.4670720  76.8656960  88.1542180  34.9613920
  77.4139950  87.9730230  34.1980030  76.9312270  87.3636290  35.4970230
  87.0843740  88.0380060  31.1744150  86.2103580  88.3715170  30.9717080
  86.9754490  87.5653240  31.9996020  87.9915720  90.2450930  32.5585870
  87.6629080  89.4302690  32.1787600  88.9398020  90.2020740  32.4351560
  84.8318560  88.9549900  30.1137060  84.0490350  89.4295400  30.3933820
  84.5381490  88.0504730  30.0050240  89.3839630  89.6573000  28.1586150
  89.8247720  89.6018100  27.3107750  89.1147220  90.5731010  28.2296330
  76.1758970  89.2597380  22.6350780  76.9338330  89.3726260  22.0614810
  75.7136140  90.0966580  22.5894210  82.7172780  91.3736650  25.6253090
  81.9047290  90.9993540  25.2848970  83.2214420  90.6181730  25.9274280
  87.2197760  88.0379100  26.8636160  87.8227130  88.6099310  27.3384680
  86.4790750  88.6018540  26.6410060  78.5484120  89.7861430  21.1752750
  79.0776880  88.9991230  21.0460700  79.1812440  90.4652620  21.4088280
  80.7421960  89.5236570  24.2298140  80.1124700  88.8223880  24.3968270
  80.2027100  90.2840700  24.0131300  80.8677520  88.8020550  36.6650630
  80.5861790  89.3054150  35.9011450  81.2497220  88.0042300  36.2992760
  87.4692980  88.2174130  37.2431100  87.3558430  88.5368740  38.1382620
  88.2862720  88.6186640  36.9468380  86.3751130  96.2366600   7.6065840
  86.2945180  95.3221210   7.3357550  85.9615550  96.7333670   6.9005550
  84.5069170  98.0145620   9.4875110  83.7311270  97.5346060   9.7773680
  85.1582100  97.3351270   9.3131270  78.5235000  98.3265430  10.3650870
  77.6919880  98.0714140  10.7647380  79.1315980  98.3976200  11.1008790
  76.9326950  93.2867320   4.1493260  76.0443650  93.6283290   4.0473140
  77.2168140  93.0867640   3.2574090  74.8959960  95.8872970  10.0332960
  75.4676070  95.1195170  10.0336600  74.8961500  96.1861730   9.1239570
  76.1384830  91.2957330  11.8201890  75.9587670  90.3983080  12.1004650
  75.7364910  91.8429200  12.4948840  84.9783330  93.4973190   9.7214200
  85.3548150  92.6245070   9.6087870  84.8802840  93.8331890   8.8304640
  79.1088340  91.8698820   5.1831640  79.2155090  92.7702550   5.4900400
  78.1980700  91.8216790   4.8926290  88.7607450  90.9923630   6.6542540
  89.5817070  90.5020200   6.6968020  88.7941530  91.5821290   7.4074380
  76.7571500  93.7917830  10.4284230  77.4381610  94.0556200  11.0471630
  76.4419550  92.9518700  10.7622240  80.9496070  94.8385190   9.5156820
  81.4574290  95.3366160  10.1561840  81.4809310  94.0620390   9.3396180
  79.2332170  89.4783750  13.7820240  79.2350610  89.9956140  12.9766140
  78.4036480  89.0013930  13.7590170  88.9968930  92.9324010   9.4270080
  88.2924500  93.2208900  10.0073190  89.3581090  93.7424120   9.0669640
  78.9147500  91.1893710  11.7890690  79.2564310  92.0335760  11.4944560
  77.9763310  91.3377450  11.9056030  82.5975390  88.6775980   8.1135280
  82.9050370  88.1222870   7.3970780  81.6676090  88.8120440   7.9308270
  84.9856150  96.7424810   4.8495400  84.0585430  96.6762190   5.0783870
  85.1380970  97.6804940   4.7350640  89.0153440  98.3045110   5.3530650
  88.3965860  97.9664660   4.7056950  88.9977890  97.6604870   6.0609840
  88.4580000  94.4829650  12.7696460  88.0451180  95.3083360  13.0236450
  87.7255950  93.8974690  12.5772820  80.5912790  97.2689550   7.6315130
  80.1869790  96.5566800   7.1361030  80.6775910  96.9242790   8.5203170
  79.3041410  94.0432760  11.4114170  79.8556000  94.1528100  10.6367420
  79.8184920  94.4170360  12.1269400  87.1918140  97.5431920   2.3603400
  87.6311420  96.7054350   2.2141220  87.9046560  98.1761320   2.4467540
  78.9784140  97.5652120  15.0219510  78.8391910  98.4374920  15.3906910
  78.0965500  97.2224930  14.8767450  77.2917420  96.1634530   5.1321780
  77.1715020  96.8896620   4.5203050  76.9818310  95.3937440   4.6549690
  79.7581080  89.5069600   8.5145450  79.3149230  90.2879140   8.1829970
  80.3166070  89.8299490   9.2216390  84.0450890  92.3738120  14.1180770
  83.5830260  92.5821140  14.9300710  83.6429000  91.5597470  13.8151440
  89.0455400  93.5947070  15.2477430  88.1948990  93.2952820  15.5686500
  88.8857190  93.8389080  14.3361250  86.1405110  95.0948820  17.3476220
  86.4658520  94.2612570  17.0078450  86.9285440  95.6177340  17.4954550
  82.8739900  89.1280300   3.3951280  82.2494080  89.1240170   4.1204590
  82.7870020  88.2611260   2.9987250  81.7956980  90.0516930  10.3735050
  82.0929310  90.9579760  10.2927070  82.3442540  89.5635710   9.7594620
  79.5495300  94.6303170   6.2426700  79.3236220  94.4140340   7.1473320
  78.7687830  95.0631630   5.8972670  86.7793060  94.6366540   4.8417350
  86.1801950  95.3602340   4.6580970  87.3272670  94.5743320   4.0593800
  81.9894510  95.5288750  16.9086970  81.8938110  94.5883480  16.7587370
  82.8326490  95.7503820  16.5135040  85.3857930  93.2730080   6.8720630
  85.7787500  93.5902280   6.0589320  85.7474780  92.3941960   6.9865150
  77.1205050  91.9402420  15.0620750  76.7268440  92.7877630  15.2693530
  76.4323450  91.3028790  15.2529390  83.6950100  92.0237390  18.1317490
  83.0048420  91.8309590  18.7663580  84.4382400  92.3072030  18.6641790
  74.4222100  89.8630880   9.0950830  74.1335150  90.4333740   9.8075810
  75.1667860  89.3835330   9.4582060  85.9713070  95.8635830  10.9671410
  85.2394190  96.3722640  11.3161510  85.5737410  95.0465810  10.6660190
  82.4090460  92.5390030   9.3723900  82.4126520  92.0979980   8.5228440
  83.3041580  92.8607360   9.4795720  78.2592840  92.4216520   8.3318110
  77.9192890  92.8991750   9.0885160  77.4970160  91.9681640   7.9719210
  82.4710610  93.5402110   2.3630660  82.5923430  93.4988590   3.3116480
  82.0859120  94.4026260   2.2077390  86.4338980  91.3169510  10.3794350
  86.4511720  91.7678160  11.2236200  86.1854560  90.4175150  10.5927790
  89.8609730  88.7301690  16.2180730  90.1855500  87.9991350  16.7438710
  89.8966240  88.4115330  15.3161720  82.7098430  96.5991810  11.1189310
  83.0768560  96.1250380  11.8650650  82.5203490  97.4733380  11.4597650
  75.5738920  91.3435500   7.2482780  75.2885840  90.9791170   8.0861400
  75.5117780  90.6115960   6.6345920  80.4997800  95.6400450  13.4373520
  80.1954870  96.5192430  13.6623880  81.4544260  95.7000240  13.4730960
  85.2477510  90.2364760   3.9696150  84.4342120  89.7377930   3.8941460
  85.0539460  91.0763010   3.5532500  87.9625900  94.6084410   2.2658310
  88.8505520  94.9201640   2.0909650  87.9330990  93.7356660   1.8738890
  76.5561530  96.4803190  14.5844880  76.1976470  97.1457040  15.1718220
  76.2616090  95.6486740  14.9557500  79.7574650  96.9387430  17.4684430
  79.4574790  97.0844610  16.5712250  80.5285890  96.3792720  17.3757820
  78.1316170  88.2105310   5.8010280  78.0030800  88.2023210   6.7495200
  77.3078190  88.5488400   5.4501290  75.1310100  89.9696430  15.2616980
  74.4168620  90.1693350  15.8669590  75.5505140  89.1936000  15.6331780
  86.6248880  92.4618740  13.0118430  86.9929700  91.6413950  13.3398000
  85.7647080  92.5220630  13.4274080  89.9910910  91.4175680   3.8205990
  89.3624070  91.5221350   3.1064220  89.4962830  91.6372460   4.6099870
  81.9594940  93.6961630   5.2363870  81.2511090  94.1647970   5.6777480
  82.2439420  93.0383640   5.8709060  83.5850870  95.1158330  13.2356400
  84.0836120  95.5904150  13.9008250  83.7273820  94.1921850  13.4426430
  85.9910370  90.4212290   6.6759660  85.8678150  90.4398420   5.7269170
  86.9394930  90.4691230   6.7958060  80.1629960  92.0046710   2.6114580
  81.0120490  92.4416860   2.5454770  79.7961230  92.3166970   3.4386640
  89.0839740  96.5759470   7.5246150  88.1429880  96.5909700   7.6993840
  89.3983810  95.7895430   7.9706450  77.7568140  95.6904140   1.7683000
  77.8371730  94.7431650   1.8800400  78.6487890  96.0211020   1.8743660
  75.2838940  97.5119060  17.0039170  75.7877960  96.9326340  17.5755400
  74.5446360  97.7959290  17.5415540  77.3162020  95.6548650  17.8989240
  77.3567360  95.3562520  18.8074470  78.1707520  96.0556260  17.7396760
  81.0940410  98.2544200   3.0592750  81.5156830  98.0884070   3.9024140
  81.2191250  97.4444430   2.5647890  79.2567830  94.2340750  15.8663730
  78.7264290  93.7431700  15.2387070  79.9255900  94.6624950  15.3321660
  88.6268060  96.0406370  17.6344070  89.2088830  95.2858690  17.5464550
  88.8029830  96.5713810  16.8575550  79.7440130  91.2003120  15.9461020
  79.6497000  90.5823870  15.2211890  79.1637520  91.9269410  15.7190930
  82.5101570  89.7576360  12.9788410  82.0618870  89.7800620  12.1333960
  81.8766770  89.3595380  13.5758710  85.2525020  96.3846870  14.9838690
  85.3721230  95.7888010  15.7233530  86.1119020  96.4216560  14.5639990
  87.5912920  96.9384060  13.5601200  87.0648140  97.4626680  12.9566340
  87.9344260  97.5711450  14.1910930  82.0193790  92.9268220  16.2414510
  82.6093480  92.6184070  16.9292330  81.2014030  92.4547970  16.3974410
  86.8387220  92.5434030  16.4747530  86.1502740  91.8815570  16.4097520
  87.5593240  92.0972300  16.9195990  87.4687620  89.1385660   2.5337790
  87.7489910  88.2953560   2.8897210  86.6953350  89.3708770   3.0476540
  75.3472680  96.9000320   7.3749360  74.6921520  96.6311960   6.7309060
  76.1850630  96.7904800   6.9251340  76.3848610  97.2852890  11.9152700
  76.7521650  97.1980290  12.7948720  75.8159430  96.5219440  11.8159560
  75.9364610  94.1961980  15.8211120  75.0420660  94.1628740  16.1604830
  76.4762160  94.3948770  16.5862370  74.5610760  94.1099250   3.3174690
  73.6574840  94.3729450   3.1426350  75.0451380  94.3810420   2.5374650
  76.4404320  88.4710310  10.1694340  77.0880510  87.9207690   9.7289500
  76.8606160  88.7253460  10.9910150  76.1936320  88.6265980  12.9119660
  75.8451140  89.0829800  13.6777840  75.8624020  87.7323110  12.9942090
  83.7061140  89.8177860  16.4339080  83.6450030  90.4099690  17.1834490
  84.6461520  89.7103820  16.2889340  86.3435700  89.4747920  16.0731370
  86.9576110  89.7927210  15.4112450  86.8885260  88.9896510  16.6927230
  76.8656960  88.1542180  16.1870430  77.4139950  87.9730230  15.4236540
  76.9312270  87.3636290  16.7226740  87.0843740  88.0380060  12.4000660
  86.2103580  88.3715170  12.1973590  86.9754490  87.5653240  13.2252530
  87.9915720  90.2450930  13.7842380  87.6629080  89.4302690  13.4044110
  88.9398020  90.2020740  13.6608070  84.8318560  88.9549900  11.3393570
  84.0490350  89.4295400  11.6190330  84.5381490  88.0504730  11.2306750
  89.3839630  89.6573000   9.3842660  89.8247720  89.6018100   8.5364260
  89.1147220  90.5731010   9.4552840  76.1758970  89.2597380   3.8607290
  76.9338330  89.3726260   3.2871320  75.7136140  90.0966580   3.8150720
  82.7172780  91.3736650   6.8509600  81.9047290  90.9993540   6.5105480
  83.2214420  90.6181730   7.1530790  87.2197760  88.0379100   8.0892670
  87.8227130  88.6099310   8.5641190  86.4790750  88.6018540   7.8666570
  78.5484120  89.7861430   2.4009260  79.0776880  88.9991230   2.2717210
  79.1812440  90.4652620   2.6344790  80.7421960  89.5236570   5.4554650
  80.1124700  88.8223880   5.6224780  80.2027100  90.2840700   5.2387810
  80.8677520  88.8020550  17.8907140  80.5861790  89.3054150  17.1267960
  81.2497220  88.0042300  17.5249270  87.4692980  88.2174130  18.4687610
  87.3558430  88.5368740  19.3639130  88.2862720  88.6186640  18.1724890
  86.3751130  77.4623110  45.1552820  86.2945180  76.5477720  44.8844530
  85.9615550  77.9590180  44.4492530  84.5069170  79.2402130  47.0362090
  83.7311270  78.7602570  47.3260660  85.1582100  78.5607780  46.8618250
  78.5235000  79.5521940  47.9137850  77.6919880  79.2970650  48.3134360
  79.1315980  79.6232710  48.6495770  88.5276600  83.6462320  45.8161220
  88.0658130  82.8749560  46.1448390  89.3402150  83.6728390  46.3213670
  78.5036260  83.5862030  48.1095870  78.8064300  82.6959770  47.9306090
  79.2479850  84.1432250  47.8818120  76.9326950  74.5123830  41.6980240
  76.0443650  74.8539800  41.5960120  77.2168140  74.3124150  40.8061070
  74.8959960  77.1129480  47.5819940  75.4676070  76.3451680  47.5823580
  74.8961500  77.4118240  46.6726550  84.7539910  85.9320330  45.4365210
  84.1351350  86.3877830  44.8659650  85.6091690  86.0871790  45.0354910
  83.9478160  81.9159320  47.0432250  83.8786440  80.9749260  46.8821380
  84.7098020  82.0060730  47.6154820  76.1384830  72.5213840  49.3688870
  75.9587670  71.6239590  49.6491630  75.7364910  73.0685710  50.0435820
  84.9783330  74.7229700  47.2701180  85.3548150  73.8501580  47.1574850
  84.8802840  75.0588400  46.3791620  79.1088340  73.0955330  42.7318620
  79.2155090  73.9959060  43.0387380  78.1980700  73.0473300  42.4413270
  88.7607450  72.2180140  44.2029520  89.5817070  71.7276710  44.2455000
  88.7941530  72.8077800  44.9561360  76.7571500  75.0174340  47.9771210
  77.4381610  75.2812710  48.5958610  76.4419550  74.1775210  48.3109220
  80.9496070  76.0641700  47.0643800  81.4574290  76.5622670  47.7048820
  81.4809310  75.2876900  46.8883160  79.2332170  70.7040260  51.3307220
  79.2350610  71.2212650  50.5253120  78.4036480  70.2270440  51.3077150
  85.6203260  80.8159570  42.8297120  85.0020530  81.2809020  42.2659840
  86.1326510  81.5087050  43.2466630  80.4835020  80.3435440  49.5080720
  80.1504400  80.9704360  50.1501790  80.6601700  80.8697320  48.7282390
  88.9968930  74.1580520  46.9757060  88.2924500  74.4465410  47.5560170
  89.3581090  74.9680630  46.6156620  78.9147500  72.4150220  49.3377670
  79.2564310  73.2592270  49.0431540  77.9763310  72.5633960  49.4543010
  79.6954120  82.3116240  51.3229900  80.3128120  82.9867320  51.0414350
  78.8347240  82.7204220  51.2317400  74.9886460  81.5016100  40.2036750
  74.6114440  81.9903200  39.4721650  75.2459530  82.1741380  40.8343280
  82.5975390  69.9032490  45.6622260  82.9050370  69.3479380  44.9457760
  81.6676090  70.0376950  45.4795250  88.1490450  85.6199780  47.9529720
  88.1617610  85.2162070  47.0851980  87.5965670  86.3947070  47.8491150
  89.4435870  82.3416000  43.0419890  89.3332200  81.3990330  43.1669310
  89.4404120  82.7031640  43.9282650  87.5475890  80.5229620  49.2812330
  87.9644680  80.3089730  48.4465790  88.2715710  80.7802410  49.8520950
  84.9856150  77.9681320  42.3982380  84.0585430  77.9018700  42.6270850
  85.1380970  78.9061450  42.2837620  84.9725230  74.2398320  39.3949540
  84.0328900  74.4012280  39.4802000  85.2908490  74.9584000  38.8485530
  89.0153440  79.5301620  42.9017630  88.3965860  79.1921170  42.2543930
  88.9977890  78.8861380  43.6096820  88.4580000  75.7086160  50.3183440
  88.0451180  76.5339870  50.5723430  87.7255950  75.1231200  50.1259800
  80.5912790  78.4946060  45.1802110  80.1869790  77.7823310  44.6848010
  80.6775910  78.1499300  46.0690150  81.0594490  82.1813620  47.3441320
  80.7622780  81.5759090  46.6649100  82.0094310  82.2190930  47.2330680
  79.3041410  75.2689270  48.9601150  79.8556000  75.3784610  48.1854400
  79.8184920  75.6426870  49.6756380  89.1480100  85.7545490  51.0064420
  88.6710660  86.5617680  50.8137030  88.4641890  85.1023820  51.1590630
  87.1918140  78.7688430  39.9090380  87.6311420  77.9310860  39.7628200
  87.9046560  79.4017830  39.9954520  78.9784140  78.7908630  52.5706490
  78.8391910  79.6631430  52.9393890  78.0965500  78.4481440  52.4254430
  85.3013520  83.7084500  43.8771620  85.7409430  84.4508830  43.4627010
  85.2400410  83.9511070  44.8010580  77.2917420  77.3891040  42.6808760
  77.1715020  78.1153130  42.0690030  76.9818310  76.6193950  42.2036670
  74.9302790  80.5606180  48.4877400  75.0083210  80.6954950  47.5433120
  75.5444470  79.8522070  48.6805520  76.1750420  82.2606370  44.8983580
  75.7678500  82.4020960  44.0437180  77.0663430  81.9766530  44.6954790
  85.9929300  86.4098280  51.8050630  86.5073970  86.3206290  52.6073060
  85.1498380  86.7557980  52.0978540  87.9683700  86.6953620  41.2334630
  87.8084840  86.4056560  42.1316460  87.8030410  85.9193750  40.6979860
  80.4472080  86.4752150  43.0106250  80.2714560  85.5587690  42.7974050
  79.5927820  86.8339440  43.2504050  87.6709830  84.2041180  39.7932630
  86.9774990  84.2018470  39.1334910  88.4132690  83.7800500  39.3626800
  87.2359760  85.8303890  43.8681120  87.6916710  85.0493270  44.1819740
  87.5752280  86.5410710  44.4122300  74.9862310  81.6020350  51.0271860
  75.1493350  81.1325710  50.2091230  75.4514760  81.0943910  51.6920700
  79.7581080  70.7326110  46.0632430  79.3149230  71.5135650  45.7316950
  80.3166070  71.0556000  46.7703370  84.0450890  73.5994630  51.6667750
  83.5830260  73.8077650  52.4787690  83.6429000  72.7853980  51.3638420
  89.0455400  74.8203580  52.7964410  88.1948990  74.5209330  53.1173480
  88.8857190  75.0645590  51.8848230  82.8739900  70.3536810  40.9438260
  82.2494080  70.3496680  41.6691570  82.7870020  69.4867770  40.5474230
  81.7956980  71.2773440  47.9222030  82.0929310  72.1836270  47.8414050
  82.3442540  70.7892220  47.3081600  79.5495300  75.8559680  43.7913680
  79.3236220  75.6396850  44.6960300  78.7687830  76.2888140  43.4459650
  86.7793060  75.8623050  42.3904330  86.1801950  76.5858850  42.2067950
  87.3272670  75.7999830  41.6080780  85.3857930  74.4986590  44.4207610
  85.7787500  74.8158790  43.6076300  85.7474780  73.6198470  44.5352130
  77.1205050  73.1658930  52.6107730  76.7268440  74.0134140  52.8180510
  76.4323450  72.5285300  52.8016370  74.4222100  71.0887390  46.6437810
  74.1335150  71.6590250  47.3562790  75.1667860  70.6091840  47.0069040
  74.6092330  75.0307510  37.8540530  74.5267000  75.9738270  37.9955520
  74.2575390  74.8882420  36.9752880  85.9713070  77.0892340  48.5158390
  85.2394190  77.5979150  48.8648490  85.5737410  76.2722320  48.2147170
  82.4090460  73.7646540  46.9210880  82.4126520  73.3236490  46.0715420
  83.3041580  74.0863870  47.0282700  78.2592840  73.6473030  45.8805090
  77.9192890  74.1248260  46.6372140  77.4970160  73.1938150  45.5206190
  82.4710610  74.7658620  39.9117640  82.5923430  74.7245100  40.8603460
  82.0859120  75.6282770  39.7564370  86.4338980  72.5426020  47.9281330
  86.4511720  72.9934670  48.7723180  86.1854560  71.6431660  48.1414770
  81.4832110  77.0759760  39.3100940  80.9149010  76.6278010  38.6836850
  82.1921110  77.4352540  38.7766090  76.5601290  80.9771780  53.1867670
  76.1756080  80.3365450  53.7850630  76.8713480  81.6807900  53.7562400
  82.7098430  77.8248320  48.6676290  83.0768560  77.3506890  49.4137630
  82.5203490  78.6989890  49.0084630  75.5738920  72.5692010  44.7969760
  75.2885840  72.2047680  45.6348380  75.5117780  71.8372470  44.1832900
  80.4997800  76.8656960  50.9860500  80.1954870  77.7448940  51.2110860
  81.4544260  76.9256750  51.0217940  79.0279590  81.0717950  41.5827350
  78.2541850  80.5315570  41.4226070  79.7574220  80.5524560  41.2445110
  85.2477510  71.4621270  41.5183130  84.4342120  70.9634440  41.4428440
  85.0539460  72.3019520  41.1019480  85.1686370  80.1392370  53.2622740
  85.1023680  79.2188040  53.0080330  84.5391510  80.2367810  53.9767380
  87.9625900  75.8340920  39.8145290  88.8505520  76.1458150  39.6396630
  87.9330990  74.9613170  39.4225870  79.0716990  80.7398330  45.2206160
  79.5895660  79.9366590  45.1663050  78.6201010  80.6777470  46.0622990
  83.9586490  82.0064610  40.4933460  84.3002190  82.7506840  39.9976780
  83.1299200  82.3195730  40.8558290  76.5561530  77.7059700  52.1331860
  76.1976470  78.3713550  52.7205200  76.2616090  76.8743250  52.5044480
  85.1003100  82.9612940  53.0126540  85.1147640  82.0293900  52.7945450
  84.3928200  83.0472700  53.6516310  86.8413900  81.3280450  45.8578970
  87.1937720  80.7308580  45.1980340  85.9576230  81.0024680  46.0287220
  82.9277180  82.0878140  43.2649380  83.6148310  82.6347350  43.6456970
  82.1409600  82.6318870  43.2998990  75.0669580  77.7050960  38.7566460
  75.9364430  77.9875760  39.0402380  74.5759900  78.5186830  38.6415270
  82.2304390  79.0924170  42.8774740  82.6867170  79.9029420  43.1034930
  81.8792600  78.7747310  43.7093230  84.5337000  84.6030510  50.1067040
  85.1779220  84.8089890  50.7840460  84.8966440  83.8418910  49.6537890
  78.1316170  69.4361820  43.3497260  78.0030800  69.4279720  44.2982180
  77.3078190  69.7744910  42.9988270  85.8069080  82.6062860  48.8244490
  86.4491310  81.9056020  48.9376660  86.3318430  83.3861300  48.6441380
  89.6524800  82.8911480  38.5483630  89.4262380  82.1741920  39.1408270
  89.2621000  82.6423920  37.7105380  87.5806700  83.4057760  52.0280550
  87.9162940  83.9924450  52.7058470  86.6607040  83.2750470  52.2578340
  75.4340830  86.9178340  39.3228090  75.7938470  87.5167680  38.6685360
  75.2933170  87.4638230  40.0963120  75.1310100  71.1952940  52.8103960
  74.4168620  71.3949860  53.4156570  75.5505140  70.4192510  53.1818760
  89.2341050  80.8083420  40.2097790  88.9462750  81.2696110  40.9975670
  90.0293220  80.3481190  40.4782010  75.4182690  85.1833200  53.7970490
  75.5273810  84.2427940  53.6565880  74.7663250  85.4487950  53.1484220
  81.4509450  84.3009540  40.1401760  81.4419550  85.0339230  39.5246270
  80.5307810  84.0541120  40.2328720  77.0516090  79.5224430  40.8848520
  76.4444040  80.2623330  40.8943820  77.5265440  79.6123790  40.0586720
  86.6248880  73.6875250  50.5605410  86.9929700  72.8670460  50.8884980
  85.7647080  73.7477140  50.9761060  89.9910910  72.6432190  41.3692970
  89.3624070  72.7477860  40.6551200  89.4962830  72.8628970  42.1586850
  84.4369050  84.3637780  38.8026950  84.5381030  84.1601770  37.8728930
  83.5370790  84.1096060  39.0074730  81.9594940  74.9218140  42.7850850
  81.2511090  75.3904480  43.2264460  82.2439420  74.2640150  43.4196040
  83.5850870  76.3414840  50.7843380  84.0836120  76.8160660  51.4495230
  83.7273820  75.4178360  50.9913410  85.9910370  71.6468800  44.2246640
  85.8678150  71.6654930  43.2756150  86.9394930  71.6947740  44.3445040
  83.0787160  86.8824100  43.4974620  83.3328660  86.8445490  42.5753990
  82.1299640  86.7557430  43.4902870  80.1629960  73.2303220  40.1601560
  81.0120490  73.6673370  40.0941750  79.7961230  73.5423480  40.9873620
  89.0839740  77.8015980  45.0733130  88.1429880  77.8166210  45.2480820
  89.3983810  77.0151940  45.5193430  79.0621380  79.4835580  38.6337090
  79.8284650  79.3716940  39.1962520  79.1396070  78.7873550  37.9813860
  77.7568140  76.9160650  39.3169980  77.8371730  75.9688160  39.4287380
  78.6487890  77.2467530  39.4230640  78.5582850  87.0656040  46.4204520
  79.2945330  86.5171500  46.6913090  78.9423770  87.9312050  46.2810510
  75.4428330  83.1329610  42.2946030  74.5168110  83.3750750  42.2851440
  75.9084760  83.9603870  42.1730780  81.6685160  86.2386350  38.2430090
  82.4613770  86.5275180  37.7911880  81.1489510  85.8078520  37.5642570
  82.1862560  81.4589760  38.1072440  82.0813200  80.8442110  38.8333820
  82.0186780  80.9355650  37.3235450  82.3376880  80.1446560  54.0861670
  81.5722550  80.7131560  54.0016340  82.5192840  79.8522770  53.1929900
  85.4265290  80.5209790  38.7114430  84.8775390  80.9679090  39.3557170
  86.0484550  80.0159040  39.2352100  81.0940410  79.4800710  40.6079730
  81.5156830  79.3140580  41.4511120  81.2191250  78.6700940  40.1134870
  79.2567830  75.4597260  53.4150710  78.7264290  74.9688210  52.7874050
  79.9255900  75.8881460  52.8808640  83.6068050  78.5038320  37.8556830
  84.1273710  77.7887340  37.4897980  84.2536450  79.1424190  38.1557340
  88.1545890  79.9266720  53.1791900  88.5686910  80.0811800  54.0282320
  87.2196890  80.0521940  53.3417680  79.7440130  72.4259630  53.4948000
  79.6497000  71.8080380  52.7698870  79.1637520  73.1525920  53.2677910
  82.5101570  70.9832870  50.5275390  82.0618870  71.0057130  49.6820940
  81.8766770  70.5851890  51.1245690  82.9161120  79.8787200  51.1487830
  83.3349230  80.7219930  50.9764070  81.9969750  80.0159240  50.9194610
  85.2525020  77.6103380  52.5325670  85.3721230  77.0144520  53.2720510
  86.1119020  77.6473070  52.1126970  87.5912920  78.1640570  51.1088180
  87.0648140  78.6883190  50.5053320  87.9344260  78.7967960  51.7397910
  79.9899310  75.5533940  37.5537890  79.7888370  74.6901300  37.9151230
  79.8191360  75.4667300  36.6159490  80.7668540  86.1840210  52.2645560
  80.2289630  86.9086270  51.9454260  81.0202500  85.7070550  51.4742900
  87.4687620  70.3642170  40.0824770  87.7489910  69.5210070  40.4384190
  86.6953350  70.5965280  40.5963520  78.7882110  72.6534560  37.5415770
  79.0908010  72.6601990  36.6334920  79.5276700  72.3032420  38.0383430
  83.6230750  87.4191420  52.5232210  83.5489450  88.3226560  52.8304580
  82.7209590  87.1003320  52.4954280  82.0067040  71.5969180  38.5271970
  81.6589040  70.9193170  37.9474420  82.2079810  71.1358690  39.3415360
  84.1716080  86.5849930  40.1458570  85.0666870  86.9234900  40.1677330
  84.2033710  85.8629340  39.5182850  77.8112240  81.9576980  38.3745570
  78.2487110  82.5006650  39.0303150  78.2959970  81.1323930  38.3841910
  75.0258040  84.7466010  45.8265830  75.3561050  83.8787070  45.5944470
  75.4549040  84.9524530  46.6570790  79.6219960  83.0775020  43.4867800
  79.3215500  82.9539990  44.3871710  79.5157450  82.2183610  43.0783530
  75.5148250  85.6136600  48.5647460  75.0779240  85.7937400  49.3971610
  76.0825930  86.3711220  48.4229180  75.3472680  78.1256830  44.9236340
  74.6921520  77.8568470  44.2796040  76.1850630  78.0161310  44.4738320
  89.8362070  81.8405580  50.9500930  89.0221910  82.2702740  51.2126720
  90.2436270  82.4523990  50.3369980  88.2963120  72.9198120  39.1454830
  88.7148000  72.7329100  38.3051490  87.9899180  72.0677170  39.4557760
  76.3848610  78.5109400  49.4639680  76.7521650  78.4236800  50.3435700
  75.8159430  77.7475950  49.3646540  75.9364610  75.4218490  53.3698100
  75.0420660  75.3885250  53.7091810  76.4762160  75.6205280  54.1349350
  74.5610760  75.3355760  40.8661670  73.6574840  75.5985960  40.6913330
  75.0451380  75.6066930  40.0861630  77.1037970  74.3921300  38.7756050
  77.8129670  73.9704520  38.2903330  76.3877910  74.4596530  38.1439400
  76.7512130  70.4460630  37.8158700  77.4740260  70.9869570  38.1339920
  77.0236650  70.1724050  36.9400240  76.4404320  69.6966820  47.7181320
  77.0880510  69.1464200  47.2776480  76.8606160  69.9509970  48.5397130
  76.1936320  69.8522490  50.4606640  75.8451140  70.3086310  51.2264820
  75.8624020  68.9579620  50.5429070  81.5006720  84.5801680  50.2269550
  81.2598080  84.8476240  49.3400070  82.4409360  84.7507410  50.2820410
  77.6388720  85.9704340  51.7457610  77.0449040  85.8389040  52.4847650
  77.6312560  85.1342480  51.2799710  87.0843740  69.2636570  49.9487640
  86.2103580  69.5971680  49.7460570  86.9754490  68.7909750  50.7739510
  87.9915720  71.4707440  51.3329360  87.6629080  70.6559200  50.9531090
  88.9398020  71.4277250  51.2095050  77.2700950  83.3362720  50.6965650
  76.5435010  82.7168010  50.6291600  77.3310100  83.7303330  49.8263730
  80.8746050  85.5507720  47.4815060  81.3911070  84.9395080  46.9563320
  81.5243430  86.0536500  47.9726070  83.6141550  86.4416210  48.3084040
  83.9019360  86.1870510  47.4317050  84.1264770  85.8893570  48.8989610
  84.8318560  70.1806410  48.8880550  84.0490350  70.6551910  49.1677310
  84.5381490  69.2761240  48.7793730  89.3839630  70.8829510  46.9329640
  89.8247720  70.8274610  46.0851240  89.1147220  71.7987520  47.0039820
  75.5530950  86.6537110  43.9062410  75.3852990  86.0207790  44.6044300
  74.6865460  86.8596510  43.5556600  76.1758970  70.4853890  41.4094270
  76.9338330  70.5982770  40.8358300  75.7136140  71.3223090  41.3637700
  82.7172780  72.5993160  44.3996580  81.9047290  72.2250050  44.0592460
  83.2214420  71.8438240  44.7017770  87.2197760  69.2635610  45.6379650
  87.8227130  69.8355820  46.1128170  86.4790750  69.8275050  45.4153550
  77.1593650  85.3470340  41.3512550  76.6341270  85.7278370  40.6474510
  77.0838230  85.9721110  42.0722260  78.5484120  71.0117940  39.9496240
  79.0776880  70.2247740  39.8204190  79.1812440  71.6909130  40.1831770
  80.7421960  70.7493080  43.0041630  80.1124700  70.0480390  43.1711760
  80.2027100  71.5097210  42.7874790  79.7586620  87.2952720  40.2261800
  80.4905440  87.0112000  39.6785690  80.0180290  87.0566000  41.1161180
  78.9201410  83.4117450  40.2308130  78.2910290  83.8802550  40.7793960
  79.0349240  82.5666670  40.6654320  86.3751130  77.4623110  26.3809330
  86.2945180  76.5477720  26.1101040  85.9615550  77.9590180  25.6749040
  84.5069170  79.2402130  28.2618600  83.7311270  78.7602570  28.5517170
  85.1582100  78.5607780  28.0874760  78.5235000  79.5521940  29.1394360
  77.6919880  79.2970650  29.5390870  79.1315980  79.6232710  29.8752280
  88.5276600  83.6462320  27.0417730  88.0658130  82.8749560  27.3704900
  89.3402150  83.6728390  27.5470180  78.5036260  83.5862030  29.3352380
  78.8064300  82.6959770  29.1562600  79.2479850  84.1432250  29.1074630
  76.9326950  74.5123830  22.9236750  76.0443650  74.8539800  22.8216630
  77.2168140  74.3124150  22.0317580  74.8959960  77.1129480  28.8076450
  75.4676070  76.3451680  28.8080090  74.8961500  77.4118240  27.8983060
  84.7539910  85.9320330  26.6621720  84.1351350  86.3877830  26.0916160
  85.6091690  86.0871790  26.2611420  83.9478160  81.9159320  28.2688760
  83.8786440  80.9749260  28.1077890  84.7098020  82.0060730  28.8411330
  76.1384830  72.5213840  30.5945380  75.9587670  71.6239590  30.8748140
  75.7364910  73.0685710  31.2692330  84.9783330  74.7229700  28.4957690
  85.3548150  73.8501580  28.3831360  84.8802840  75.0588400  27.6048130
  79.1088340  73.0955330  23.9575130  79.2155090  73.9959060  24.2643890
  78.1980700  73.0473300  23.6669780  88.7607450  72.2180140  25.4286030
  89.5817070  71.7276710  25.4711510  88.7941530  72.8077800  26.1817870
  76.7571500  75.0174340  29.2027720  77.4381610  75.2812710  29.8215120
  76.4419550  74.1775210  29.5365730  80.9496070  76.0641700  28.2900310
  81.4574290  76.5622670  28.9305330  81.4809310  75.2876900  28.1139670
  79.2332170  70.7040260  32.5563730  79.2350610  71.2212650  31.7509630
  78.4036480  70.2270440  32.5333660  85.6203260  80.8159570  24.0553630
  85.0020530  81.2809020  23.4916350  86.1326510  81.5087050  24.4723140
  80.4835020  80.3435440  30.7337230  80.1504400  80.9704360  31.3758300
  80.6601700  80.8697320  29.9538900  88.9968930  74.1580520  28.2013570
  88.2924500  74.4465410  28.7816680  89.3581090  74.9680630  27.8413130
  78.9147500  72.4150220  30.5634180  79.2564310  73.2592270  30.2688050
  77.9763310  72.5633960  30.6799520  79.6954120  82.3116240  32.5486410
  80.3128120  82.9867320  32.2670860  78.8347240  82.7204220  32.4573910
  74.9886460  81.5016100  21.4293260  74.6114440  81.9903200  20.6978160
  75.2459530  82.1741380  22.0599790  82.5975390  69.9032490  26.8878770
  82.9050370  69.3479380  26.1714270  81.6676090  70.0376950  26.7051760
  88.1490450  85.6199780  29.1786230  88.1617610  85.2162070  28.3108490
  87.5965670  86.3947070  29.0747660  89.4435870  82.3416000  24.2676400
  89.3332200  81.3990330  24.3925820  89.4404120  82.7031640  25.1539160
  87.5475890  80.5229620  30.5068840  87.9644680  80.3089730  29.6722300
  88.2715710  80.7802410  31.0777460  84.9856150  77.9681320  23.6238890
  84.0585430  77.9018700  23.8527360  85.1380970  78.9061450  23.5094130
  84.9725230  74.2398320  20.6206050  84.0328900  74.4012280  20.7058510
  85.2908490  74.9584000  20.0742040  89.0153440  79.5301620  24.1274140
  88.3965860  79.1921170  23.4800440  88.9977890  78.8861380  24.8353330
  88.4580000  75.7086160  31.5439950  88.0451180  76.5339870  31.7979940
  87.7255950  75.1231200  31.3516310  80.5912790  78.4946060  26.4058620
  80.1869790  77.7823310  25.9104520  80.6775910  78.1499300  27.2946660
  81.0594490  82.1813620  28.5697830  80.7622780  81.5759090  27.8905610
  82.0094310  82.2190930  28.4587190  79.3041410  75.2689270  30.1857660
  79.8556000  75.3784610  29.4110910  79.8184920  75.6426870  30.9012890
  89.1480100  85.7545490  32.2320930  88.6710660  86.5617680  32.0393540
  88.4641890  85.1023820  32.3847140  80.1512920  81.9195310  35.2205630
  79.2541450  82.1435280  35.4679030  80.1765790  82.0430250  34.2717030
  87.1918140  78.7688430  21.1346890  87.6311420  77.9310860  20.9884710
  87.9046560  79.4017830  21.2211030  78.9784140  78.7908630  33.7963000
  78.8391910  79.6631430  34.1650400  78.0965500  78.4481440  33.6510940
  85.3013520  83.7084500  25.1028130  85.7409430  84.4508830  24.6883520
  85.2400410  83.9511070  26.0267090  80.7764490  84.7330330  36.0048150
  80.7479920  85.1373280  35.1376580  80.6129460  83.8040690  35.8419750
  77.2917420  77.3891040  23.9065270  77.1715020  78.1153130  23.2946540
  76.9818310  76.6193950  23.4293180  74.9302790  80.5606180  29.7133910
  75.0083210  80.6954950  28.7689630  75.5444470  79.8522070  29.9062030
  76.1750420  82.2606370  26.1240090  75.7678500  82.4020960  25.2693690
  77.0663430  81.9766530  25.9211300  85.9929300  86.4098280  33.0307140
  86.5073970  86.3206290  33.8329570  85.1498380  86.7557980  33.3235050
  87.9683700  86.6953620  22.4591140  87.8084840  86.4056560  23.3572970
  87.8030410  85.9193750  21.9236370  80.4472080  86.4752150  24.2362760
  80.2714560  85.5587690  24.0230560  79.5927820  86.8339440  24.4760560
  87.6709830  84.2041180  21.0189140  86.9774990  84.2018470  20.3591420
  88.4132690  83.7800500  20.5883310  87.2359760  85.8303890  25.0937630
  87.6916710  85.0493270  25.4076250  87.5752280  86.5410710  25.6378810
  74.9862310  81.6020350  32.2528370  75.1493350  81.1325710  31.4347740
  75.4514760  81.0943910  32.9177210  79.7581080  70.7326110  27.2888940
  79.3149230  71.5135650  26.9573460  80.3166070  71.0556000  27.9959880
  84.0450890  73.5994630  32.8924260  83.5830260  73.8077650  33.7044200
  83.6429000  72.7853980  32.5894930  89.0455400  74.8203580  34.0220920
  88.1948990  74.5209330  34.3429990  88.8857190  75.0645590  33.1104740
  86.1405110  76.3205330  36.1219710  86.4658520  75.4869080  35.7821940
  86.9285440  76.8433850  36.2698040  82.8739900  70.3536810  22.1694770
  82.2494080  70.3496680  22.8948080  82.7870020  69.4867770  21.7730740
  81.7956980  71.2773440  29.1478540  82.0929310  72.1836270  29.0670560
  82.3442540  70.7892220  28.5338110  79.5495300  75.8559680  25.0170190
  79.3236220  75.6396850  25.9216810  78.7687830  76.2888140  24.6716160
  86.7793060  75.8623050  23.6160840  86.1801950  76.5858850  23.4324460
  87.3272670  75.7999830  22.8337290  81.9894510  76.7545260  35.6830460
  81.8938110  75.8139990  35.5330860  82.8326490  76.9760330  35.2878530
  85.3857930  74.4986590  25.6464120  85.7787500  74.8158790  24.8332810
  85.7474780  73.6198470  25.7608640  77.1205050  73.1658930  33.8364240
  76.7268440  74.0134140  34.0437020  76.4323450  72.5285300  34.0272880
  83.6950100  73.2493900  36.9060980  83.0048420  73.0566100  37.5407070
  84.4382400  73.5328540  37.4385280  74.4222100  71.0887390  27.8694320
  74.1335150  71.6590250  28.5819300  75.1667860  70.6091840  28.2325550
  74.6092330  75.0307510  19.0797040  74.5267000  75.9738270  19.2212030
  74.2575390  74.8882420  18.2009390  85.9713070  77.0892340  29.7414900
  85.2394190  77.5979150  30.0905000  85.5737410  76.2722320  29.4403680
  82.4090460  73.7646540  28.1467390  82.4126520  73.3236490  27.2971930
  83.3041580  74.0863870  28.2539210  78.2592840  73.6473030  27.1061600
  77.9192890  74.1248260  27.8628650  77.4970160  73.1938150  26.7462700
  82.4710610  74.7658620  21.1374150  82.5923430  74.7245100  22.0859970
  82.0859120  75.6282770  20.9820880  86.4338980  72.5426020  29.1537840
  86.4511720  72.9934670  29.9979690  86.1854560  71.6431660  29.3671280
  81.4832110  77.0759760  20.5357450  80.9149010  76.6278010  19.9093360
  82.1921110  77.4352540  20.0022600  89.8609730  69.9558200  34.9924220
  90.1855500  69.2247860  35.5182200  89.8966240  69.6371840  34.0905210
  76.5601290  80.9771780  34.4124180  76.1756080  80.3365450  35.0107140
  76.8713480  81.6807900  34.9818910  82.7098430  77.8248320  29.8932800
  83.0768560  77.3506890  30.6394140  82.5203490  78.6989890  30.2341140
  75.5738920  72.5692010  26.0226270  75.2885840  72.2047680  26.8604890
  75.5117780  71.8372470  25.4089410  80.4997800  76.8656960  32.2117010
  80.1954870  77.7448940  32.4367370  81.4544260  76.9256750  32.2474450
  79.0279590  81.0717950  22.8083860  78.2541850  80.5315570  22.6482580
  79.7574220  80.5524560  22.4701620  85.2477510  71.4621270  22.7439640
  84.4342120  70.9634440  22.6684950  85.0539460  72.3019520  22.3275990
  85.1686370  80.1392370  34.4879250  85.1023680  79.2188040  34.2336840
  84.5391510  80.2367810  35.2023890  87.9625900  75.8340920  21.0401800
  88.8505520  76.1458150  20.8653140  87.9330990  74.9613170  20.6482380
  79.0716990  80.7398330  26.4462670  79.5895660  79.9366590  26.3919560
  78.6201010  80.6777470  27.2879500  83.9586490  82.0064610  21.7189970
  84.3002190  82.7506840  21.2233290  83.1299200  82.3195730  22.0814800
  76.5561530  77.7059700  33.3588370  76.1976470  78.3713550  33.9461710
  76.2616090  76.8743250  33.7300990  79.7574650  78.1643940  36.2427920
  79.4574790  78.3101120  35.3455740  80.5285890  77.6049230  36.1501310
  85.1003100  82.9612940  34.2383050  85.1147640  82.0293900  34.0201960
  84.3928200  83.0472700  34.8772820  86.8413900  81.3280450  27.0835480
  87.1937720  80.7308580  26.4236850  85.9576230  81.0024680  27.2543730
  82.9277180  82.0878140  24.4905890  83.6148310  82.6347350  24.8713480
  82.1409600  82.6318870  24.5255500  75.0669580  77.7050960  19.9822970
  75.9364430  77.9875760  20.2658890  74.5759900  78.5186830  19.8671780
  82.2304390  79.0924170  24.1031250  82.6867170  79.9029420  24.3291440
  81.8792600  78.7747310  24.9349740  84.5337000  84.6030510  31.3323550
  85.1779220  84.8089890  32.0096970  84.8966440  83.8418910  30.8794400
  78.1316170  69.4361820  24.5753770  78.0030800  69.4279720  25.5238690
  77.3078190  69.7744910  24.2244780  85.8069080  82.6062860  30.0501000
  86.4491310  81.9056020  30.1633170  86.3318430  83.3861300  29.8697890
  89.6524800  82.8911480  19.7740140  89.4262380  82.1741920  20.3664780
  89.2621000  82.6423920  18.9361890  87.5806700  83.4057760  33.2537060
  87.9162940  83.9924450  33.9314980  86.6607040  83.2750470  33.4834850
  75.4340830  86.9178340  20.5484600  75.7938470  87.5167680  19.8941870
  75.2933170  87.4638230  21.3219630  75.1310100  71.1952940  34.0360470
  74.4168620  71.3949860  34.6413080  75.5505140  70.4192510  34.4075270
  89.2341050  80.8083420  21.4354300  88.9462750  81.2696110  22.2232180
  90.0293220  80.3481190  21.7038520  75.4182690  85.1833200  35.0227000
  75.5273810  84.2427940  34.8822390  74.7663250  85.4487950  34.3740730
  83.4095280  83.4549090  36.4225120  83.0892150  82.7358330  36.9670810
  82.7353640  84.1304160  36.4961180  81.4509450  84.3009540  21.3658270
  81.4419550  85.0339230  20.7502780  80.5307810  84.0541120  21.4585230
  77.0516090  79.5224430  22.1105030  76.4444040  80.2623330  22.1200330
  77.5265440  79.6123790  21.2843230  86.6248880  73.6875250  31.7861920
  86.9929700  72.8670460  32.1141490  85.7647080  73.7477140  32.2017570
  89.9910910  72.6432190  22.5949480  89.3624070  72.7477860  21.8807710
  89.4962830  72.8628970  23.3843360  84.4369050  84.3637780  20.0283460
  84.5381030  84.1601770  19.0985440  83.5370790  84.1096060  20.2331240
  81.9594940  74.9218140  24.0107360  81.2511090  75.3904480  24.4520970
  82.2439420  74.2640150  24.6452550  83.5850870  76.3414840  32.0099890
  84.0836120  76.8160660  32.6751740  83.7273820  75.4178360  32.2169920
  85.9910370  71.6468800  25.4503150  85.8678150  71.6654930  24.5012660
  86.9394930  71.6947740  25.5701550  83.0787160  86.8824100  24.7231130
  83.3328660  86.8445490  23.8010500  82.1299640  86.7557430  24.7159380
  80.1629960  73.2303220  21.3858070  81.0120490  73.6673370  21.3198260
  79.7961230  73.5423480  22.2130130  89.0839740  77.8015980  26.2989640
  88.1429880  77.8166210  26.4737330  89.3983810  77.0151940  26.7449940
  79.0621380  79.4835580  19.8593600  79.8284650  79.3716940  20.4219030
  79.1396070  78.7873550  19.2070370  77.7568140  76.9160650  20.5426490
  77.8371730  75.9688160  20.6543890  78.6487890  77.2467530  20.6487150
  78.5582850  87.0656040  27.6461030  79.2945330  86.5171500  27.9169600
  78.9423770  87.9312050  27.5067020  75.4428330  83.1329610  23.5202540
  74.5168110  83.3750750  23.5107950  75.9084760  83.9603870  23.3987290
  77.5641130  86.2502110  36.8346610  78.3653860  86.5714160  37.2482010
  77.0492950  85.8897690  37.5566520  81.6685160  86.2386350  19.4686600
  82.4613770  86.5275180  19.0168390  81.1489510  85.8078520  18.7899080
  86.4005760  82.3581980  36.7822020  85.7943920  82.3813580  36.0417770
  86.0959870  81.6265020  37.3189270  87.8306130  86.0862270  35.3931430
  88.7827880  86.0020290  35.3431670  87.6834350  86.7503980  36.0665220
  75.2838940  78.7375570  35.7782660  75.7877960  78.1582850  36.3498890
  74.5446360  79.0215800  36.3159030  82.1862560  81.4589760  19.3328950
  82.0813200  80.8442110  20.0590330  82.0186780  80.9355650  18.5491960
  82.3376880  80.1446560  35.3118180  81.5722550  80.7131560  35.2272850
  82.5192840  79.8522770  34.4186410  85.4265290  80.5209790  19.9370940
  84.8775390  80.9679090  20.5813680  86.0484550  80.0159040  20.4608610
  89.4800230  81.8751890  35.8693200  90.2209700  82.2127650  35.3660660
  88.7172910  82.0443950  35.3162970  77.3162020  76.8805160  36.6732730
  77.3567360  76.5819030  37.5817960  78.1707520  77.2812770  36.5140250
  81.0940410  79.4800710  21.8336240  81.5156830  79.3140580  22.6767630
  81.2191250  78.6700940  21.3391380  79.2567830  75.4597260  34.6407220
  78.7264290  74.9688210  34.0130560  79.9255900  75.8881460  34.1065150
  83.6068050  78.5038320  19.0813340  84.1273710  77.7887340  18.7154490
  84.2536450  79.1424190  19.3813850  88.1545890  79.9266720  34.4048410
  88.5686910  80.0811800  35.2538830  87.2196890  80.0521940  34.5674190
  88.6268060  77.2662880  36.4087560  89.2088830  76.5115200  36.3208040
  88.8029830  77.7970320  35.6319040  79.7440130  72.4259630  34.7204510
  79.6497000  71.8080380  33.9955380  79.1637520  73.1525920  34.4934420
  82.5101570  70.9832870  31.7531900  82.0618870  71.0057130  30.9077450
  81.8766770  70.5851890  32.3502200  82.9161120  79.8787200  32.3744340
  83.3349230  80.7219930  32.2020580  81.9969750  80.0159240  32.1451120
  85.2525020  77.6103380  33.7582180  85.3721230  77.0144520  34.4977020
  86.1119020  77.6473070  33.3383480  87.5912920  78.1640570  32.3344690
  87.0648140  78.6883190  31.7309830  87.9344260  78.7967960  32.9654420
  79.9899310  75.5533940  18.7794400  79.7888370  74.6901300  19.1407740
  79.8191360  75.4667300  17.8416000  80.7668540  86.1840210  33.4902070
  80.2289630  86.9086270  33.1710770  81.0202500  85.7070550  32.6999410
  82.0193790  74.1524730  35.0158000  82.6093480  73.8440580  35.7035820
  81.2014030  73.6804480  35.1717900  86.8387220  73.7690540  35.2491020
  86.1502740  73.1072080  35.1841010  87.5593240  73.3228810  35.6939480
  87.4687620  70.3642170  21.3081280  87.7489910  69.5210070  21.6640700
  86.6953350  70.5965280  21.8220030  78.7882110  72.6534560  18.7672280
  79.0908010  72.6601990  17.8591430  79.5276700  72.3032420  19.2639940
  83.6230750  87.4191420  33.7488720  83.5489450  88.3226560  34.0561090
  82.7209590  87.1003320  33.7210790  82.0067040  71.5969180  19.7528480
  81.6589040  70.9193170  19.1730930  82.2079810  71.1358690  20.5671870
  84.1716080  86.5849930  21.3715080  85.0666870  86.9234900  21.3933840
  84.2033710  85.8629340  20.7439360  77.8112240  81.9576980  19.6002080
  78.2487110  82.5006650  20.2559660  78.2959970  81.1323930  19.6098420
  75.0258040  84.7466010  27.0522340  75.3561050  83.8787070  26.8200980
  75.4549040  84.9524530  27.8827300  79.6219960  83.0775020  24.7124310
  79.3215500  82.9539990  25.6128220  79.5157450  82.2183610  24.3040040
  75.5148250  85.6136600  29.7903970  75.0779240  85.7937400  30.6228120
  76.0825930  86.3711220  29.6485690  75.3472680  78.1256830  26.1492850
  74.6921520  77.8568470  25.5052550  76.1850630  78.0161310  25.6994830
  89.8362070  81.8405580  32.1757440  89.0221910  82.2702740  32.4383230
  90.2436270  82.4523990  31.5626490  88.2963120  72.9198120  20.3711340
  88.7148000  72.7329100  19.5308000  87.9899180  72.0677170  20.6814270
  76.3848610  78.5109400  30.6896190  76.7521650  78.4236800  31.5692210
  75.8159430  77.7475950  30.5903050  75.9364610  75.4218490  34.5954610
  75.0420660  75.3885250  34.9348320  76.4762160  75.6205280  35.3605860
  74.5610760  75.3355760  22.0918180  73.6574840  75.5985960  21.9169840
  75.0451380  75.6066930  21.3118140  77.1037970  74.3921300  20.0012560
  77.8129670  73.9704520  19.5159840  76.3877910  74.4596530  19.3695910
  76.7512130  70.4460630  19.0415210  77.4740260  70.9869570  19.3596430
  77.0236650  70.1724050  18.1656750  76.4404320  69.6966820  28.9437830
  77.0880510  69.1464200  28.5032990  76.8606160  69.9509970  29.7653640
  76.1936320  69.8522490  31.6863150  75.8451140  70.3086310  32.4521330
  75.8624020  68.9579620  31.7685580  77.8000690  83.0242090  35.8516340
  77.7570320  82.6535000  36.7330800  77.9311700  83.9619660  35.9918160
  81.5006720  84.5801680  31.4526060  81.2598080  84.8476240  30.5656580
  82.4409360  84.7507410  31.5076920  83.7061140  71.0434370  35.2082570
  83.6450030  71.6356200  35.9577980  84.6461520  70.9360330  35.0632830
  86.3435700  70.7004430  34.8474860  86.9576110  71.0183720  34.1855940
  86.8885260  70.2153020  35.4670720  76.8656960  69.3798690  34.9613920
  77.4139950  69.1986740  34.1980030  76.9312270  68.5892800  35.4970230
  77.6388720  85.9704340  32.9714120  77.0449040  85.8389040  33.7104160
  77.6312560  85.1342480  32.5056220  87.0843740  69.2636570  31.1744150
  86.2103580  69.5971680  30.9717080  86.9754490  68.7909750  31.9996020
  87.9915720  71.4707440  32.5585870  87.6629080  70.6559200  32.1787600
  88.9398020  71.4277250  32.4351560  77.2700950  83.3362720  31.9222160
  76.5435010  82.7168010  31.8548110  77.3310100  83.7303330  31.0520240
  80.8746050  85.5507720  28.7071570  81.3911070  84.9395080  28.1819830
  81.5243430  86.0536500  29.1982580  83.6141550  86.4416210  29.5340550
  83.9019360  86.1870510  28.6573560  84.1264770  85.8893570  30.1246120
  84.8318560  70.1806410  30.1137060  84.0490350  70.6551910  30.3933820
  84.5381490  69.2761240  30.0050240  89.3839630  70.8829510  28.1586150
  89.8247720  70.8274610  27.3107750  89.1147220  71.7987520  28.2296330
  75.5530950  86.6537110  25.1318920  75.3852990  86.0207790  25.8300810
  74.6865460  86.8596510  24.7813110  76.1758970  70.4853890  22.6350780
  76.9338330  70.5982770  22.0614810  75.7136140  71.3223090  22.5894210
  82.7172780  72.5993160  25.6253090  81.9047290  72.2250050  25.2848970
  83.2214420  71.8438240  25.9274280  87.2197760  69.2635610  26.8636160
  87.8227130  69.8355820  27.3384680  86.4790750  69.8275050  26.6410060
  77.1593650  85.3470340  22.5769060  76.6341270  85.7278370  21.8731020
  77.0838230  85.9721110  23.2978770  78.5484120  71.0117940  21.1752750
  79.0776880  70.2247740  21.0460700  79.1812440  71.6909130  21.4088280
  80.7421960  70.7493080  24.2298140  80.1124700  70.0480390  24.3968270
  80.2027100  71.5097210  24.0131300  83.6813910  87.3632310  36.9008750
  84.6081220  87.1276580  36.9444710  83.6664340  88.1904310  36.4194780
  80.8677520  70.0277060  36.6650630  80.5861790  70.5310660  35.9011450
  81.2497220  69.2298810  36.2992760  79.7586620  87.2952720  21.4518310
  80.4905440  87.0112000  20.9042200  80.0180290  87.0566000  22.3417690
  78.9201410  83.4117450  21.4564640  78.2910290  83.8802550  22.0050470
  79.0349240  82.5666670  21.8910830  87.4692980  69.4430640  37.2431100
  87.3558430  69.7625250  38.1382620  88.2862720  69.8443150  36.9468380
  86.3751130  77.4623110   7.6065840  86.2945180  76.5477720   7.3357550
  85.9615550  77.9590180   6.9005550  84.5069170  79.2402130   9.4875110
  83.7311270  78.7602570   9.7773680  85.1582100  78.5607780   9.3131270
  78.5235000  79.5521940  10.3650870  77.6919880  79.2970650  10.7647380
  79.1315980  79.6232710  11.1008790  88.5276600  83.6462320   8.2674240
  88.0658130  82.8749560   8.5961410  89.3402150  83.6728390   8.7726690
  78.5036260  83.5862030  10.5608890  78.8064300  82.6959770  10.3819110
  79.2479850  84.1432250  10.3331140  76.9326950  74.5123830   4.1493260
  76.0443650  74.8539800   4.0473140  77.2168140  74.3124150   3.2574090
  74.8959960  77.1129480  10.0332960  75.4676070  76.3451680  10.0336600
  74.8961500  77.4118240   9.1239570  84.7539910  85.9320330   7.8878230
  84.1351350  86.3877830   7.3172670  85.6091690  86.0871790   7.4867930
  83.9478160  81.9159320   9.4945270  83.8786440  80.9749260   9.3334400
  84.7098020  82.0060730  10.0667840  76.1384830  72.5213840  11.8201890
  75.9587670  71.6239590  12.1004650  75.7364910  73.0685710  12.4948840
  84.9783330  74.7229700   9.7214200  85.3548150  73.8501580   9.6087870
  84.8802840  75.0588400   8.8304640  79.1088340  73.0955330   5.1831640
  79.2155090  73.9959060   5.4900400  78.1980700  73.0473300   4.8926290
  88.7607450  72.2180140   6.6542540  89.5817070  71.7276710   6.6968020
  88.7941530  72.8077800   7.4074380  76.7571500  75.0174340  10.4284230
  77.4381610  75.2812710  11.0471630  76.4419550  74.1775210  10.7622240
  80.9496070  76.0641700   9.5156820  81.4574290  76.5622670  10.1561840
  81.4809310  75.2876900   9.3396180  79.2332170  70.7040260  13.7820240
  79.2350610  71.2212650  12.9766140  78.4036480  70.2270440  13.7590170
  85.6203260  80.8159570   5.2810140  85.0020530  81.2809020   4.7172860
  86.1326510  81.5087050   5.6979650  80.4835020  80.3435440  11.9593740
  80.1504400  80.9704360  12.6014810  80.6601700  80.8697320  11.1795410
  88.9968930  74.1580520   9.4270080  88.2924500  74.4465410  10.0073190
  89.3581090  74.9680630   9.0669640  78.9147500  72.4150220  11.7890690
  79.2564310  73.2592270  11.4944560  77.9763310  72.5633960  11.9056030
  79.6954120  82.3116240  13.7742920  80.3128120  82.9867320  13.4927370
  78.8347240  82.7204220  13.6830420  74.9886460  81.5016100   2.6549770
  74.6114440  81.9903200   1.9234670  75.2459530  82.1741380   3.2856300
  82.5975390  69.9032490   8.1135280  82.9050370  69.3479380   7.3970780
  81.6676090  70.0376950   7.9308270  88.1490450  85.6199780  10.4042740
  88.1617610  85.2162070   9.5365000  87.5965670  86.3947070  10.3004170
  89.4435870  82.3416000   5.4932910  89.3332200  81.3990330   5.6182330
  89.4404120  82.7031640   6.3795670  87.5475890  80.5229620  11.7325350
  87.9644680  80.3089730  10.8978810  88.2715710  80.7802410  12.3033970
  84.9856150  77.9681320   4.8495400  84.0585430  77.9018700   5.0783870
  85.1380970  78.9061450   4.7350640  89.0153440  79.5301620   5.3530650
  88.3965860  79.1921170   4.7056950  88.9977890  78.8861380   6.0609840
  88.4580000  75.7086160  12.7696460  88.0451180  76.5339870  13.0236450
  87.7255950  75.1231200  12.5772820  80.5912790  78.4946060   7.6315130
  80.1869790  77.7823310   7.1361030  80.6775910  78.1499300   8.5203170
  81.0594490  82.1813620   9.7954340  80.7622780  81.5759090   9.1162120
  82.0094310  82.2190930   9.6843700  79.3041410  75.2689270  11.4114170
  79.8556000  75.3784610  10.6367420  79.8184920  75.6426870  12.1269400
  89.1480100  85.7545490  13.4577440  88.6710660  86.5617680  13.2650050
  88.4641890  85.1023820  13.6103650  80.1512920  81.9195310  16.4462140
  79.2541450  82.1435280  16.6935540  80.1765790  82.0430250  15.4973540
  87.1918140  78.7688430   2.3603400  87.6311420  77.9310860   2.2141220
  87.9046560  79.4017830   2.4467540  78.9784140  78.7908630  15.0219510
  78.8391910  79.6631430  15.3906910  78.0965500  78.4481440  14.8767450
  85.3013520  83.7084500   6.3284640  85.7409430  84.4508830   5.9140030
  85.2400410  83.9511070   7.2523600  80.7764490  84.7330330  17.2304660
  80.7479920  85.1373280  16.3633090  80.6129460  83.8040690  17.0676260
  77.2917420  77.3891040   5.1321780  77.1715020  78.1153130   4.5203050
  76.9818310  76.6193950   4.6549690  74.9302790  80.5606180  10.9390420
  75.0083210  80.6954950   9.9946140  75.5444470  79.8522070  11.1318540
  76.1750420  82.2606370   7.3496600  75.7678500  82.4020960   6.4950200
  77.0663430  81.9766530   7.1467810  85.9929300  86.4098280  14.2563650
  86.5073970  86.3206290  15.0586080  85.1498380  86.7557980  14.5491560
  87.9683700  86.6953620   3.6847650  87.8084840  86.4056560   4.5829480
  87.8030410  85.9193750   3.1492880  80.4472080  86.4752150   5.4619270
  80.2714560  85.5587690   5.2487070  79.5927820  86.8339440   5.7017070
  87.2359760  85.8303890   6.3194140  87.6916710  85.0493270   6.6332760
  87.5752280  86.5410710   6.8635320  74.9862310  81.6020350  13.4784880
  75.1493350  81.1325710  12.6604250  75.4514760  81.0943910  14.1433720
  79.7581080  70.7326110   8.5145450  79.3149230  71.5135650   8.1829970
  80.3166070  71.0556000   9.2216390  84.0450890  73.5994630  14.1180770
  83.5830260  73.8077650  14.9300710  83.6429000  72.7853980  13.8151440
  89.0455400  74.8203580  15.2477430  88.1948990  74.5209330  15.5686500
  88.8857190  75.0645590  14.3361250  86.1405110  76.3205330  17.3476220
  86.4658520  75.4869080  17.0078450  86.9285440  76.8433850  17.4954550
  82.8739900  70.3536810   3.3951280  82.2494080  70.3496680   4.1204590
  82.7870020  69.4867770   2.9987250  81.7956980  71.2773440  10.3735050
  82.0929310  72.1836270  10.2927070  82.3442540  70.7892220   9.7594620
  79.5495300  75.8559680   6.2426700  79.3236220  75.6396850   7.1473320
  78.7687830  76.2888140   5.8972670  86.7793060  75.8623050   4.8417350
  86.1801950  76.5858850   4.6580970  87.3272670  75.7999830   4.0593800
  81.9894510  76.7545260  16.9086970  81.8938110  75.8139990  16.7587370
  82.8326490  76.9760330  16.5135040  85.3857930  74.4986590   6.8720630
  85.7787500  74.8158790   6.0589320  85.7474780  73.6198470   6.9865150
  77.1205050  73.1658930  15.0620750  76.7268440  74.0134140  15.2693530
  76.4323450  72.5285300  15.2529390  83.6950100  73.2493900  18.1317490
  83.0048420  73.0566100  18.7663580  84.4382400  73.5328540  18.6641790
  74.4222100  71.0887390   9.0950830  74.1335150  71.6590250   9.8075810
  75.1667860  70.6091840   9.4582060  85.9713070  77.0892340  10.9671410
  85.2394190  77.5979150  11.3161510  85.5737410  76.2722320  10.6660190
  82.4090460  73.7646540   9.3723900  82.4126520  73.3236490   8.5228440
  83.3041580  74.0863870   9.4795720  78.2592840  73.6473030   8.3318110
  77.9192890  74.1248260   9.0885160  77.4970160  73.1938150   7.9719210
  82.4710610  74.7658620   2.3630660  82.5923430  74.7245100   3.3116480
  82.0859120  75.6282770   2.2077390  86.4338980  72.5426020  10.3794350
  86.4511720  72.9934670  11.2236200  86.1854560  71.6431660  10.5927790
  89.8609730  69.9558200  16.2180730  90.1855500  69.2247860  16.7438710
  89.8966240  69.6371840  15.3161720  76.5601290  80.9771780  15.6380690
  76.1756080  80.3365450  16.2363650  76.8713480  81.6807900  16.2075420
  82.7098430  77.8248320  11.1189310  83.0768560  77.3506890  11.8650650
  82.5203490  78.6989890  11.4597650  75.5738920  72.5692010   7.2482780
  75.2885840  72.2047680   8.0861400  75.5117780  71.8372470   6.6345920
  80.4997800  76.8656960  13.4373520  80.1954870  77.7448940  13.6623880
  81.4544260  76.9256750  13.4730960  79.0279590  81.0717950   4.0340370
  78.2541850  80.5315570   3.8739090  79.7574220  80.5524560   3.6958130
  85.2477510  71.4621270   3.9696150  84.4342120  70.9634440   3.8941460
  85.0539460  72.3019520   3.5532500  85.1686370  80.1392370  15.7135760
  85.1023680  79.2188040  15.4593350  84.5391510  80.2367810  16.4280400
  87.9625900  75.8340920   2.2658310  88.8505520  76.1458150   2.0909650
  87.9330990  74.9613170   1.8738890  79.0716990  80.7398330   7.6719180
  79.5895660  79.9366590   7.6176070  78.6201010  80.6777470   8.5136010
  83.9586490  82.0064610   2.9446480  84.3002190  82.7506840   2.4489800
  83.1299200  82.3195730   3.3071310  76.5561530  77.7059700  14.5844880
  76.1976470  78.3713550  15.1718220  76.2616090  76.8743250  14.9557500
  79.7574650  78.1643940  17.4684430  79.4574790  78.3101120  16.5712250
  80.5285890  77.6049230  17.3757820  85.1003100  82.9612940  15.4639560
  85.1147640  82.0293900  15.2458470  84.3928200  83.0472700  16.1029330
  86.8413900  81.3280450   8.3091990  87.1937720  80.7308580   7.6493360
  85.9576230  81.0024680   8.4800240  82.9277180  82.0878140   5.7162400
  83.6148310  82.6347350   6.0969990  82.1409600  82.6318870   5.7512010
  82.2304390  79.0924170   5.3287760  82.6867170  79.9029420   5.5547950
  81.8792600  78.7747310   6.1606250  84.5337000  84.6030510  12.5580060
  85.1779220  84.8089890  13.2353480  84.8966440  83.8418910  12.1050910
  78.1316170  69.4361820   5.8010280  78.0030800  69.4279720   6.7495200
  77.3078190  69.7744910   5.4501290  85.8069080  82.6062860  11.2757510
  86.4491310  81.9056020  11.3889680  86.3318430  83.3861300  11.0954400
  87.5806700  83.4057760  14.4793570  87.9162940  83.9924450  15.1571490
  86.6607040  83.2750470  14.7091360  75.1310100  71.1952940  15.2616980
  74.4168620  71.3949860  15.8669590  75.5505140  70.4192510  15.6331780
  89.2341050  80.8083420   2.6610810  88.9462750  81.2696110   3.4488690
  90.0293220  80.3481190   2.9295030  75.4182690  85.1833200  16.2483510
  75.5273810  84.2427940  16.1078900  74.7663250  85.4487950  15.5997240
  83.4095280  83.4549090  17.6481630  83.0892150  82.7358330  18.1927320
  82.7353640  84.1304160  17.7217690  81.4509450  84.3009540   2.5914780
  81.4419550  85.0339230   1.9759290  80.5307810  84.0541120   2.6841740
  77.0516090  79.5224430   3.3361540  76.4444040  80.2623330   3.3456840
  77.5265440  79.6123790   2.5099740  86.6248880  73.6875250  13.0118430
  86.9929700  72.8670460  13.3398000  85.7647080  73.7477140  13.4274080
  89.9910910  72.6432190   3.8205990  89.3624070  72.7477860   3.1064220
  89.4962830  72.8628970   4.6099870  81.9594940  74.9218140   5.2363870
  81.2511090  75.3904480   5.6777480  82.2439420  74.2640150   5.8709060
  83.5850870  76.3414840  13.2356400  84.0836120  76.8160660  13.9008250
  83.7273820  75.4178360  13.4426430  85.9910370  71.6468800   6.6759660
  85.8678150  71.6654930   5.7269170  86.9394930  71.6947740   6.7958060
  83.0787160  86.8824100   5.9487640  83.3328660  86.8445490   5.0267010
  82.1299640  86.7557430   5.9415890  80.1629960  73.2303220   2.6114580
  81.0120490  73.6673370   2.5454770  79.7961230  73.5423480   3.4386640
  89.0839740  77.8015980   7.5246150  88.1429880  77.8166210   7.6993840
  89.3983810  77.0151940   7.9706450  77.7568140  76.9160650   1.7683000
  77.8371730  75.9688160   1.8800400  78.6487890  77.2467530   1.8743660
  78.5582850  87.0656040   8.8717540  79.2945330  86.5171500   9.1426110
  78.9423770  87.9312050   8.7323530  75.4428330  83.1329610   4.7459050
  74.5168110  83.3750750   4.7364460  75.9084760  83.9603870   4.6243800
  77.5641130  86.2502110  18.0603120  78.3653860  86.5714160  18.4738520
  77.0492950  85.8897690  18.7823030  86.4005760  82.3581980  18.0078530
  85.7943920  82.3813580  17.2674280  86.0959870  81.6265020  18.5445780
  87.8306130  86.0862270  16.6187940  88.7827880  86.0020290  16.5688180
  87.6834350  86.7503980  17.2921730  75.2838940  78.7375570  17.0039170
  75.7877960  78.1582850  17.5755400  74.5446360  79.0215800  17.5415540
  82.3376880  80.1446560  16.5374690  81.5722550  80.7131560  16.4529360
  82.5192840  79.8522770  15.6442920  89.4800230  81.8751890  17.0949710
  90.2209700  82.2127650  16.5917170  88.7172910  82.0443950  16.5419480
  77.3162020  76.8805160  17.8989240  77.3567360  76.5819030  18.8074470
  78.1707520  77.2812770  17.7396760  81.0940410  79.4800710   3.0592750
  81.5156830  79.3140580   3.9024140  81.2191250  78.6700940   2.5647890
  79.2567830  75.4597260  15.8663730  78.7264290  74.9688210  15.2387070
  79.9255900  75.8881460  15.3321660  88.1545890  79.9266720  15.6304920
  88.5686910  80.0811800  16.4795340  87.2196890  80.0521940  15.7930700
  88.6268060  77.2662880  17.6344070  89.2088830  76.5115200  17.5464550
  88.8029830  77.7970320  16.8575550  79.7440130  72.4259630  15.9461020
  79.6497000  71.8080380  15.2211890  79.1637520  73.1525920  15.7190930
  82.5101570  70.9832870  12.9788410  82.0618870  71.0057130  12.1333960
  81.8766770  70.5851890  13.5758710  82.9161120  79.8787200  13.6000850
  83.3349230  80.7219930  13.4277090  81.9969750  80.0159240  13.3707630
  85.2525020  77.6103380  14.9838690  85.3721230  77.0144520  15.7233530
  86.1119020  77.6473070  14.5639990  87.5912920  78.1640570  13.5601200
  87.0648140  78.6883190  12.9566340  87.9344260  78.7967960  14.1910930
  80.7668540  86.1840210  14.7158580  80.2289630  86.9086270  14.3967280
  81.0202500  85.7070550  13.9255920  82.0193790  74.1524730  16.2414510
  82.6093480  73.8440580  16.9292330  81.2014030  73.6804480  16.3974410
  86.8387220  73.7690540  16.4747530  86.1502740  73.1072080  16.4097520
  87.5593240  73.3228810  16.9195990  87.4687620  70.3642170   2.5337790
  87.7489910  69.5210070   2.8897210  86.6953350  70.5965280   3.0476540
  83.6230750  87.4191420  14.9745230  83.5489450  88.3226560  15.2817600
  82.7209590  87.1003320  14.9467300  84.1716080  86.5849930   2.5971590
  85.0666870  86.9234900   2.6190350  84.2033710  85.8629340   1.9695870
  75.0258040  84.7466010   8.2778850  75.3561050  83.8787070   8.0457490
  75.4549040  84.9524530   9.1083810  79.6219960  83.0775020   5.9380820
  79.3215500  82.9539990   6.8384730  79.5157450  82.2183610   5.5296550
  75.5148250  85.6136600  11.0160480  75.0779240  85.7937400  11.8484630
  76.0825930  86.3711220  10.8742200  75.3472680  78.1256830   7.3749360
  74.6921520  77.8568470   6.7309060  76.1850630  78.0161310   6.9251340
  89.8362070  81.8405580  13.4013950  89.0221910  82.2702740  13.6639740
  90.2436270  82.4523990  12.7883000  76.3848610  78.5109400  11.9152700
  76.7521650  78.4236800  12.7948720  75.8159430  77.7475950  11.8159560
  75.9364610  75.4218490  15.8211120  75.0420660  75.3885250  16.1604830
  76.4762160  75.6205280  16.5862370  74.5610760  75.3355760   3.3174690
  73.6574840  75.5985960   3.1426350  75.0451380  75.6066930   2.5374650
  76.4404320  69.6966820  10.1694340  77.0880510  69.1464200   9.7289500
  76.8606160  69.9509970  10.9910150  76.1936320  69.8522490  12.9119660
  75.8451140  70.3086310  13.6777840  75.8624020  68.9579620  12.9942090
  77.8000690  83.0242090  17.0772850  77.7570320  82.6535000  17.9587310
  77.9311700  83.9619660  17.2174670  81.5006720  84.5801680  12.6782570
  81.2598080  84.8476240  11.7913090  82.4409360  84.7507410  12.7333430
  83.7061140  71.0434370  16.4339080  83.6450030  71.6356200  17.1834490
  84.6461520  70.9360330  16.2889340  86.3435700  70.7004430  16.0731370
  86.9576110  71.0183720  15.4112450  86.8885260  70.2153020  16.6927230
  76.8656960  69.3798690  16.1870430  77.4139950  69.1986740  15.4236540
  76.9312270  68.5892800  16.7226740  77.6388720  85.9704340  14.1970630
  77.0449040  85.8389040  14.9360670  77.6312560  85.1342480  13.7312730
  87.0843740  69.2636570  12.4000660  86.2103580  69.5971680  12.1973590
  86.9754490  68.7909750  13.2252530  87.9915720  71.4707440  13.7842380
  87.6629080  70.6559200  13.4044110  88.9398020  71.4277250  13.6608070
  77.2700950  83.3362720  13.1478670  76.5435010  82.7168010  13.0804620
  77.3310100  83.7303330  12.2776750  80.8746050  85.5507720   9.9328080
  81.3911070  84.9395080   9.4076340  81.5243430  86.0536500  10.4239090
  83.6141550  86.4416210  10.7597060  83.9019360  86.1870510   9.8830070
  84.1264770  85.8893570  11.3502630  84.8318560  70.1806410  11.3393570
  84.0490350  70.6551910  11.6190330  84.5381490  69.2761240  11.2306750
  89.3839630  70.8829510   9.3842660  89.8247720  70.8274610   8.5364260
  89.1147220  71.7987520   9.4552840  75.5530950  86.6537110   6.3575430
  75.3852990  86.0207790   7.0557320  74.6865460  86.8596510   6.0069620
  76.1758970  70.4853890   3.8607290  76.9338330  70.5982770   3.2871320
  75.7136140  71.3223090   3.8150720  82.7172780  72.5993160   6.8509600
  81.9047290  72.2250050   6.5105480  83.2214420  71.8438240   7.1530790
  87.2197760  69.2635610   8.0892670  87.8227130  69.8355820   8.5641190
  86.4790750  69.8275050   7.8666570  77.1593650  85.3470340   3.8025570
  76.6341270  85.7278370   3.0987530  77.0838230  85.9721110   4.5235280
  78.5484120  71.0117940   2.4009260  79.0776880  70.2247740   2.2717210
  79.1812440  71.6909130   2.6344790  80.7421960  70.7493080   5.4554650
  80.1124700  70.0480390   5.6224780  80.2027100  71.5097210   5.2387810
  83.6813910  87.3632310  18.1265260  84.6081220  87.1276580  18.1701220
  83.6664340  88.1904310  17.6451290  80.8677520  70.0277060  17.8907140
  80.5861790  70.5310660  17.1267960  81.2497220  69.2298810  17.5249270
  79.7586620  87.2952720   2.6774820  80.4905440  87.0112000   2.1298710
  80.0180290  87.0566000   3.5674200  78.9201410  83.4117450   2.6821150
  78.2910290  83.8802550   3.2306980  79.0349240  82.5666670   3.1167340
  87.4692980  69.4430640  18.4687610  87.3558430  69.7625250  19.3639130
  88.2862720  69.8443150  18.1724890  86.3751130  58.6879620  45.1552820
  86.2945180  57.7734230  44.8844530  85.9615550  59.1846690  44.4492530
  84.5069170  60.4658640  47.0362090  83.7311270  59.9859080  47.3260660
  85.1582100  59.7864290  46.8618250  78.5235000  60.7778450  47.9137850
  77.6919880  60.5227160  48.3134360  79.1315980  60.8489220  48.6495770
  88.5276600  64.8718830  45.8161220  88.0658130  64.1006070  46.1448390
  89.3402150  64.8984900  46.3213670  78.5036260  64.8118540  48.1095870
  78.8064300  63.9216280  47.9306090  79.2479850  65.3688760  47.8818120
  76.9326950  55.7380340  41.6980240  76.0443650  56.0796310  41.5960120
  77.2168140  55.5380660  40.8061070  74.8959960  58.3385990  47.5819940
  75.4676070  57.5708190  47.5823580  74.8961500  58.6374750  46.6726550
  84.7539910  67.1576840  45.4365210  84.1351350  67.6134340  44.8659650
  85.6091690  67.3128300  45.0354910  83.9478160  63.1415830  47.0432250
  83.8786440  62.2005770  46.8821380  84.7098020  63.2317240  47.6154820
  76.1384830  53.7470350  49.3688870  75.9587670  52.8496100  49.6491630
  75.7364910  54.2942220  50.0435820  84.9783330  55.9486210  47.2701180
  85.3548150  55.0758090  47.1574850  84.8802840  56.2844910  46.3791620
  79.1088340  54.3211840  42.7318620  79.2155090  55.2215570  43.0387380
  78.1980700  54.2729810  42.4413270  88.7607450  53.4436650  44.2029520
  89.5817070  52.9533220  44.2455000  88.7941530  54.0334310  44.9561360
  76.7571500  56.2430850  47.9771210  77.4381610  56.5069220  48.5958610
  76.4419550  55.4031720  48.3109220  80.9496070  57.2898210  47.0643800
  81.4574290  57.7879180  47.7048820  81.4809310  56.5133410  46.8883160
  79.2332170  51.9296770  51.3307220  79.2350610  52.4469160  50.5253120
  78.4036480  51.4526950  51.3077150  85.6203260  62.0416080  42.8297120
  85.0020530  62.5065530  42.2659840  86.1326510  62.7343560  43.2466630
  80.4835020  61.5691950  49.5080720  80.1504400  62.1960870  50.1501790
  80.6601700  62.0953830  48.7282390  88.9968930  55.3837030  46.9757060
  88.2924500  55.6721920  47.5560170  89.3581090  56.1937140  46.6156620
  78.9147500  53.6406730  49.3377670  79.2564310  54.4848780  49.0431540
  77.9763310  53.7890470  49.4543010  79.6954120  63.5372750  51.3229900
  80.3128120  64.2123830  51.0414350  78.8347240  63.9460730  51.2317400
  74.9886460  62.7272610  40.2036750  74.6114440  63.2159710  39.4721650
  75.2459530  63.3997890  40.8343280  82.5975390  51.1289000  45.6622260
  82.9050370  50.5735890  44.9457760  81.6676090  51.2633460  45.4795250
  88.1490450  66.8456290  47.9529720  88.1617610  66.4418580  47.0851980
  87.5965670  67.6203580  47.8491150  89.4435870  63.5672510  43.0419890
  89.3332200  62.6246840  43.1669310  89.4404120  63.9288150  43.9282650
  87.5475890  61.7486130  49.2812330  87.9644680  61.5346240  48.4465790
  88.2715710  62.0058920  49.8520950  84.9856150  59.1937830  42.3982380
  84.0585430  59.1275210  42.6270850  85.1380970  60.1317960  42.2837620
  84.9725230  55.4654830  39.3949540  84.0328900  55.6268790  39.4802000
  85.2908490  56.1840510  38.8485530  89.0153440  60.7558130  42.9017630
  88.3965860  60.4177680  42.2543930  88.9977890  60.1117890  43.6096820
  88.4580000  56.9342670  50.3183440  88.0451180  57.7596380  50.5723430
  87.7255950  56.3487710  50.1259800  80.5912790  59.7202570  45.1802110
  80.1869790  59.0079820  44.6848010  80.6775910  59.3755810  46.0690150
  81.0594490  63.4070130  47.3441320  80.7622780  62.8015600  46.6649100
  82.0094310  63.4447440  47.2330680  79.3041410  56.4945780  48.9601150
  79.8556000  56.6041120  48.1854400  79.8184920  56.8683380  49.6756380
  89.1480100  66.9802000  51.0064420  88.6710660  67.7874190  50.8137030
  88.4641890  66.3280330  51.1590630  87.1918140  59.9944940  39.9090380
  87.6311420  59.1567370  39.7628200  87.9046560  60.6274340  39.9954520
  78.9784140  60.0165140  52.5706490  78.8391910  60.8887940  52.9393890
  78.0965500  59.6737950  52.4254430  85.3013520  64.9341010  43.8771620
  85.7409430  65.6765340  43.4627010  85.2400410  65.1767580  44.8010580
  77.2917420  58.6147550  42.6808760  77.1715020  59.3409640  42.0690030
  76.9818310  57.8450460  42.2036670  74.9302790  61.7862690  48.4877400
  75.0083210  61.9211460  47.5433120  75.5444470  61.0778580  48.6805520
  76.1750420  63.4862880  44.8983580  75.7678500  63.6277470  44.0437180
  77.0663430  63.2023040  44.6954790  85.9929300  67.6354790  51.8050630
  86.5073970  67.5462800  52.6073060  85.1498380  67.9814490  52.0978540
  87.9683700  67.9210130  41.2334630  87.8084840  67.6313070  42.1316460
  87.8030410  67.1450260  40.6979860  80.4472080  67.7008660  43.0106250
  80.2714560  66.7844200  42.7974050  79.5927820  68.0595950  43.2504050
  87.6709830  65.4297690  39.7932630  86.9774990  65.4274980  39.1334910
  88.4132690  65.0057010  39.3626800  87.2359760  67.0560400  43.8681120
  87.6916710  66.2749780  44.1819740  87.5752280  67.7667220  44.4122300
  74.9862310  62.8276860  51.0271860  75.1493350  62.3582220  50.2091230
  75.4514760  62.3200420  51.6920700  79.7581080  51.9582620  46.0632430
  79.3149230  52.7392160  45.7316950  80.3166070  52.2812510  46.7703370
  84.0450890  54.8251140  51.6667750  83.5830260  55.0334160  52.4787690
  83.6429000  54.0110490  51.3638420  89.0455400  56.0460090  52.7964410
  88.1948990  55.7465840  53.1173480  88.8857190  56.2902100  51.8848230
  82.8739900  51.5793320  40.9438260  82.2494080  51.5753190  41.6691570
  82.7870020  50.7124280  40.5474230  81.7956980  52.5029950  47.9222030
  82.0929310  53.4092780  47.8414050  82.3442540  52.0148730  47.3081600
  79.5495300  57.0816190  43.7913680  79.3236220  56.8653360  44.6960300
  78.7687830  57.5144650  43.4459650  86.7793060  57.0879560  42.3904330
  86.1801950  57.8115360  42.2067950  87.3272670  57.0256340  41.6080780
  85.3857930  55.7243100  44.4207610  85.7787500  56.0415300  43.6076300
  85.7474780  54.8454980  44.5352130  77.1205050  54.3915440  52.6107730
  76.7268440  55.2390650  52.8180510  76.4323450  53.7541810  52.8016370
  74.4222100  52.3143900  46.6437810  74.1335150  52.8846760  47.3562790
  75.1667860  51.8348350  47.0069040  74.6092330  56.2564020  37.8540530
  74.5267000  57.1994780  37.9955520  74.2575390  56.1138930  36.9752880
  85.9713070  58.3148850  48.5158390  85.2394190  58.8235660  48.8648490
  85.5737410  57.4978830  48.2147170  82.4090460  54.9903050  46.9210880
  82.4126520  54.5493000  46.0715420  83.3041580  55.3120380  47.0282700
  78.2592840  54.8729540  45.8805090  77.9192890  55.3504770  46.6372140
  77.4970160  54.4194660  45.5206190  82.4710610  55.9915130  39.9117640
  82.5923430  55.9501610  40.8603460  82.0859120  56.8539280  39.7564370
  86.4338980  53.7682530  47.9281330  86.4511720  54.2191180  48.7723180
  86.1854560  52.8688170  48.1414770  81.4832110  58.3016270  39.3100940
  80.9149010  57.8534520  38.6836850  82.1921110  58.6609050  38.7766090
  76.5601290  62.2028290  53.1867670  76.1756080  61.5621960  53.7850630
  76.8713480  62.9064410  53.7562400  82.7098430  59.0504830  48.6676290
  83.0768560  58.5763400  49.4137630  82.5203490  59.9246400  49.0084630
  75.5738920  53.7948520  44.7969760  75.2885840  53.4304190  45.6348380
  75.5117780  53.0628980  44.1832900  80.4997800  58.0913470  50.9860500
  80.1954870  58.9705450  51.2110860  81.4544260  58.1513260  51.0217940
  79.0279590  62.2974460  41.5827350  78.2541850  61.7572080  41.4226070
  79.7574220  61.7781070  41.2445110  85.2477510  52.6877780  41.5183130
  84.4342120  52.1890950  41.4428440  85.0539460  53.5276030  41.1019480
  85.1686370  61.3648880  53.2622740  85.1023680  60.4444550  53.0080330
  84.5391510  61.4624320  53.9767380  87.9625900  57.0597430  39.8145290
  88.8505520  57.3714660  39.6396630  87.9330990  56.1869680  39.4225870
  79.0716990  61.9654840  45.2206160  79.5895660  61.1623100  45.1663050
  78.6201010  61.9033980  46.0622990  83.9586490  63.2321120  40.4933460
  84.3002190  63.9763350  39.9976780  83.1299200  63.5452240  40.8558290
  76.5561530  58.9316210  52.1331860  76.1976470  59.5970060  52.7205200
  76.2616090  58.0999760  52.5044480  85.1003100  64.1869450  53.0126540
  85.1147640  63.2550410  52.7945450  84.3928200  64.2729210  53.6516310
  86.8413900  62.5536960  45.8578970  87.1937720  61.9565090  45.1980340
  85.9576230  62.2281190  46.0287220  82.9277180  63.3134650  43.2649380
  83.6148310  63.8603860  43.6456970  82.1409600  63.8575380  43.2998990
  75.0669580  58.9307470  38.7566460  75.9364430  59.2132270  39.0402380
  74.5759900  59.7443340  38.6415270  82.2304390  60.3180680  42.8774740
  82.6867170  61.1285930  43.1034930  81.8792600  60.0003820  43.7093230
  84.5337000  65.8287020  50.1067040  85.1779220  66.0346400  50.7840460
  84.8966440  65.0675420  49.6537890  78.1316170  50.6618330  43.3497260
  78.0030800  50.6536230  44.2982180  77.3078190  51.0001420  42.9988270
  85.8069080  63.8319370  48.8244490  86.4491310  63.1312530  48.9376660
  86.3318430  64.6117810  48.6441380  89.6524800  64.1167990  38.5483630
  89.4262380  63.3998430  39.1408270  89.2621000  63.8680430  37.7105380
  87.5806700  64.6314270  52.0280550  87.9162940  65.2180960  52.7058470
  86.6607040  64.5006980  52.2578340  75.4340830  68.1434850  39.3228090
  75.7938470  68.7424190  38.6685360  75.2933170  68.6894740  40.0963120
  75.1310100  52.4209450  52.8103960  74.4168620  52.6206370  53.4156570
  75.5505140  51.6449020  53.1818760  89.2341050  62.0339930  40.2097790
  88.9462750  62.4952620  40.9975670  90.0293220  61.5737700  40.4782010
  75.4182690  66.4089710  53.7970490  75.5273810  65.4684450  53.6565880
  74.7663250  66.6744460  53.1484220  81.4509450  65.5266050  40.1401760
  81.4419550  66.2595740  39.5246270  80.5307810  65.2797630  40.2328720
  77.0516090  60.7480940  40.8848520  76.4444040  61.4879840  40.8943820
  77.5265440  60.8380300  40.0586720  86.6248880  54.9131760  50.5605410
  86.9929700  54.0926970  50.8884980  85.7647080  54.9733650  50.9761060
  89.9910910  53.8688700  41.3692970  89.3624070  53.9734370  40.6551200
  89.4962830  54.0885480  42.1586850  84.4369050  65.5894290  38.8026950
  84.5381030  65.3858280  37.8728930  83.5370790  65.3352570  39.0074730
  81.9594940  56.1474650  42.7850850  81.2511090  56.6160990  43.2264460
  82.2439420  55.4896660  43.4196040  83.5850870  57.5671350  50.7843380
  84.0836120  58.0417170  51.4495230  83.7273820  56.6434870  50.9913410
  85.9910370  52.8725310  44.2246640  85.8678150  52.8911440  43.2756150
  86.9394930  52.9204250  44.3445040  83.0787160  68.1080610  43.4974620
  83.3328660  68.0702000  42.5753990  82.1299640  67.9813940  43.4902870
  80.1629960  54.4559730  40.1601560  81.0120490  54.8929880  40.0941750
  79.7961230  54.7679990  40.9873620  89.0839740  59.0272490  45.0733130
  88.1429880  59.0422720  45.2480820  89.3983810  58.2408450  45.5193430
  79.0621380  60.7092090  38.6337090  79.8284650  60.5973450  39.1962520
  79.1396070  60.0130060  37.9813860  77.7568140  58.1417160  39.3169980
  77.8371730  57.1944670  39.4287380  78.6487890  58.4724040  39.4230640
  78.5582850  68.2912550  46.4204520  79.2945330  67.7428010  46.6913090
  78.9423770  69.1568560  46.2810510  75.4428330  64.3586120  42.2946030
  74.5168110  64.6007260  42.2851440  75.9084760  65.1860380  42.1730780
  81.6685160  67.4642860  38.2430090  82.4613770  67.7531690  37.7911880
  81.1489510  67.0335030  37.5642570  82.1862560  62.6846270  38.1072440
  82.0813200  62.0698620  38.8333820  82.0186780  62.1612160  37.3235450
  82.3376880  61.3703070  54.0861670  81.5722550  61.9388070  54.0016340
  82.5192840  61.0779280  53.1929900  85.4265290  61.7466300  38.7114430
  84.8775390  62.1935600  39.3557170  86.0484550  61.2415550  39.2352100
  81.0940410  60.7057220  40.6079730  81.5156830  60.5397090  41.4511120
  81.2191250  59.8957450  40.1134870  79.2567830  56.6853770  53.4150710
  78.7264290  56.1944720  52.7874050  79.9255900  57.1137970  52.8808640
  83.6068050  59.7294830  37.8556830  84.1273710  59.0143850  37.4897980
  84.2536450  60.3680700  38.1557340  88.1545890  61.1523230  53.1791900
  88.5686910  61.3068310  54.0282320  87.2196890  61.2778450  53.3417680
  79.7440130  53.6516140  53.4948000  79.6497000  53.0336890  52.7698870
  79.1637520  54.3782430  53.2677910  82.5101570  52.2089380  50.5275390
  82.0618870  52.2313640  49.6820940  81.8766770  51.8108400  51.1245690
  82.9161120  61.1043710  51.1487830  83.3349230  61.9476440  50.9764070
  81.9969750  61.2415750  50.9194610  85.2525020  58.8359890  52.5325670
  85.3721230  58.2401030  53.2720510  86.1119020  58.8729580  52.1126970
  87.5912920  59.3897080  51.1088180  87.0648140  59.9139700  50.5053320
  87.9344260  60.0224470  51.7397910  79.9899310  56.7790450  37.5537890
  79.7888370  55.9157810  37.9151230  79.8191360  56.6923810  36.6159490
  80.7668540  67.4096720  52.2645560  80.2289630  68.1342780  51.9454260
  81.0202500  66.9327060  51.4742900  87.4687620  51.5898680  40.0824770
  87.7489910  50.7466580  40.4384190  86.6953350  51.8221790  40.5963520
  78.7882110  53.8791070  37.5415770  79.0908010  53.8858500  36.6334920
  79.5276700  53.5288930  38.0383430  83.6230750  68.6447930  52.5232210
  83.5489450  69.5483070  52.8304580  82.7209590  68.3259830  52.4954280
  82.0067040  52.8225690  38.5271970  81.6589040  52.1449680  37.9474420
  82.2079810  52.3615200  39.3415360  84.1716080  67.8106440  40.1458570
  85.0666870  68.1491410  40.1677330  84.2033710  67.0885850  39.5182850
  77.8112240  63.1833490  38.3745570  78.2487110  63.7263160  39.0303150
  78.2959970  62.3580440  38.3841910  75.0258040  65.9722520  45.8265830
  75.3561050  65.1043580  45.5944470  75.4549040  66.1781040  46.6570790
  79.6219960  64.3031530  43.4867800  79.3215500  64.1796500  44.3871710
  79.5157450  63.4440120  43.0783530  75.5148250  66.8393110  48.5647460
  75.0779240  67.0193910  49.3971610  76.0825930  67.5967730  48.4229180
  75.3472680  59.3513340  44.9236340  74.6921520  59.0824980  44.2796040
  76.1850630  59.2417820  44.4738320  89.8362070  63.0662090  50.9500930
  89.0221910  63.4959250  51.2126720  90.2436270  63.6780500  50.3369980
  88.2963120  54.1454630  39.1454830  88.7148000  53.9585610  38.3051490
  87.9899180  53.2933680  39.4557760  76.3848610  59.7365910  49.4639680
  76.7521650  59.6493310  50.3435700  75.8159430  58.9732460  49.3646540
  75.9364610  56.6475000  53.3698100  75.0420660  56.6141760  53.7091810
  76.4762160  56.8461790  54.1349350  74.5610760  56.5612270  40.8661670
  73.6574840  56.8242470  40.6913330  75.0451380  56.8323440  40.0861630
  77.1037970  55.6177810  38.7756050  77.8129670  55.1961030  38.2903330
  76.3877910  55.6853040  38.1439400  76.7512130  51.6717140  37.8158700
  77.4740260  52.2126080  38.1339920  77.0236650  51.3980560  36.9400240
  76.4404320  50.9223330  47.7181320  77.0880510  50.3720710  47.2776480
  76.8606160  51.1766480  48.5397130  76.1936320  51.0779000  50.4606640
  75.8451140  51.5342820  51.2264820  75.8624020  50.1836130  50.5429070
  81.5006720  65.8058190  50.2269550  81.2598080  66.0732750  49.3400070
  82.4409360  65.9763920  50.2820410  77.6388720  67.1960850  51.7457610
  77.0449040  67.0645550  52.4847650  77.6312560  66.3598990  51.2799710
  87.0843740  50.4893080  49.9487640  86.2103580  50.8228190  49.7460570
  86.9754490  50.0166260  50.7739510  87.9915720  52.6963950  51.3329360
  87.6629080  51.8815710  50.9531090  88.9398020  52.6533760  51.2095050
  77.2700950  64.5619230  50.6965650  76.5435010  63.9424520  50.6291600
  77.3310100  64.9559840  49.8263730  80.8746050  66.7764230  47.4815060
  81.3911070  66.1651590  46.9563320  81.5243430  67.2793010  47.9726070
  83.6141550  67.6672720  48.3084040  83.9019360  67.4127020  47.4317050
  84.1264770  67.1150080  48.8989610  84.8318560  51.4062920  48.8880550
  84.0490350  51.8808420  49.1677310  84.5381490  50.5017750  48.7793730
  89.3839630  52.1086020  46.9329640  89.8247720  52.0531120  46.0851240
  89.1147220  53.0244030  47.0039820  75.5530950  67.8793620  43.9062410
  75.3852990  67.2464300  44.6044300  74.6865460  68.0853020  43.5556600
  76.1758970  51.7110400  41.4094270  76.9338330  51.8239280  40.8358300
  75.7136140  52.5479600  41.3637700  82.7172780  53.8249670  44.3996580
  81.9047290  53.4506560  44.0592460  83.2214420  53.0694750  44.7017770
  87.2197760  50.4892120  45.6379650  87.8227130  51.0612330  46.1128170
  86.4790750  51.0531560  45.4153550  77.1593650  66.5726850  41.3512550
  76.6341270  66.9534880  40.6474510  77.0838230  67.1977620  42.0722260
  78.5484120  52.2374450  39.9496240  79.0776880  51.4504250  39.8204190
  79.1812440  52.9165640  40.1831770  80.7421960  51.9749590  43.0041630
  80.1124700  51.2736900  43.1711760  80.2027100  52.7353720  42.7874790
  79.7586620  68.5209230  40.2261800  80.4905440  68.2368510  39.6785690
  80.0180290  68.2822510  41.1161180  78.9201410  64.6373960  40.2308130
  78.2910290  65.1059060  40.7793960  79.0349240  63.7923180  40.6654320
  86.3751130  58.6879620  26.3809330  86.2945180  57.7734230  26.1101040
  85.9615550  59.1846690  25.6749040  84.5069170  60.4658640  28.2618600
  83.7311270  59.9859080  28.5517170  85.1582100  59.7864290  28.0874760
  78.5235000  60.7778450  29.1394360  77.6919880  60.5227160  29.5390870
  79.1315980  60.8489220  29.8752280  88.5276600  64.8718830  27.0417730
  88.0658130  64.1006070  27.3704900  89.3402150  64.8984900  27.5470180
  78.5036260  64.8118540  29.3352380  78.8064300  63.9216280  29.1562600
  79.2479850  65.3688760  29.1074630  76.9326950  55.7380340  22.9236750
  76.0443650  56.0796310  22.8216630  77.2168140  55.5380660  22.0317580
  74.8959960  58.3385990  28.8076450  75.4676070  57.5708190  28.8080090
  74.8961500  58.6374750  27.8983060  84.7539910  67.1576840  26.6621720
  84.1351350  67.6134340  26.0916160  85.6091690  67.3128300  26.2611420
  83.9478160  63.1415830  28.2688760  83.8786440  62.2005770  28.1077890
  84.7098020  63.2317240  28.8411330  76.1384830  53.7470350  30.5945380
  75.9587670  52.8496100  30.8748140  75.7364910  54.2942220  31.2692330
  84.9783330  55.9486210  28.4957690  85.3548150  55.0758090  28.3831360
  84.8802840  56.2844910  27.6048130  79.1088340  54.3211840  23.9575130
  79.2155090  55.2215570  24.2643890  78.1980700  54.2729810  23.6669780
  88.7607450  53.4436650  25.4286030  89.5817070  52.9533220  25.4711510
  88.7941530  54.0334310  26.1817870  76.7571500  56.2430850  29.2027720
  77.4381610  56.5069220  29.8215120  76.4419550  55.4031720  29.5365730
  80.9496070  57.2898210  28.2900310  81.4574290  57.7879180  28.9305330
  81.4809310  56.5133410  28.1139670  79.2332170  51.9296770  32.5563730
  79.2350610  52.4469160  31.7509630  78.4036480  51.4526950  32.5333660
  85.6203260  62.0416080  24.0553630  85.0020530  62.5065530  23.4916350
  86.1326510  62.7343560  24.4723140  80.4835020  61.5691950  30.7337230
  80.1504400  62.1960870  31.3758300  80.6601700  62.0953830  29.9538900
  88.9968930  55.3837030  28.2013570  88.2924500  55.6721920  28.7816680
  89.3581090  56.1937140  27.8413130  78.9147500  53.6406730  30.5634180
  79.2564310  54.4848780  30.2688050  77.9763310  53.7890470  30.6799520
  79.6954120  63.5372750  32.5486410  80.3128120  64.2123830  32.2670860
  78.8347240  63.9460730  32.4573910  74.9886460  62.7272610  21.4293260
  74.6114440  63.2159710  20.6978160  75.2459530  63.3997890  22.0599790
  82.5975390  51.1289000  26.8878770  82.9050370  50.5735890  26.1714270
  81.6676090  51.2633460  26.7051760  88.1490450  66.8456290  29.1786230
  88.1617610  66.4418580  28.3108490  87.5965670  67.6203580  29.0747660
  89.4435870  63.5672510  24.2676400  89.3332200  62.6246840  24.3925820
  89.4404120  63.9288150  25.1539160  87.5475890  61.7486130  30.5068840
  87.9644680  61.5346240  29.6722300  88.2715710  62.0058920  31.0777460
  84.9856150  59.1937830  23.6238890  84.0585430  59.1275210  23.8527360
  85.1380970  60.1317960  23.5094130  84.9725230  55.4654830  20.6206050
  84.0328900  55.6268790  20.7058510  85.2908490  56.1840510  20.0742040
  89.0153440  60.7558130  24.1274140  88.3965860  60.4177680  23.4800440
  88.9977890  60.1117890  24.8353330  88.4580000  56.9342670  31.5439950
  88.0451180  57.7596380  31.7979940  87.7255950  56.3487710  31.3516310
  80.5912790  59.7202570  26.4058620  80.1869790  59.0079820  25.9104520
  80.6775910  59.3755810  27.2946660  81.0594490  63.4070130  28.5697830
  80.7622780  62.8015600  27.8905610  82.0094310  63.4447440  28.4587190
  79.3041410  56.4945780  30.1857660  79.8556000  56.6041120  29.4110910
  79.8184920  56.8683380  30.9012890  89.1480100  66.9802000  32.2320930
  88.6710660  67.7874190  32.0393540  88.4641890  66.3280330  32.3847140
  80.1512920  63.1451820  35.2205630  79.2541450  63.3691790  35.4679030
  80.1765790  63.2686760  34.2717030  87.1918140  59.9944940  21.1346890
  87.6311420  59.1567370  20.9884710  87.9046560  60.6274340  21.2211030
  78.9784140  60.0165140  33.7963000  78.8391910  60.8887940  34.1650400
  78.0965500  59.6737950  33.6510940  85.3013520  64.9341010  25.1028130
  85.7409430  65.6765340  24.6883520  85.2400410  65.1767580  26.0267090
  80.7764490  65.9586840  36.0048150  80.7479920  66.3629790  35.1376580
  80.6129460  65.0297200  35.8419750  77.2917420  58.6147550  23.9065270
  77.1715020  59.3409640  23.2946540  76.9818310  57.8450460  23.4293180
  74.9302790  61.7862690  29.7133910  75.0083210  61.9211460  28.7689630
  75.5444470  61.0778580  29.9062030  76.1750420  63.4862880  26.1240090
  75.7678500  63.6277470  25.2693690  77.0663430  63.2023040  25.9211300
  85.9929300  67.6354790  33.0307140  86.5073970  67.5462800  33.8329570
  85.1498380  67.9814490  33.3235050  87.9683700  67.9210130  22.4591140
  87.8084840  67.6313070  23.3572970  87.8030410  67.1450260  21.9236370
  80.4472080  67.7008660  24.2362760  80.2714560  66.7844200  24.0230560
  79.5927820  68.0595950  24.4760560  87.6709830  65.4297690  21.0189140
  86.9774990  65.4274980  20.3591420  88.4132690  65.0057010  20.5883310
  87.2359760  67.0560400  25.0937630  87.6916710  66.2749780  25.4076250
  87.5752280  67.7667220  25.6378810  74.9862310  62.8276860  32.2528370
  75.1493350  62.3582220  31.4347740  75.4514760  62.3200420  32.9177210
  79.7581080  51.9582620  27.2888940  79.3149230  52.7392160  26.9573460
  80.3166070  52.2812510  27.9959880  84.0450890  54.8251140  32.8924260
  83.5830260  55.0334160  33.7044200  83.6429000  54.0110490  32.5894930
  89.0455400  56.0460090  34.0220920  88.1948990  55.7465840  34.3429990
  88.8857190  56.2902100  33.1104740  86.1405110  57.5461840  36.1219710
  86.4658520  56.7125590  35.7821940  86.9285440  58.0690360  36.2698040
  82.8739900  51.5793320  22.1694770  82.2494080  51.5753190  22.8948080
  82.7870020  50.7124280  21.7730740  81.7956980  52.5029950  29.1478540
  82.0929310  53.4092780  29.0670560  82.3442540  52.0148730  28.5338110
  79.5495300  57.0816190  25.0170190  79.3236220  56.8653360  25.9216810
  78.7687830  57.5144650  24.6716160  86.7793060  57.0879560  23.6160840
  86.1801950  57.8115360  23.4324460  87.3272670  57.0256340  22.8337290
  81.9894510  57.9801770  35.6830460  81.8938110  57.0396500  35.5330860
  82.8326490  58.2016840  35.2878530  85.3857930  55.7243100  25.6464120
  85.7787500  56.0415300  24.8332810  85.7474780  54.8454980  25.7608640
  77.1205050  54.3915440  33.8364240  76.7268440  55.2390650  34.0437020
  76.4323450  53.7541810  34.0272880  83.6950100  54.4750410  36.9060980
  83.0048420  54.2822610  37.5407070  84.4382400  54.7585050  37.4385280
  74.4222100  52.3143900  27.8694320  74.1335150  52.8846760  28.5819300
  75.1667860  51.8348350  28.2325550  74.6092330  56.2564020  19.0797040
  74.5267000  57.1994780  19.2212030  74.2575390  56.1138930  18.2009390
  85.9713070  58.3148850  29.7414900  85.2394190  58.8235660  30.0905000
  85.5737410  57.4978830  29.4403680  82.4090460  54.9903050  28.1467390
  82.4126520  54.5493000  27.2971930  83.3041580  55.3120380  28.2539210
  78.2592840  54.8729540  27.1061600  77.9192890  55.3504770  27.8628650
  77.4970160  54.4194660  26.7462700  82.4710610  55.9915130  21.1374150
  82.5923430  55.9501610  22.0859970  82.0859120  56.8539280  20.9820880
  86.4338980  53.7682530  29.1537840  86.4511720  54.2191180  29.9979690
  86.1854560  52.8688170  29.3671280  81.4832110  58.3016270  20.5357450
  80.9149010  57.8534520  19.9093360  82.1921110  58.6609050  20.0022600
  89.8609730  51.1814710  34.9924220  90.1855500  50.4504370  35.5182200
  89.8966240  50.8628350  34.0905210  76.5601290  62.2028290  34.4124180
  76.1756080  61.5621960  35.0107140  76.8713480  62.9064410  34.9818910
  82.7098430  59.0504830  29.8932800  83.0768560  58.5763400  30.6394140
  82.5203490  59.9246400  30.2341140  75.5738920  53.7948520  26.0226270
  75.2885840  53.4304190  26.8604890  75.5117780  53.0628980  25.4089410
  80.4997800  58.0913470  32.2117010  80.1954870  58.9705450  32.4367370
  81.4544260  58.1513260  32.2474450  79.0279590  62.2974460  22.8083860
  78.2541850  61.7572080  22.6482580  79.7574220  61.7781070  22.4701620
  85.2477510  52.6877780  22.7439640  84.4342120  52.1890950  22.6684950
  85.0539460  53.5276030  22.3275990  85.1686370  61.3648880  34.4879250
  85.1023680  60.4444550  34.2336840  84.5391510  61.4624320  35.2023890
  87.9625900  57.0597430  21.0401800  88.8505520  57.3714660  20.8653140
  87.9330990  56.1869680  20.6482380  79.0716990  61.9654840  26.4462670
  79.5895660  61.1623100  26.3919560  78.6201010  61.9033980  27.2879500
  83.9586490  63.2321120  21.7189970  84.3002190  63.9763350  21.2233290
  83.1299200  63.5452240  22.0814800  76.5561530  58.9316210  33.3588370
  76.1976470  59.5970060  33.9461710  76.2616090  58.0999760  33.7300990
  79.7574650  59.3900450  36.2427920  79.4574790  59.5357630  35.3455740
  80.5285890  58.8305740  36.1501310  85.1003100  64.1869450  34.2383050
  85.1147640  63.2550410  34.0201960  84.3928200  64.2729210  34.8772820
  86.8413900  62.5536960  27.0835480  87.1937720  61.9565090  26.4236850
  85.9576230  62.2281190  27.2543730  82.9277180  63.3134650  24.4905890
  83.6148310  63.8603860  24.8713480  82.1409600  63.8575380  24.5255500
  75.0669580  58.9307470  19.9822970  75.9364430  59.2132270  20.2658890
  74.5759900  59.7443340  19.8671780  82.2304390  60.3180680  24.1031250
  82.6867170  61.1285930  24.3291440  81.8792600  60.0003820  24.9349740
  84.5337000  65.8287020  31.3323550  85.1779220  66.0346400  32.0096970
  84.8966440  65.0675420  30.8794400  78.1316170  50.6618330  24.5753770
  78.0030800  50.6536230  25.5238690  77.3078190  51.0001420  24.2244780
  85.8069080  63.8319370  30.0501000  86.4491310  63.1312530  30.1633170
  86.3318430  64.6117810  29.8697890  89.6524800  64.1167990  19.7740140
  89.4262380  63.3998430  20.3664780  89.2621000  63.8680430  18.9361890
  87.5806700  64.6314270  33.2537060  87.9162940  65.2180960  33.9314980
  86.6607040  64.5006980  33.4834850  75.4340830  68.1434850  20.5484600
  75.7938470  68.7424190  19.8941870  75.2933170  68.6894740  21.3219630
  75.1310100  52.4209450  34.0360470  74.4168620  52.6206370  34.6413080
  75.5505140  51.6449020  34.4075270  89.2341050  62.0339930  21.4354300
  88.9462750  62.4952620  22.2232180  90.0293220  61.5737700  21.7038520
  75.4182690  66.4089710  35.0227000  75.5273810  65.4684450  34.8822390
  74.7663250  66.6744460  34.3740730  83.4095280  64.6805600  36.4225120
  83.0892150  63.9614840  36.9670810  82.7353640  65.3560670  36.4961180
  81.4509450  65.5266050  21.3658270  81.4419550  66.2595740  20.7502780
  80.5307810  65.2797630  21.4585230  77.0516090  60.7480940  22.1105030
  76.4444040  61.4879840  22.1200330  77.5265440  60.8380300  21.2843230
  86.6248880  54.9131760  31.7861920  86.9929700  54.0926970  32.1141490
  85.7647080  54.9733650  32.2017570  89.9910910  53.8688700  22.5949480
  89.3624070  53.9734370  21.8807710  89.4962830  54.0885480  23.3843360
  84.4369050  65.5894290  20.0283460  84.5381030  65.3858280  19.0985440
  83.5370790  65.3352570  20.2331240  81.9594940  56.1474650  24.0107360
  81.2511090  56.6160990  24.4520970  82.2439420  55.4896660  24.6452550
  83.5850870  57.5671350  32.0099890  84.0836120  58.0417170  32.6751740
  83.7273820  56.6434870  32.2169920  85.9910370  52.8725310  25.4503150
  85.8678150  52.8911440  24.5012660  86.9394930  52.9204250  25.5701550
  83.0787160  68.1080610  24.7231130  83.3328660  68.0702000  23.8010500
  82.1299640  67.9813940  24.7159380  80.1629960  54.4559730  21.3858070
  81.0120490  54.8929880  21.3198260  79.7961230  54.7679990  22.2130130
  89.0839740  59.0272490  26.2989640  88.1429880  59.0422720  26.4737330
  89.3983810  58.2408450  26.7449940  79.0621380  60.7092090  19.8593600
  79.8284650  60.5973450  20.4219030  79.1396070  60.0130060  19.2070370
  77.7568140  58.1417160  20.5426490  77.8371730  57.1944670  20.6543890
  78.6487890  58.4724040  20.6487150  78.5582850  68.2912550  27.6461030
  79.2945330  67.7428010  27.9169600  78.9423770  69.1568560  27.5067020
  75.4428330  64.3586120  23.5202540  74.5168110  64.6007260  23.5107950
  75.9084760  65.1860380  23.3987290  77.5641130  67.4758620  36.8346610
  78.3653860  67.7970670  37.2482010  77.0492950  67.1154200  37.5566520
  81.6685160  67.4642860  19.4686600  82.4613770  67.7531690  19.0168390
  81.1489510  67.0335030  18.7899080  86.4005760  63.5838490  36.7822020
  85.7943920  63.6070090  36.0417770  86.0959870  62.8521530  37.3189270
  87.8306130  67.3118780  35.3931430  88.7827880  67.2276800  35.3431670
  87.6834350  67.9760490  36.0665220  75.2838940  59.9632080  35.7782660
  75.7877960  59.3839360  36.3498890  74.5446360  60.2472310  36.3159030
  82.1862560  62.6846270  19.3328950  82.0813200  62.0698620  20.0590330
  82.0186780  62.1612160  18.5491960  82.3376880  61.3703070  35.3118180
  81.5722550  61.9388070  35.2272850  82.5192840  61.0779280  34.4186410
  85.4265290  61.7466300  19.9370940  84.8775390  62.1935600  20.5813680
  86.0484550  61.2415550  20.4608610  89.4800230  63.1008400  35.8693200
  90.2209700  63.4384160  35.3660660  88.7172910  63.2700460  35.3162970
  77.3162020  58.1061670  36.6732730  77.3567360  57.8075540  37.5817960
  78.1707520  58.5069280  36.5140250  81.0940410  60.7057220  21.8336240
  81.5156830  60.5397090  22.6767630  81.2191250  59.8957450  21.3391380
  79.2567830  56.6853770  34.6407220  78.7264290  56.1944720  34.0130560
  79.9255900  57.1137970  34.1065150  83.6068050  59.7294830  19.0813340
  84.1273710  59.0143850  18.7154490  84.2536450  60.3680700  19.3813850
  88.1545890  61.1523230  34.4048410  88.5686910  61.3068310  35.2538830
  87.2196890  61.2778450  34.5674190  88.6268060  58.4919390  36.4087560
  89.2088830  57.7371710  36.3208040  88.8029830  59.0226830  35.6319040
  79.7440130  53.6516140  34.7204510  79.6497000  53.0336890  33.9955380
  79.1637520  54.3782430  34.4934420  82.5101570  52.2089380  31.7531900
  82.0618870  52.2313640  30.9077450  81.8766770  51.8108400  32.3502200
  82.9161120  61.1043710  32.3744340  83.3349230  61.9476440  32.2020580
  81.9969750  61.2415750  32.1451120  85.2525020  58.8359890  33.7582180
  85.3721230  58.2401030  34.4977020  86.1119020  58.8729580  33.3383480
  87.5912920  59.3897080  32.3344690  87.0648140  59.9139700  31.7309830
  87.9344260  60.0224470  32.9654420  79.9899310  56.7790450  18.7794400
  79.7888370  55.9157810  19.1407740  79.8191360  56.6923810  17.8416000
  80.7668540  67.4096720  33.4902070  80.2289630  68.1342780  33.1710770
  81.0202500  66.9327060  32.6999410  82.0193790  55.3781240  35.0158000
  82.6093480  55.0697090  35.7035820  81.2014030  54.9060990  35.1717900
  86.8387220  54.9947050  35.2491020  86.1502740  54.3328590  35.1841010
  87.5593240  54.5485320  35.6939480  87.4687620  51.5898680  21.3081280
  87.7489910  50.7466580  21.6640700  86.6953350  51.8221790  21.8220030
  78.7882110  53.8791070  18.7672280  79.0908010  53.8858500  17.8591430
  79.5276700  53.5288930  19.2639940  83.6230750  68.6447930  33.7488720
  83.5489450  69.5483070  34.0561090  82.7209590  68.3259830  33.7210790
  82.0067040  52.8225690  19.7528480  81.6589040  52.1449680  19.1730930
  82.2079810  52.3615200  20.5671870  84.1716080  67.8106440  21.3715080
  85.0666870  68.1491410  21.3933840  84.2033710  67.0885850  20.7439360
  77.8112240  63.1833490  19.6002080  78.2487110  63.7263160  20.2559660
  78.2959970  62.3580440  19.6098420  75.0258040  65.9722520  27.0522340
  75.3561050  65.1043580  26.8200980  75.4549040  66.1781040  27.8827300
  79.6219960  64.3031530  24.7124310  79.3215500  64.1796500  25.6128220
  79.5157450  63.4440120  24.3040040  75.5148250  66.8393110  29.7903970
  75.0779240  67.0193910  30.6228120  76.0825930  67.5967730  29.6485690
  75.3472680  59.3513340  26.1492850  74.6921520  59.0824980  25.5052550
  76.1850630  59.2417820  25.6994830  89.8362070  63.0662090  32.1757440
  89.0221910  63.4959250  32.4383230  90.2436270  63.6780500  31.5626490
  88.2963120  54.1454630  20.3711340  88.7148000  53.9585610  19.5308000
  87.9899180  53.2933680  20.6814270  76.3848610  59.7365910  30.6896190
  76.7521650  59.6493310  31.5692210  75.8159430  58.9732460  30.5903050
  75.9364610  56.6475000  34.5954610  75.0420660  56.6141760  34.9348320
  76.4762160  56.8461790  35.3605860  74.5610760  56.5612270  22.0918180
  73.6574840  56.8242470  21.9169840  75.0451380  56.8323440  21.3118140
  77.1037970  55.6177810  20.0012560  77.8129670  55.1961030  19.5159840
  76.3877910  55.6853040  19.3695910  76.7512130  51.6717140  19.0415210
  77.4740260  52.2126080  19.3596430  77.0236650  51.3980560  18.1656750
  76.4404320  50.9223330  28.9437830  77.0880510  50.3720710  28.5032990
  76.8606160  51.1766480  29.7653640  76.1936320  51.0779000  31.6863150
  75.8451140  51.5342820  32.4521330  75.8624020  50.1836130  31.7685580
  77.8000690  64.2498600  35.8516340  77.7570320  63.8791510  36.7330800
  77.9311700  65.1876170  35.9918160  81.5006720  65.8058190  31.4526060
  81.2598080  66.0732750  30.5656580  82.4409360  65.9763920  31.5076920
  83.7061140  52.2690880  35.2082570  83.6450030  52.8612710  35.9577980
  84.6461520  52.1616840  35.0632830  86.3435700  51.9260940  34.8474860
  86.9576110  52.2440230  34.1855940  86.8885260  51.4409530  35.4670720
  76.8656960  50.6055200  34.9613920  77.4139950  50.4243250  34.1980030
  76.9312270  49.8149310  35.4970230  77.6388720  67.1960850  32.9714120
  77.0449040  67.0645550  33.7104160  77.6312560  66.3598990  32.5056220
  87.0843740  50.4893080  31.1744150  86.2103580  50.8228190  30.9717080
  86.9754490  50.0166260  31.9996020  87.9915720  52.6963950  32.5585870
  87.6629080  51.8815710  32.1787600  88.9398020  52.6533760  32.4351560
  77.2700950  64.5619230  31.9222160  76.5435010  63.9424520  31.8548110
  77.3310100  64.9559840  31.0520240  80.8746050  66.7764230  28.7071570
  81.3911070  66.1651590  28.1819830  81.5243430  67.2793010  29.1982580
  83.6141550  67.6672720  29.5340550  83.9019360  67.4127020  28.6573560
  84.1264770  67.1150080  30.1246120  84.8318560  51.4062920  30.1137060
  84.0490350  51.8808420  30.3933820  84.5381490  50.5017750  30.0050240
  89.3839630  52.1086020  28.1586150  89.8247720  52.0531120  27.3107750
  89.1147220  53.0244030  28.2296330  75.5530950  67.8793620  25.1318920
  75.3852990  67.2464300  25.8300810  74.6865460  68.0853020  24.7813110
  76.1758970  51.7110400  22.6350780  76.9338330  51.8239280  22.0614810
  75.7136140  52.5479600  22.5894210  82.7172780  53.8249670  25.6253090
  81.9047290  53.4506560  25.2848970  83.2214420  53.0694750  25.9274280
  87.2197760  50.4892120  26.8636160  87.8227130  51.0612330  27.3384680
  86.4790750  51.0531560  26.6410060  77.1593650  66.5726850  22.5769060
  76.6341270  66.9534880  21.8731020  77.0838230  67.1977620  23.2978770
  78.5484120  52.2374450  21.1752750  79.0776880  51.4504250  21.0460700
  79.1812440  52.9165640  21.4088280  80.7421960  51.9749590  24.2298140
  80.1124700  51.2736900  24.3968270  80.2027100  52.7353720  24.0131300
  83.6813910  68.5888820  36.9008750  84.6081220  68.3533090  36.9444710
  83.6664340  69.4160820  36.4194780  80.8677520  51.2533570  36.6650630
  80.5861790  51.7567170  35.9011450  81.2497220  50.4555320  36.2992760
  79.7586620  68.5209230  21.4518310  80.4905440  68.2368510  20.9042200
  80.0180290  68.2822510  22.3417690  78.9201410  64.6373960  21.4564640
  78.2910290  65.1059060  22.0050470  79.0349240  63.7923180  21.8910830
  87.4692980  50.6687150  37.2431100  87.3558430  50.9881760  38.1382620
  88.2862720  51.0699660  36.9468380  86.3751130  58.6879620   7.6065840
  86.2945180  57.7734230   7.3357550  85.9615550  59.1846690   6.9005550
  84.5069170  60.4658640   9.4875110  83.7311270  59.9859080   9.7773680
  85.1582100  59.7864290   9.3131270  78.5235000  60.7778450  10.3650870
  77.6919880  60.5227160  10.7647380  79.1315980  60.8489220  11.1008790
  88.5276600  64.8718830   8.2674240  88.0658130  64.1006070   8.5961410
  89.3402150  64.8984900   8.7726690  78.5036260  64.8118540  10.5608890
  78.8064300  63.9216280  10.3819110  79.2479850  65.3688760  10.3331140
  76.9326950  55.7380340   4.1493260  76.0443650  56.0796310   4.0473140
  77.2168140  55.5380660   3.2574090  74.8959960  58.3385990  10.0332960
  75.4676070  57.5708190  10.0336600  74.8961500  58.6374750   9.1239570
  84.7539910  67.1576840   7.8878230  84.1351350  67.6134340   7.3172670
  85.6091690  67.3128300   7.4867930  83.9478160  63.1415830   9.4945270
  83.8786440  62.2005770   9.3334400  84.7098020  63.2317240  10.0667840
  76.1384830  53.7470350  11.8201890  75.9587670  52.8496100  12.1004650
  75.7364910  54.2942220  12.4948840  84.9783330  55.9486210   9.7214200
  85.3548150  55.0758090   9.6087870  84.8802840  56.2844910   8.8304640
  79.1088340  54.3211840   5.1831640  79.2155090  55.2215570   5.4900400
  78.1980700  54.2729810   4.8926290  88.7607450  53.4436650   6.6542540
  89.5817070  52.9533220   6.6968020  88.7941530  54.0334310   7.4074380
  76.7571500  56.2430850  10.4284230  77.4381610  56.5069220  11.0471630
  76.4419550  55.4031720  10.7622240  80.9496070  57.2898210   9.5156820
  81.4574290  57.7879180  10.1561840  81.4809310  56.5133410   9.3396180
  79.2332170  51.9296770  13.7820240  79.2350610  52.4469160  12.9766140
  78.4036480  51.4526950  13.7590170  85.6203260  62.0416080   5.2810140
  85.0020530  62.5065530   4.7172860  86.1326510  62.7343560   5.6979650
  80.4835020  61.5691950  11.9593740  80.1504400  62.1960870  12.6014810
  80.6601700  62.0953830  11.1795410  88.9968930  55.3837030   9.4270080
  88.2924500  55.6721920  10.0073190  89.3581090  56.1937140   9.0669640
  78.9147500  53.6406730  11.7890690  79.2564310  54.4848780  11.4944560
  77.9763310  53.7890470  11.9056030  79.6954120  63.5372750  13.7742920
  80.3128120  64.2123830  13.4927370  78.8347240  63.9460730  13.6830420
  74.9886460  62.7272610   2.6549770  74.6114440  63.2159710   1.9234670
  75.2459530  63.3997890   3.2856300  82.5975390  51.1289000   8.1135280
  82.9050370  50.5735890   7.3970780  81.6676090  51.2633460   7.9308270
  88.1490450  66.8456290  10.4042740  88.1617610  66.4418580   9.5365000
  87.5965670  67.6203580  10.3004170  89.4435870  63.5672510   5.4932910
  89.3332200  62.6246840   5.6182330  89.4404120  63.9288150   6.3795670
  87.5475890  61.7486130  11.7325350  87.9644680  61.5346240  10.8978810
  88.2715710  62.0058920  12.3033970  84.9856150  59.1937830   4.8495400
  84.0585430  59.1275210   5.0783870  85.1380970  60.1317960   4.7350640
  89.0153440  60.7558130   5.3530650  88.3965860  60.4177680   4.7056950
  88.9977890  60.1117890   6.0609840  88.4580000  56.9342670  12.7696460
  88.0451180  57.7596380  13.0236450  87.7255950  56.3487710  12.5772820
  80.5912790  59.7202570   7.6315130  80.1869790  59.0079820   7.1361030
  80.6775910  59.3755810   8.5203170  81.0594490  63.4070130   9.7954340
  80.7622780  62.8015600   9.1162120  82.0094310  63.4447440   9.6843700
  79.3041410  56.4945780  11.4114170  79.8556000  56.6041120  10.6367420
  79.8184920  56.8683380  12.1269400  89.1480100  66.9802000  13.4577440
  88.6710660  67.7874190  13.2650050  88.4641890  66.3280330  13.6103650
  80.1512920  63.1451820  16.4462140  79.2541450  63.3691790  16.6935540
  80.1765790  63.2686760  15.4973540  87.1918140  59.9944940   2.3603400
  87.6311420  59.1567370   2.2141220  87.9046560  60.6274340   2.4467540
  78.9784140  60.0165140  15.0219510  78.8391910  60.8887940  15.3906910
  78.0965500  59.6737950  14.8767450  85.3013520  64.9341010   6.3284640
  85.7409430  65.6765340   5.9140030  85.2400410  65.1767580   7.2523600
  80.7764490  65.9586840  17.2304660  80.7479920  66.3629790  16.3633090
  80.6129460  65.0297200  17.0676260  77.2917420  58.6147550   5.1321780
  77.1715020  59.3409640   4.5203050  76.9818310  57.8450460   4.6549690
  74.9302790  61.7862690  10.9390420  75.0083210  61.9211460   9.9946140
  75.5444470  61.0778580  11.1318540  76.1750420  63.4862880   7.3496600
  75.7678500  63.6277470   6.4950200  77.0663430  63.2023040   7.1467810
  85.9929300  67.6354790  14.2563650  86.5073970  67.5462800  15.0586080
  85.1498380  67.9814490  14.5491560  87.9683700  67.9210130   3.6847650
  87.8084840  67.6313070   4.5829480  87.8030410  67.1450260   3.1492880
  80.4472080  67.7008660   5.4619270  80.2714560  66.7844200   5.2487070
  79.5927820  68.0595950   5.7017070  87.2359760  67.0560400   6.3194140
  87.6916710  66.2749780   6.6332760  87.5752280  67.7667220   6.8635320
  74.9862310  62.8276860  13.4784880  75.1493350  62.3582220  12.6604250
  75.4514760  62.3200420  14.1433720  79.7581080  51.9582620   8.5145450
  79.3149230  52.7392160   8.1829970  80.3166070  52.2812510   9.2216390
  84.0450890  54.8251140  14.1180770  83.5830260  55.0334160  14.9300710
  83.6429000  54.0110490  13.8151440  89.0455400  56.0460090  15.2477430
  88.1948990  55.7465840  15.5686500  88.8857190  56.2902100  14.3361250
  86.1405110  57.5461840  17.3476220  86.4658520  56.7125590  17.0078450
  86.9285440  58.0690360  17.4954550  82.8739900  51.5793320   3.3951280
  82.2494080  51.5753190   4.1204590  82.7870020  50.7124280   2.9987250
  81.7956980  52.5029950  10.3735050  82.0929310  53.4092780  10.2927070
  82.3442540  52.0148730   9.7594620  79.5495300  57.0816190   6.2426700
  79.3236220  56.8653360   7.1473320  78.7687830  57.5144650   5.8972670
  86.7793060  57.0879560   4.8417350  86.1801950  57.8115360   4.6580970
  87.3272670  57.0256340   4.0593800  81.9894510  57.9801770  16.9086970
  81.8938110  57.0396500  16.7587370  82.8326490  58.2016840  16.5135040
  85.3857930  55.7243100   6.8720630  85.7787500  56.0415300   6.0589320
  85.7474780  54.8454980   6.9865150  77.1205050  54.3915440  15.0620750
  76.7268440  55.2390650  15.2693530  76.4323450  53.7541810  15.2529390
  83.6950100  54.4750410  18.1317490  83.0048420  54.2822610  18.7663580
  84.4382400  54.7585050  18.6641790  74.4222100  52.3143900   9.0950830
  74.1335150  52.8846760   9.8075810  75.1667860  51.8348350   9.4582060
  85.9713070  58.3148850  10.9671410  85.2394190  58.8235660  11.3161510
  85.5737410  57.4978830  10.6660190  82.4090460  54.9903050   9.3723900
  82.4126520  54.5493000   8.5228440  83.3041580  55.3120380   9.4795720
  78.2592840  54.8729540   8.3318110  77.9192890  55.3504770   9.0885160
  77.4970160  54.4194660   7.9719210  82.4710610  55.9915130   2.3630660
  82.5923430  55.9501610   3.3116480  82.0859120  56.8539280   2.2077390
  86.4338980  53.7682530  10.3794350  86.4511720  54.2191180  11.2236200
  86.1854560  52.8688170  10.5927790  89.8609730  51.1814710  16.2180730
  90.1855500  50.4504370  16.7438710  89.8966240  50.8628350  15.3161720
  76.5601290  62.2028290  15.6380690  76.1756080  61.5621960  16.2363650
  76.8713480  62.9064410  16.2075420  82.7098430  59.0504830  11.1189310
  83.0768560  58.5763400  11.8650650  82.5203490  59.9246400  11.4597650
  75.5738920  53.7948520   7.2482780  75.2885840  53.4304190   8.0861400
  75.5117780  53.0628980   6.6345920  80.4997800  58.0913470  13.4373520
  80.1954870  58.9705450  13.6623880  81.4544260  58.1513260  13.4730960
  79.0279590  62.2974460   4.0340370  78.2541850  61.7572080   3.8739090
  79.7574220  61.7781070   3.6958130  85.2477510  52.6877780   3.9696150
  84.4342120  52.1890950   3.8941460  85.0539460  53.5276030   3.5532500
  85.1686370  61.3648880  15.7135760  85.1023680  60.4444550  15.4593350
  84.5391510  61.4624320  16.4280400  87.9625900  57.0597430   2.2658310
  88.8505520  57.3714660   2.0909650  87.9330990  56.1869680   1.8738890
  79.0716990  61.9654840   7.6719180  79.5895660  61.1623100   7.6176070
  78.6201010  61.9033980   8.5136010  83.9586490  63.2321120   2.9446480
  84.3002190  63.9763350   2.4489800  83.1299200  63.5452240   3.3071310
  76.5561530  58.9316210  14.5844880  76.1976470  59.5970060  15.1718220
  76.2616090  58.0999760  14.9557500  79.7574650  59.3900450  17.4684430
  79.4574790  59.5357630  16.5712250  80.5285890  58.8305740  17.3757820
  85.1003100  64.1869450  15.4639560  85.1147640  63.2550410  15.2458470
  84.3928200  64.2729210  16.1029330  86.8413900  62.5536960   8.3091990
  87.1937720  61.9565090   7.6493360  85.9576230  62.2281190   8.4800240
  82.9277180  63.3134650   5.7162400  83.6148310  63.8603860   6.0969990
  82.1409600  63.8575380   5.7512010  82.2304390  60.3180680   5.3287760
  82.6867170  61.1285930   5.5547950  81.8792600  60.0003820   6.1606250
  84.5337000  65.8287020  12.5580060  85.1779220  66.0346400  13.2353480
  84.8966440  65.0675420  12.1050910  78.1316170  50.6618330   5.8010280
  78.0030800  50.6536230   6.7495200  77.3078190  51.0001420   5.4501290
  85.8069080  63.8319370  11.2757510  86.4491310  63.1312530  11.3889680
  86.3318430  64.6117810  11.0954400  87.5806700  64.6314270  14.4793570
  87.9162940  65.2180960  15.1571490  86.6607040  64.5006980  14.7091360
  75.1310100  52.4209450  15.2616980  74.4168620  52.6206370  15.8669590
  75.5505140  51.6449020  15.6331780  89.2341050  62.0339930   2.6610810
  88.9462750  62.4952620   3.4488690  90.0293220  61.5737700   2.9295030
  75.4182690  66.4089710  16.2483510  75.5273810  65.4684450  16.1078900
  74.7663250  66.6744460  15.5997240  83.4095280  64.6805600  17.6481630
  83.0892150  63.9614840  18.1927320  82.7353640  65.3560670  17.7217690
  81.4509450  65.5266050   2.5914780  81.4419550  66.2595740   1.9759290
  80.5307810  65.2797630   2.6841740  77.0516090  60.7480940   3.3361540
  76.4444040  61.4879840   3.3456840  77.5265440  60.8380300   2.5099740
  86.6248880  54.9131760  13.0118430  86.9929700  54.0926970  13.3398000
  85.7647080  54.9733650  13.4274080  89.9910910  53.8688700   3.8205990
  89.3624070  53.9734370   3.1064220  89.4962830  54.0885480   4.6099870
  81.9594940  56.1474650   5.2363870  81.2511090  56.6160990   5.6777480
  82.2439420  55.4896660   5.8709060  83.5850870  57.5671350  13.2356400
  84.0836120  58.0417170  13.9008250  83.7273820  56.6434870  13.4426430
  85.9910370  52.8725310   6.6759660  85.8678150  52.8911440   5.7269170
  86.9394930  52.9204250   6.7958060  83.0787160  68.1080610   5.9487640
  83.3328660  68.0702000   5.0267010  82.1299640  67.9813940   5.9415890
  80.1629960  54.4559730   2.6114580  81.0120490  54.8929880   2.5454770
  79.7961230  54.7679990   3.4386640  89.0839740  59.0272490   7.5246150
  88.1429880  59.0422720   7.6993840  89.3983810  58.2408450   7.9706450
  77.7568140  58.1417160   1.7683000  77.8371730  57.1944670   1.8800400
  78.6487890  58.4724040   1.8743660  78.5582850  68.2912550   8.8717540
  79.2945330  67.7428010   9.1426110  78.9423770  69.1568560   8.7323530
  75.4428330  64.3586120   4.7459050  74.5168110  64.6007260   4.7364460
  75.9084760  65.1860380   4.6243800  77.5641130  67.4758620  18.0603120
  78.3653860  67.7970670  18.4738520  77.0492950  67.1154200  18.7823030
  86.4005760  63.5838490  18.0078530  85.7943920  63.6070090  17.2674280
  86.0959870  62.8521530  18.5445780  87.8306130  67.3118780  16.6187940
  88.7827880  67.2276800  16.5688180  87.6834350  67.9760490  17.2921730
  75.2838940  59.9632080  17.0039170  75.7877960  59.3839360  17.5755400
  74.5446360  60.2472310  17.5415540  82.3376880  61.3703070  16.5374690
  81.5722550  61.9388070  16.4529360  82.5192840  61.0779280  15.6442920
  89.4800230  63.1008400  17.0949710  90.2209700  63.4384160  16.5917170
  88.7172910  63.2700460  16.5419480  77.3162020  58.1061670  17.8989240
  77.3567360  57.8075540  18.8074470  78.1707520  58.5069280  17.7396760
  81.0940410  60.7057220   3.0592750  81.5156830  60.5397090   3.9024140
  81.2191250  59.8957450   2.5647890  79.2567830  56.6853770  15.8663730
  78.7264290  56.1944720  15.2387070  79.9255900  57.1137970  15.3321660
  88.1545890  61.1523230  15.6304920  88.5686910  61.3068310  16.4795340
  87.2196890  61.2778450  15.7930700  88.6268060  58.4919390  17.6344070
  89.2088830  57.7371710  17.5464550  88.8029830  59.0226830  16.8575550
  79.7440130  53.6516140  15.9461020  79.6497000  53.0336890  15.2211890
  79.1637520  54.3782430  15.7190930  82.5101570  52.2089380  12.9788410
  82.0618870  52.2313640  12.1333960  81.8766770  51.8108400  13.5758710
  82.9161120  61.1043710  13.6000850  83.3349230  61.9476440  13.4277090
  81.9969750  61.2415750  13.3707630  85.2525020  58.8359890  14.9838690
  85.3721230  58.2401030  15.7233530  86.1119020  58.8729580  14.5639990
  87.5912920  59.3897080  13.5601200  87.0648140  59.9139700  12.9566340
  87.9344260  60.0224470  14.1910930  80.7668540  67.4096720  14.7158580
  80.2289630  68.1342780  14.3967280  81.0202500  66.9327060  13.9255920
  82.0193790  55.3781240  16.2414510  82.6093480  55.0697090  16.9292330
  81.2014030  54.9060990  16.3974410  86.8387220  54.9947050  16.4747530
  86.1502740  54.3328590  16.4097520  87.5593240  54.5485320  16.9195990
  87.4687620  51.5898680   2.5337790  87.7489910  50.7466580   2.8897210
  86.6953350  51.8221790   3.0476540  83.6230750  68.6447930  14.9745230
  83.5489450  69.5483070  15.2817600  82.7209590  68.3259830  14.9467300
  84.1716080  67.8106440   2.5971590  85.0666870  68.1491410   2.6190350
  84.2033710  67.0885850   1.9695870  75.0258040  65.9722520   8.2778850
  75.3561050  65.1043580   8.0457490  75.4549040  66.1781040   9.1083810
  79.6219960  64.3031530   5.9380820  79.3215500  64.1796500   6.8384730
  79.5157450  63.4440120   5.5296550  75.5148250  66.8393110  11.0160480
  75.0779240  67.0193910  11.8484630  76.0825930  67.5967730  10.8742200
  75.3472680  59.3513340   7.3749360  74.6921520  59.0824980   6.7309060
  76.1850630  59.2417820   6.9251340  89.8362070  63.0662090  13.4013950
  89.0221910  63.4959250  13.6639740  90.2436270  63.6780500  12.7883000
  76.3848610  59.7365910  11.9152700  76.7521650  59.6493310  12.7948720
  75.8159430  58.9732460  11.8159560  75.9364610  56.6475000  15.8211120
  75.0420660  56.6141760  16.1604830  76.4762160  56.8461790  16.5862370
  74.5610760  56.5612270   3.3174690  73.6574840  56.8242470   3.1426350
  75.0451380  56.8323440   2.5374650  76.4404320  50.9223330  10.1694340
  77.0880510  50.3720710   9.7289500  76.8606160  51.1766480  10.9910150
  76.1936320  51.0779000  12.9119660  75.8451140  51.5342820  13.6777840
  75.8624020  50.1836130  12.9942090  77.8000690  64.2498600  17.0772850
  77.7570320  63.8791510  17.9587310  77.9311700  65.1876170  17.2174670
  81.5006720  65.8058190  12.6782570  81.2598080  66.0732750  11.7913090
  82.4409360  65.9763920  12.7333430  83.7061140  52.2690880  16.4339080
  83.6450030  52.8612710  17.1834490  84.6461520  52.1616840  16.2889340
  86.3435700  51.9260940  16.0731370  86.9576110  52.2440230  15.4112450
  86.8885260  51.4409530  16.6927230  76.8656960  50.6055200  16.1870430
  77.4139950  50.4243250  15.4236540  76.9312270  49.8149310  16.7226740
  77.6388720  67.1960850  14.1970630  77.0449040  67.0645550  14.9360670
  77.6312560  66.3598990  13.7312730  87.0843740  50.4893080  12.4000660
  86.2103580  50.8228190  12.1973590  86.9754490  50.0166260  13.2252530
  87.9915720  52.6963950  13.7842380  87.6629080  51.8815710  13.4044110
  88.9398020  52.6533760  13.6608070  77.2700950  64.5619230  13.1478670
  76.5435010  63.9424520  13.0804620  77.3310100  64.9559840  12.2776750
  80.8746050  66.7764230   9.9328080  81.3911070  66.1651590   9.4076340
  81.5243430  67.2793010  10.4239090  83.6141550  67.6672720  10.7597060
  83.9019360  67.4127020   9.8830070  84.1264770  67.1150080  11.3502630
  84.8318560  51.4062920  11.3393570  84.0490350  51.8808420  11.6190330
  84.5381490  50.5017750  11.2306750  89.3839630  52.1086020   9.3842660
  89.8247720  52.0531120   8.5364260  89.1147220  53.0244030   9.4552840
  75.5530950  67.8793620   6.3575430  75.3852990  67.2464300   7.0557320
  74.6865460  68.0853020   6.0069620  76.1758970  51.7110400   3.8607290
  76.9338330  51.8239280   3.2871320  75.7136140  52.5479600   3.8150720
  82.7172780  53.8249670   6.8509600  81.9047290  53.4506560   6.5105480
  83.2214420  53.0694750   7.1530790  87.2197760  50.4892120   8.0892670
  87.8227130  51.0612330   8.5641190  86.4790750  51.0531560   7.8666570
  77.1593650  66.5726850   3.8025570  76.6341270  66.9534880   3.0987530
  77.0838230  67.1977620   4.5235280  78.5484120  52.2374450   2.4009260
  79.0776880  51.4504250   2.2717210  79.1812440  52.9165640   2.6344790
  80.7421960  51.9749590   5.4554650  80.1124700  51.2736900   5.6224780
  80.2027100  52.7353720   5.2387810  83.6813910  68.5888820  18.1265260
  84.6081220  68.3533090  18.1701220  83.6664340  69.4160820  17.6451290
  80.8677520  51.2533570  17.8907140  80.5861790  51.7567170  17.1267960
  81.2497220  50.4555320  17.5249270  79.7586620  68.5209230   2.6774820
  80.4905440  68.2368510   2.1298710  80.0180290  68.2822510   3.5674200
  78.9201410  64.6373960   2.6821150  78.2910290  65.1059060   3.2306980
  79.0349240  63.7923180   3.1167340  87.4692980  50.6687150  18.4687610
  87.3558430  50.9881760  19.3639130  88.2862720  51.0699660  18.1724890
  86.3751130  39.9136130  45.1552820  86.2945180  38.9990740  44.8844530
  85.9615550  40.4103200  44.4492530  84.5069170  41.6915150  47.0362090
  83.7311270  41.2115590  47.3260660  85.1582100  41.0120800  46.8618250
  78.5235000  42.0034960  47.9137850  77.6919880  41.7483670  48.3134360
  79.1315980  42.0745730  48.6495770  88.5276600  46.0975340  45.8161220
  88.0658130  45.3262580  46.1448390  89.3402150  46.1241410  46.3213670
  78.5036260  46.0375050  48.1095870  78.8064300  45.1472790  47.9306090
  79.2479850  46.5945270  47.8818120  76.9326950  36.9636850  41.6980240
  76.0443650  37.3052820  41.5960120  77.2168140  36.7637170  40.8061070
  74.8959960  39.5642500  47.5819940  75.4676070  38.7964700  47.5823580
  74.8961500  39.8631260  46.6726550  84.7539910  48.3833350  45.4365210
  84.1351350  48.8390850  44.8659650  85.6091690  48.5384810  45.0354910
  83.9478160  44.3672340  47.0432250  83.8786440  43.4262280  46.8821380
  84.7098020  44.4573750  47.6154820  76.1384830  34.9726860  49.3688870
  75.9587670  34.0752610  49.6491630  75.7364910  35.5198730  50.0435820
  84.9783330  37.1742720  47.2701180  85.3548150  36.3014600  47.1574850
  84.8802840  37.5101420  46.3791620  79.1088340  35.5468350  42.7318620
  79.2155090  36.4472080  43.0387380  78.1980700  35.4986320  42.4413270
  88.7607450  34.6693160  44.2029520  89.5817070  34.1789730  44.2455000
  88.7941530  35.2590820  44.9561360  76.7571500  37.4687360  47.9771210
  77.4381610  37.7325730  48.5958610  76.4419550  36.6288230  48.3109220
  80.9496070  38.5154720  47.0643800  81.4574290  39.0135690  47.7048820
  81.4809310  37.7389920  46.8883160  79.2332170  33.1553280  51.3307220
  79.2350610  33.6725670  50.5253120  78.4036480  32.6783460  51.3077150
  85.6203260  43.2672590  42.8297120  85.0020530  43.7322040  42.2659840
  86.1326510  43.9600070  43.2466630  80.4835020  42.7948460  49.5080720
  80.1504400  43.4217380  50.1501790  80.6601700  43.3210340  48.7282390
  88.9968930  36.6093540  46.9757060  88.2924500  36.8978430  47.5560170
  89.3581090  37.4193650  46.6156620  78.9147500  34.8663240  49.3377670
  79.2564310  35.7105290  49.0431540  77.9763310  35.0146980  49.4543010
  79.6954120  44.7629260  51.3229900  80.3128120  45.4380340  51.0414350
  78.8347240  45.1717240  51.2317400  74.9886460  43.9529120  40.2036750
  74.6114440  44.4416220  39.4721650  75.2459530  44.6254400  40.8343280
  82.5975390  32.3545510  45.6622260  82.9050370  31.7992400  44.9457760
  81.6676090  32.4889970  45.4795250  88.1490450  48.0712800  47.9529720
  88.1617610  47.6675090  47.0851980  87.5965670  48.8460090  47.8491150
  89.4435870  44.7929020  43.0419890  89.3332200  43.8503350  43.1669310
  89.4404120  45.1544660  43.9282650  87.5475890  42.9742640  49.2812330
  87.9644680  42.7602750  48.4465790  88.2715710  43.2315430  49.8520950
  84.9856150  40.4194340  42.3982380  84.0585430  40.3531720  42.6270850
  85.1380970  41.3574470  42.2837620  84.9725230  36.6911340  39.3949540
  84.0328900  36.8525300  39.4802000  85.2908490  37.4097020  38.8485530
  89.0153440  41.9814640  42.9017630  88.3965860  41.6434190  42.2543930
  88.9977890  41.3374400  43.6096820  88.4580000  38.1599180  50.3183440
  88.0451180  38.9852890  50.5723430  87.7255950  37.5744220  50.1259800
  80.5912790  40.9459080  45.1802110  80.1869790  40.2336330  44.6848010
  80.6775910  40.6012320  46.0690150  81.0594490  44.6326640  47.3441320
  80.7622780  44.0272110  46.6649100  82.0094310  44.6703950  47.2330680
  79.3041410  37.7202290  48.9601150  79.8556000  37.8297630  48.1854400
  79.8184920  38.0939890  49.6756380  89.1480100  48.2058510  51.0064420
  88.6710660  49.0130700  50.8137030  88.4641890  47.5536840  51.1590630
  87.1918140  41.2201450  39.9090380  87.6311420  40.3823880  39.7628200
  87.9046560  41.8530850  39.9954520  78.9784140  41.2421650  52.5706490
  78.8391910  42.1144450  52.9393890  78.0965500  40.8994460  52.4254430
  85.3013520  46.1597520  43.8771620  85.7409430  46.9021850  43.4627010
  85.2400410  46.4024090  44.8010580  77.2917420  39.8404060  42.6808760
  77.1715020  40.5666150  42.0690030  76.9818310  39.0706970  42.2036670
  74.9302790  43.0119200  48.4877400  75.0083210  43.1467970  47.5433120
  75.5444470  42.3035090  48.6805520  76.1750420  44.7119390  44.8983580
  75.7678500  44.8533980  44.0437180  77.0663430  44.4279550  44.6954790
  85.9929300  48.8611300  51.8050630  86.5073970  48.7719310  52.6073060
  85.1498380  49.2071000  52.0978540  87.9683700  49.1466640  41.2334630
  87.8084840  48.8569580  42.1316460  87.8030410  48.3706770  40.6979860
  80.4472080  48.9265170  43.0106250  80.2714560  48.0100710  42.7974050
  79.5927820  49.2852460  43.2504050  87.6709830  46.6554200  39.7932630
  86.9774990  46.6531490  39.1334910  88.4132690  46.2313520  39.3626800
  87.2359760  48.2816910  43.8681120  87.6916710  47.5006290  44.1819740
  87.5752280  48.9923730  44.4122300  74.9862310  44.0533370  51.0271860
  75.1493350  43.5838730  50.2091230  75.4514760  43.5456930  51.6920700
  79.7581080  33.1839130  46.0632430  79.3149230  33.9648670  45.7316950
  80.3166070  33.5069020  46.7703370  84.0450890  36.0507650  51.6667750
  83.5830260  36.2590670  52.4787690  83.6429000  35.2367000  51.3638420
  89.0455400  37.2716600  52.7964410  88.1948990  36.9722350  53.1173480
  88.8857190  37.5158610  51.8848230  82.8739900  32.8049830  40.9438260
  82.2494080  32.8009700  41.6691570  82.7870020  31.9380790  40.5474230
  81.7956980  33.7286460  47.9222030  82.0929310  34.6349290  47.8414050
  82.3442540  33.2405240  47.3081600  79.5495300  38.3072700  43.7913680
  79.3236220  38.0909870  44.6960300  78.7687830  38.7401160  43.4459650
  86.7793060  38.3136070  42.3904330  86.1801950  39.0371870  42.2067950
  87.3272670  38.2512850  41.6080780  85.3857930  36.9499610  44.4207610
  85.7787500  37.2671810  43.6076300  85.7474780  36.0711490  44.5352130
  77.1205050  35.6171950  52.6107730  76.7268440  36.4647160  52.8180510
  76.4323450  34.9798320  52.8016370  74.4222100  33.5400410  46.6437810
  74.1335150  34.1103270  47.3562790  75.1667860  33.0604860  47.0069040
  74.6092330  37.4820530  37.8540530  74.5267000  38.4251290  37.9955520
  74.2575390  37.3395440  36.9752880  85.9713070  39.5405360  48.5158390
  85.2394190  40.0492170  48.8648490  85.5737410  38.7235340  48.2147170
  82.4090460  36.2159560  46.9210880  82.4126520  35.7749510  46.0715420
  83.3041580  36.5376890  47.0282700  78.2592840  36.0986050  45.8805090
  77.9192890  36.5761280  46.6372140  77.4970160  35.6451170  45.5206190
  82.4710610  37.2171640  39.9117640  82.5923430  37.1758120  40.8603460
  82.0859120  38.0795790  39.7564370  86.4338980  34.9939040  47.9281330
  86.4511720  35.4447690  48.7723180  86.1854560  34.0944680  48.1414770
  81.4832110  39.5272780  39.3100940  80.9149010  39.0791030  38.6836850
  82.1921110  39.8865560  38.7766090  76.5601290  43.4284800  53.1867670
  76.1756080  42.7878470  53.7850630  76.8713480  44.1320920  53.7562400
  82.7098430  40.2761340  48.6676290  83.0768560  39.8019910  49.4137630
  82.5203490  41.1502910  49.0084630  75.5738920  35.0205030  44.7969760
  75.2885840  34.6560700  45.6348380  75.5117780  34.2885490  44.1832900
  80.4997800  39.3169980  50.9860500  80.1954870  40.1961960  51.2110860
  81.4544260  39.3769770  51.0217940  79.0279590  43.5230970  41.5827350
  78.2541850  42.9828590  41.4226070  79.7574220  43.0037580  41.2445110
  85.2477510  33.9134290  41.5183130  84.4342120  33.4147460  41.4428440
  85.0539460  34.7532540  41.1019480  85.1686370  42.5905390  53.2622740
  85.1023680  41.6701060  53.0080330  84.5391510  42.6880830  53.9767380
  87.9625900  38.2853940  39.8145290  88.8505520  38.5971170  39.6396630
  87.9330990  37.4126190  39.4225870  79.0716990  43.1911350  45.2206160
  79.5895660  42.3879610  45.1663050  78.6201010  43.1290490  46.0622990
  83.9586490  44.4577630  40.4933460  84.3002190  45.2019860  39.9976780
  83.1299200  44.7708750  40.8558290  76.5561530  40.1572720  52.1331860
  76.1976470  40.8226570  52.7205200  76.2616090  39.3256270  52.5044480
  85.1003100  45.4125960  53.0126540  85.1147640  44.4806920  52.7945450
  84.3928200  45.4985720  53.6516310  86.8413900  43.7793470  45.8578970
  87.1937720  43.1821600  45.1980340  85.9576230  43.4537700  46.0287220
  82.9277180  44.5391160  43.2649380  83.6148310  45.0860370  43.6456970
  82.1409600  45.0831890  43.2998990  75.0669580  40.1563980  38.7566460
  75.9364430  40.4388780  39.0402380  74.5759900  40.9699850  38.6415270
  82.2304390  41.5437190  42.8774740  82.6867170  42.3542440  43.1034930
  81.8792600  41.2260330  43.7093230  84.5337000  47.0543530  50.1067040
  85.1779220  47.2602910  50.7840460  84.8966440  46.2931930  49.6537890
  78.1316170  31.8874840  43.3497260  78.0030800  31.8792740  44.2982180
  77.3078190  32.2257930  42.9988270  85.8069080  45.0575880  48.8244490
  86.4491310  44.3569040  48.9376660  86.3318430  45.8374320  48.6441380
  89.6524800  45.3424500  38.5483630  89.4262380  44.6254940  39.1408270
  89.2621000  45.0936940  37.7105380  87.5806700  45.8570780  52.0280550
  87.9162940  46.4437470  52.7058470  86.6607040  45.7263490  52.2578340
  75.4340830  49.3691360  39.3228090  75.7938470  49.9680700  38.6685360
  75.2933170  49.9151250  40.0963120  75.1310100  33.6465960  52.8103960
  74.4168620  33.8462880  53.4156570  75.5505140  32.8705530  53.1818760
  89.2341050  43.2596440  40.2097790  88.9462750  43.7209130  40.9975670
  90.0293220  42.7994210  40.4782010  75.4182690  47.6346220  53.7970490
  75.5273810  46.6940960  53.6565880  74.7663250  47.9000970  53.1484220
  81.4509450  46.7522560  40.1401760  81.4419550  47.4852250  39.5246270
  80.5307810  46.5054140  40.2328720  77.0516090  41.9737450  40.8848520
  76.4444040  42.7136350  40.8943820  77.5265440  42.0636810  40.0586720
  86.6248880  36.1388270  50.5605410  86.9929700  35.3183480  50.8884980
  85.7647080  36.1990160  50.9761060  89.9910910  35.0945210  41.3692970
  89.3624070  35.1990880  40.6551200  89.4962830  35.3141990  42.1586850
  84.4369050  46.8150800  38.8026950  84.5381030  46.6114790  37.8728930
  83.5370790  46.5609080  39.0074730  81.9594940  37.3731160  42.7850850
  81.2511090  37.8417500  43.2264460  82.2439420  36.7153170  43.4196040
  83.5850870  38.7927860  50.7843380  84.0836120  39.2673680  51.4495230
  83.7273820  37.8691380  50.9913410  85.9910370  34.0981820  44.2246640
  85.8678150  34.1167950  43.2756150  86.9394930  34.1460760  44.3445040
  83.0787160  49.3337120  43.4974620  83.3328660  49.2958510  42.5753990
  82.1299640  49.2070450  43.4902870  80.1629960  35.6816240  40.1601560
  81.0120490  36.1186390  40.0941750  79.7961230  35.9936500  40.9873620
  89.0839740  40.2529000  45.0733130  88.1429880  40.2679230  45.2480820
  89.3983810  39.4664960  45.5193430  79.0621380  41.9348600  38.6337090
  79.8284650  41.8229960  39.1962520  79.1396070  41.2386570  37.9813860
  77.7568140  39.3673670  39.3169980  77.8371730  38.4201180  39.4287380
  78.6487890  39.6980550  39.4230640  78.5582850  49.5169060  46.4204520
  79.2945330  48.9684520  46.6913090  78.9423770  50.3825070  46.2810510
  75.4428330  45.5842630  42.2946030  74.5168110  45.8263770  42.2851440
  75.9084760  46.4116890  42.1730780  81.6685160  48.6899370  38.2430090
  82.4613770  48.9788200  37.7911880  81.1489510  48.2591540  37.5642570
  82.1862560  43.9102780  38.1072440  82.0813200  43.2955130  38.8333820
  82.0186780  43.3868670  37.3235450  82.3376880  42.5959580  54.0861670
  81.5722550  43.1644580  54.0016340  82.5192840  42.3035790  53.1929900
  85.4265290  42.9722810  38.7114430  84.8775390  43.4192110  39.3557170
  86.0484550  42.4672060  39.2352100  81.0940410  41.9313730  40.6079730
  81.5156830  41.7653600  41.4511120  81.2191250  41.1213960  40.1134870
  79.2567830  37.9110280  53.4150710  78.7264290  37.4201230  52.7874050
  79.9255900  38.3394480  52.8808640  83.6068050  40.9551340  37.8556830
  84.1273710  40.2400360  37.4897980  84.2536450  41.5937210  38.1557340
  88.1545890  42.3779740  53.1791900  88.5686910  42.5324820  54.0282320
  87.2196890  42.5034960  53.3417680  79.7440130  34.8772650  53.4948000
  79.6497000  34.2593400  52.7698870  79.1637520  35.6038940  53.2677910
  82.5101570  33.4345890  50.5275390  82.0618870  33.4570150  49.6820940
  81.8766770  33.0364910  51.1245690  82.9161120  42.3300220  51.1487830
  83.3349230  43.1732950  50.9764070  81.9969750  42.4672260  50.9194610
  85.2525020  40.0616400  52.5325670  85.3721230  39.4657540  53.2720510
  86.1119020  40.0986090  52.1126970  87.5912920  40.6153590  51.1088180
  87.0648140  41.1396210  50.5053320  87.9344260  41.2480980  51.7397910
  79.9899310  38.0046960  37.5537890  79.7888370  37.1414320  37.9151230
  79.8191360  37.9180320  36.6159490  80.7668540  48.6353230  52.2645560
  80.2289630  49.3599290  51.9454260  81.0202500  48.1583570  51.4742900
  87.4687620  32.8155190  40.0824770  87.7489910  31.9723090  40.4384190
  86.6953350  33.0478300  40.5963520  78.7882110  35.1047580  37.5415770
  79.0908010  35.1115010  36.6334920  79.5276700  34.7545440  38.0383430
  83.6230750  49.8704440  52.5232210  83.5489450  50.7739580  52.8304580
  82.7209590  49.5516340  52.4954280  82.0067040  34.0482200  38.5271970
  81.6589040  33.3706190  37.9474420  82.2079810  33.5871710  39.3415360
  84.1716080  49.0362950  40.1458570  85.0666870  49.3747920  40.1677330
  84.2033710  48.3142360  39.5182850  77.8112240  44.4090000  38.3745570
  78.2487110  44.9519670  39.0303150  78.2959970  43.5836950  38.3841910
  75.0258040  47.1979030  45.8265830  75.3561050  46.3300090  45.5944470
  75.4549040  47.4037550  46.6570790  79.6219960  45.5288040  43.4867800
  79.3215500  45.4053010  44.3871710  79.5157450  44.6696630  43.0783530
  75.5148250  48.0649620  48.5647460  75.0779240  48.2450420  49.3971610
  76.0825930  48.8224240  48.4229180  75.3472680  40.5769850  44.9236340
  74.6921520  40.3081490  44.2796040  76.1850630  40.4674330  44.4738320
  89.8362070  44.2918600  50.9500930  89.0221910  44.7215760  51.2126720
  90.2436270  44.9037010  50.3369980  88.2963120  35.3711140  39.1454830
  88.7148000  35.1842120  38.3051490  87.9899180  34.5190190  39.4557760
  76.3848610  40.9622420  49.4639680  76.7521650  40.8749820  50.3435700
  75.8159430  40.1988970  49.3646540  75.9364610  37.8731510  53.3698100
  75.0420660  37.8398270  53.7091810  76.4762160  38.0718300  54.1349350
  74.5610760  37.7868780  40.8661670  73.6574840  38.0498980  40.6913330
  75.0451380  38.0579950  40.0861630  77.1037970  36.8434320  38.7756050
  77.8129670  36.4217540  38.2903330  76.3877910  36.9109550  38.1439400
  76.7512130  32.8973650  37.8158700  77.4740260  33.4382590  38.1339920
  77.0236650  32.6237070  36.9400240  76.4404320  32.1479840  47.7181320
  77.0880510  31.5977220  47.2776480  76.8606160  32.4022990  48.5397130
  76.1936320  32.3035510  50.4606640  75.8451140  32.7599330  51.2264820
  75.8624020  31.4092640  50.5429070  81.5006720  47.0314700  50.2269550
  81.2598080  47.2989260  49.3400070  82.4409360  47.2020430  50.2820410
  77.6388720  48.4217360  51.7457610  77.0449040  48.2902060  52.4847650
  77.6312560  47.5855500  51.2799710  87.0843740  31.7149590  49.9487640
  86.2103580  32.0484700  49.7460570  86.9754490  31.2422770  50.7739510
  87.9915720  33.9220460  51.3329360  87.6629080  33.1072220  50.9531090
  88.9398020  33.8790270  51.2095050  77.2700950  45.7875740  50.6965650
  76.5435010  45.1681030  50.6291600  77.3310100  46.1816350  49.8263730
  80.8746050  48.0020740  47.4815060  81.3911070  47.3908100  46.9563320
  81.5243430  48.5049520  47.9726070  83.6141550  48.8929230  48.3084040
  83.9019360  48.6383530  47.4317050  84.1264770  48.3406590  48.8989610
  84.8318560  32.6319430  48.8880550  84.0490350  33.1064930  49.1677310
  84.5381490  31.7274260  48.7793730  89.3839630  33.3342530  46.9329640
  89.8247720  33.2787630  46.0851240  89.1147220  34.2500540  47.0039820
  75.5530950  49.1050130  43.9062410  75.3852990  48.4720810  44.6044300
  74.6865460  49.3109530  43.5556600  76.1758970  32.9366910  41.4094270
  76.9338330  33.0495790  40.8358300  75.7136140  33.7736110  41.3637700
  82.7172780  35.0506180  44.3996580  81.9047290  34.6763070  44.0592460
  83.2214420  34.2951260  44.7017770  87.2197760  31.7148630  45.6379650
  87.8227130  32.2868840  46.1128170  86.4790750  32.2788070  45.4153550
  77.1593650  47.7983360  41.3512550  76.6341270  48.1791390  40.6474510
  77.0838230  48.4234130  42.0722260  78.5484120  33.4630960  39.9496240
  79.0776880  32.6760760  39.8204190  79.1812440  34.1422150  40.1831770
  80.7421960  33.2006100  43.0041630  80.1124700  32.4993410  43.1711760
  80.2027100  33.9610230  42.7874790  79.7586620  49.7465740  40.2261800
  80.4905440  49.4625020  39.6785690  80.0180290  49.5079020  41.1161180
  78.9201410  45.8630470  40.2308130  78.2910290  46.3315570  40.7793960
  79.0349240  45.0179690  40.6654320  86.3751130  39.9136130  26.3809330
  86.2945180  38.9990740  26.1101040  85.9615550  40.4103200  25.6749040
  84.5069170  41.6915150  28.2618600  83.7311270  41.2115590  28.5517170
  85.1582100  41.0120800  28.0874760  78.5235000  42.0034960  29.1394360
  77.6919880  41.7483670  29.5390870  79.1315980  42.0745730  29.8752280
  88.5276600  46.0975340  27.0417730  88.0658130  45.3262580  27.3704900
  89.3402150  46.1241410  27.5470180  78.5036260  46.0375050  29.3352380
  78.8064300  45.1472790  29.1562600  79.2479850  46.5945270  29.1074630
  76.9326950  36.9636850  22.9236750  76.0443650  37.3052820  22.8216630
  77.2168140  36.7637170  22.0317580  74.8959960  39.5642500  28.8076450
  75.4676070  38.7964700  28.8080090  74.8961500  39.8631260  27.8983060
  84.7539910  48.3833350  26.6621720  84.1351350  48.8390850  26.0916160
  85.6091690  48.5384810  26.2611420  83.9478160  44.3672340  28.2688760
  83.8786440  43.4262280  28.1077890  84.7098020  44.4573750  28.8411330
  76.1384830  34.9726860  30.5945380  75.9587670  34.0752610  30.8748140
  75.7364910  35.5198730  31.2692330  84.9783330  37.1742720  28.4957690
  85.3548150  36.3014600  28.3831360  84.8802840  37.5101420  27.6048130
  79.1088340  35.5468350  23.9575130  79.2155090  36.4472080  24.2643890
  78.1980700  35.4986320  23.6669780  88.7607450  34.6693160  25.4286030
  89.5817070  34.1789730  25.4711510  88.7941530  35.2590820  26.1817870
  76.7571500  37.4687360  29.2027720  77.4381610  37.7325730  29.8215120
  76.4419550  36.6288230  29.5365730  80.9496070  38.5154720  28.2900310
  81.4574290  39.0135690  28.9305330  81.4809310  37.7389920  28.1139670
  79.2332170  33.1553280  32.5563730  79.2350610  33.6725670  31.7509630
  78.4036480  32.6783460  32.5333660  85.6203260  43.2672590  24.0553630
  85.0020530  43.7322040  23.4916350  86.1326510  43.9600070  24.4723140
  80.4835020  42.7948460  30.7337230  80.1504400  43.4217380  31.3758300
  80.6601700  43.3210340  29.9538900  88.9968930  36.6093540  28.2013570
  88.2924500  36.8978430  28.7816680  89.3581090  37.4193650  27.8413130
  78.9147500  34.8663240  30.5634180  79.2564310  35.7105290  30.2688050
  77.9763310  35.0146980  30.6799520  79.6954120  44.7629260  32.5486410
  80.3128120  45.4380340  32.2670860  78.8347240  45.1717240  32.4573910
  74.9886460  43.9529120  21.4293260  74.6114440  44.4416220  20.6978160
  75.2459530  44.6254400  22.0599790  82.5975390  32.3545510  26.8878770
  82.9050370  31.7992400  26.1714270  81.6676090  32.4889970  26.7051760
  88.1490450  48.0712800  29.1786230  88.1617610  47.6675090  28.3108490
  87.5965670  48.8460090  29.0747660  89.4435870  44.7929020  24.2676400
  89.3332200  43.8503350  24.3925820  89.4404120  45.1544660  25.1539160
  87.5475890  42.9742640  30.5068840  87.9644680  42.7602750  29.6722300
  88.2715710  43.2315430  31.0777460  84.9856150  40.4194340  23.6238890
  84.0585430  40.3531720  23.8527360  85.1380970  41.3574470  23.5094130
  84.9725230  36.6911340  20.6206050  84.0328900  36.8525300  20.7058510
  85.2908490  37.4097020  20.0742040  89.0153440  41.9814640  24.1274140
  88.3965860  41.6434190  23.4800440  88.9977890  41.3374400  24.8353330
  88.4580000  38.1599180  31.5439950  88.0451180  38.9852890  31.7979940
  87.7255950  37.5744220  31.3516310  80.5912790  40.9459080  26.4058620
  80.1869790  40.2336330  25.9104520  80.6775910  40.6012320  27.2946660
  81.0594490  44.6326640  28.5697830  80.7622780  44.0272110  27.8905610
  82.0094310  44.6703950  28.4587190  79.3041410  37.7202290  30.1857660
  79.8556000  37.8297630  29.4110910  79.8184920  38.0939890  30.9012890
  89.1480100  48.2058510  32.2320930  88.6710660  49.0130700  32.0393540
  88.4641890  47.5536840  32.3847140  80.1512920  44.3708330  35.2205630
  79.2541450  44.5948300  35.4679030  80.1765790  44.4943270  34.2717030
  87.1918140  41.2201450  21.1346890  87.6311420  40.3823880  20.9884710
  87.9046560  41.8530850  21.2211030  78.9784140  41.2421650  33.7963000
  78.8391910  42.1144450  34.1650400  78.0965500  40.8994460  33.6510940
  85.3013520  46.1597520  25.1028130  85.7409430  46.9021850  24.6883520
  85.2400410  46.4024090  26.0267090  80.7764490  47.1843350  36.0048150
  80.7479920  47.5886300  35.1376580  80.6129460  46.2553710  35.8419750
  77.2917420  39.8404060  23.9065270  77.1715020  40.5666150  23.2946540
  76.9818310  39.0706970  23.4293180  74.9302790  43.0119200  29.7133910
  75.0083210  43.1467970  28.7689630  75.5444470  42.3035090  29.9062030
  76.1750420  44.7119390  26.1240090  75.7678500  44.8533980  25.2693690
  77.0663430  44.4279550  25.9211300  85.9929300  48.8611300  33.0307140
  86.5073970  48.7719310  33.8329570  85.1498380  49.2071000  33.3235050
  87.9683700  49.1466640  22.4591140  87.8084840  48.8569580  23.3572970
  87.8030410  48.3706770  21.9236370  80.4472080  48.9265170  24.2362760
  80.2714560  48.0100710  24.0230560  79.5927820  49.2852460  24.4760560
  87.6709830  46.6554200  21.0189140  86.9774990  46.6531490  20.3591420
  88.4132690  46.2313520  20.5883310  87.2359760  48.2816910  25.0937630
  87.6916710  47.5006290  25.4076250  87.5752280  48.9923730  25.6378810
  74.9862310  44.0533370  32.2528370  75.1493350  43.5838730  31.4347740
  75.4514760  43.5456930  32.9177210  79.7581080  33.1839130  27.2888940
  79.3149230  33.9648670  26.9573460  80.3166070  33.5069020  27.9959880
  84.0450890  36.0507650  32.8924260  83.5830260  36.2590670  33.7044200
  83.6429000  35.2367000  32.5894930  89.0455400  37.2716600  34.0220920
  88.1948990  36.9722350  34.3429990  88.8857190  37.5158610  33.1104740
  86.1405110  38.7718350  36.1219710  86.4658520  37.9382100  35.7821940
  86.9285440  39.2946870  36.2698040  82.8739900  32.8049830  22.1694770
  82.2494080  32.8009700  22.8948080  82.7870020  31.9380790  21.7730740
  81.7956980  33.7286460  29.1478540  82.0929310  34.6349290  29.0670560
  82.3442540  33.2405240  28.5338110  79.5495300  38.3072700  25.0170190
  79.3236220  38.0909870  25.9216810  78.7687830  38.7401160  24.6716160
  86.7793060  38.3136070  23.6160840  86.1801950  39.0371870  23.4324460
  87.3272670  38.2512850  22.8337290  81.9894510  39.2058280  35.6830460
  81.8938110  38.2653010  35.5330860  82.8326490  39.4273350  35.2878530
  85.3857930  36.9499610  25.6464120  85.7787500  37.2671810  24.8332810
  85.7474780  36.0711490  25.7608640  77.1205050  35.6171950  33.8364240
  76.7268440  36.4647160  34.0437020  76.4323450  34.9798320  34.0272880
  83.6950100  35.7006920  36.9060980  83.0048420  35.5079120  37.5407070
  84.4382400  35.9841560  37.4385280  74.4222100  33.5400410  27.8694320
  74.1335150  34.1103270  28.5819300  75.1667860  33.0604860  28.2325550
  74.6092330  37.4820530  19.0797040  74.5267000  38.4251290  19.2212030
  74.2575390  37.3395440  18.2009390  85.9713070  39.5405360  29.7414900
  85.2394190  40.0492170  30.0905000  85.5737410  38.7235340  29.4403680
  82.4090460  36.2159560  28.1467390  82.4126520  35.7749510  27.2971930
  83.3041580  36.5376890  28.2539210  78.2592840  36.0986050  27.1061600
  77.9192890  36.5761280  27.8628650  77.4970160  35.6451170  26.7462700
  82.4710610  37.2171640  21.1374150  82.5923430  37.1758120  22.0859970
  82.0859120  38.0795790  20.9820880  86.4338980  34.9939040  29.1537840
  86.4511720  35.4447690  29.9979690  86.1854560  34.0944680  29.3671280
  81.4832110  39.5272780  20.5357450  80.9149010  39.0791030  19.9093360
  82.1921110  39.8865560  20.0022600  89.8609730  32.4071220  34.9924220
  90.1855500  31.6760880  35.5182200  89.8966240  32.0884860  34.0905210
  76.5601290  43.4284800  34.4124180  76.1756080  42.7878470  35.0107140
  76.8713480  44.1320920  34.9818910  82.7098430  40.2761340  29.8932800
  83.0768560  39.8019910  30.6394140  82.5203490  41.1502910  30.2341140
  75.5738920  35.0205030  26.0226270  75.2885840  34.6560700  26.8604890
  75.5117780  34.2885490  25.4089410  80.4997800  39.3169980  32.2117010
  80.1954870  40.1961960  32.4367370  81.4544260  39.3769770  32.2474450
  79.0279590  43.5230970  22.8083860  78.2541850  42.9828590  22.6482580
  79.7574220  43.0037580  22.4701620  85.2477510  33.9134290  22.7439640
  84.4342120  33.4147460  22.6684950  85.0539460  34.7532540  22.3275990
  85.1686370  42.5905390  34.4879250  85.1023680  41.6701060  34.2336840
  84.5391510  42.6880830  35.2023890  87.9625900  38.2853940  21.0401800
  88.8505520  38.5971170  20.8653140  87.9330990  37.4126190  20.6482380
  79.0716990  43.1911350  26.4462670  79.5895660  42.3879610  26.3919560
  78.6201010  43.1290490  27.2879500  83.9586490  44.4577630  21.7189970
  84.3002190  45.2019860  21.2233290  83.1299200  44.7708750  22.0814800
  76.5561530  40.1572720  33.3588370  76.1976470  40.8226570  33.9461710
  76.2616090  39.3256270  33.7300990  79.7574650  40.6156960  36.2427920
  79.4574790  40.7614140  35.3455740  80.5285890  40.0562250  36.1501310
  85.1003100  45.4125960  34.2383050  85.1147640  44.4806920  34.0201960
  84.3928200  45.4985720  34.8772820  86.8413900  43.7793470  27.0835480
  87.1937720  43.1821600  26.4236850  85.9576230  43.4537700  27.2543730
  82.9277180  44.5391160  24.4905890  83.6148310  45.0860370  24.8713480
  82.1409600  45.0831890  24.5255500  75.0669580  40.1563980  19.9822970
  75.9364430  40.4388780  20.2658890  74.5759900  40.9699850  19.8671780
  82.2304390  41.5437190  24.1031250  82.6867170  42.3542440  24.3291440
  81.8792600  41.2260330  24.9349740  84.5337000  47.0543530  31.3323550
  85.1779220  47.2602910  32.0096970  84.8966440  46.2931930  30.8794400
  78.1316170  31.8874840  24.5753770  78.0030800  31.8792740  25.5238690
  77.3078190  32.2257930  24.2244780  85.8069080  45.0575880  30.0501000
  86.4491310  44.3569040  30.1633170  86.3318430  45.8374320  29.8697890
  89.6524800  45.3424500  19.7740140  89.4262380  44.6254940  20.3664780
  89.2621000  45.0936940  18.9361890  87.5806700  45.8570780  33.2537060
  87.9162940  46.4437470  33.9314980  86.6607040  45.7263490  33.4834850
  75.4340830  49.3691360  20.5484600  75.7938470  49.9680700  19.8941870
  75.2933170  49.9151250  21.3219630  75.1310100  33.6465960  34.0360470
  74.4168620  33.8462880  34.6413080  75.5505140  32.8705530  34.4075270
  89.2341050  43.2596440  21.4354300  88.9462750  43.7209130  22.2232180
  90.0293220  42.7994210  21.7038520  75.4182690  47.6346220  35.0227000
  75.5273810  46.6940960  34.8822390  74.7663250  47.9000970  34.3740730
  83.4095280  45.9062110  36.4225120  83.0892150  45.1871350  36.9670810
  82.7353640  46.5817180  36.4961180  81.4509450  46.7522560  21.3658270
  81.4419550  47.4852250  20.7502780  80.5307810  46.5054140  21.4585230
  77.0516090  41.9737450  22.1105030  76.4444040  42.7136350  22.1200330
  77.5265440  42.0636810  21.2843230  86.6248880  36.1388270  31.7861920
  86.9929700  35.3183480  32.1141490  85.7647080  36.1990160  32.2017570
  89.9910910  35.0945210  22.5949480  89.3624070  35.1990880  21.8807710
  89.4962830  35.3141990  23.3843360  84.4369050  46.8150800  20.0283460
  84.5381030  46.6114790  19.0985440  83.5370790  46.5609080  20.2331240
  81.9594940  37.3731160  24.0107360  81.2511090  37.8417500  24.4520970
  82.2439420  36.7153170  24.6452550  83.5850870  38.7927860  32.0099890
  84.0836120  39.2673680  32.6751740  83.7273820  37.8691380  32.2169920
  85.9910370  34.0981820  25.4503150  85.8678150  34.1167950  24.5012660
  86.9394930  34.1460760  25.5701550  83.0787160  49.3337120  24.7231130
  83.3328660  49.2958510  23.8010500  82.1299640  49.2070450  24.7159380
  80.1629960  35.6816240  21.3858070  81.0120490  36.1186390  21.3198260
  79.7961230  35.9936500  22.2130130  89.0839740  40.2529000  26.2989640
  88.1429880  40.2679230  26.4737330  89.3983810  39.4664960  26.7449940
  79.0621380  41.9348600  19.8593600  79.8284650  41.8229960  20.4219030
  79.1396070  41.2386570  19.2070370  77.7568140  39.3673670  20.5426490
  77.8371730  38.4201180  20.6543890  78.6487890  39.6980550  20.6487150
  78.5582850  49.5169060  27.6461030  79.2945330  48.9684520  27.9169600
  78.9423770  50.3825070  27.5067020  75.4428330  45.5842630  23.5202540
  74.5168110  45.8263770  23.5107950  75.9084760  46.4116890  23.3987290
  77.5641130  48.7015130  36.8346610  78.3653860  49.0227180  37.2482010
  77.0492950  48.3410710  37.5566520  81.6685160  48.6899370  19.4686600
  82.4613770  48.9788200  19.0168390  81.1489510  48.2591540  18.7899080
  86.4005760  44.8095000  36.7822020  85.7943920  44.8326600  36.0417770
  86.0959870  44.0778040  37.3189270  87.8306130  48.5375290  35.3931430
  88.7827880  48.4533310  35.3431670  87.6834350  49.2017000  36.0665220
  75.2838940  41.1888590  35.7782660  75.7877960  40.6095870  36.3498890
  74.5446360  41.4728820  36.3159030  82.1862560  43.9102780  19.3328950
  82.0813200  43.2955130  20.0590330  82.0186780  43.3868670  18.5491960
  82.3376880  42.5959580  35.3118180  81.5722550  43.1644580  35.2272850
  82.5192840  42.3035790  34.4186410  85.4265290  42.9722810  19.9370940
  84.8775390  43.4192110  20.5813680  86.0484550  42.4672060  20.4608610
  89.4800230  44.3264910  35.8693200  90.2209700  44.6640670  35.3660660
  88.7172910  44.4956970  35.3162970  77.3162020  39.3318180  36.6732730
  77.3567360  39.0332050  37.5817960  78.1707520  39.7325790  36.5140250
  81.0940410  41.9313730  21.8336240  81.5156830  41.7653600  22.6767630
  81.2191250  41.1213960  21.3391380  79.2567830  37.9110280  34.6407220
  78.7264290  37.4201230  34.0130560  79.9255900  38.3394480  34.1065150
  83.6068050  40.9551340  19.0813340  84.1273710  40.2400360  18.7154490
  84.2536450  41.5937210  19.3813850  88.1545890  42.3779740  34.4048410
  88.5686910  42.5324820  35.2538830  87.2196890  42.5034960  34.5674190
  88.6268060  39.7175900  36.4087560  89.2088830  38.9628220  36.3208040
  88.8029830  40.2483340  35.6319040  79.7440130  34.8772650  34.7204510
  79.6497000  34.2593400  33.9955380  79.1637520  35.6038940  34.4934420
  82.5101570  33.4345890  31.7531900  82.0618870  33.4570150  30.9077450
  81.8766770  33.0364910  32.3502200  82.9161120  42.3300220  32.3744340
  83.3349230  43.1732950  32.2020580  81.9969750  42.4672260  32.1451120
  85.2525020  40.0616400  33.7582180  85.3721230  39.4657540  34.4977020
  86.1119020  40.0986090  33.3383480  87.5912920  40.6153590  32.3344690
  87.0648140  41.1396210  31.7309830  87.9344260  41.2480980  32.9654420
  79.9899310  38.0046960  18.7794400  79.7888370  37.1414320  19.1407740
  79.8191360  37.9180320  17.8416000  80.7668540  48.6353230  33.4902070
  80.2289630  49.3599290  33.1710770  81.0202500  48.1583570  32.6999410
  82.0193790  36.6037750  35.0158000  82.6093480  36.2953600  35.7035820
  81.2014030  36.1317500  35.1717900  86.8387220  36.2203560  35.2491020
  86.1502740  35.5585100  35.1841010  87.5593240  35.7741830  35.6939480
  87.4687620  32.8155190  21.3081280  87.7489910  31.9723090  21.6640700
  86.6953350  33.0478300  21.8220030  78.7882110  35.1047580  18.7672280
  79.0908010  35.1115010  17.8591430  79.5276700  34.7545440  19.2639940
  83.6230750  49.8704440  33.7488720  83.5489450  50.7739580  34.0561090
  82.7209590  49.5516340  33.7210790  82.0067040  34.0482200  19.7528480
  81.6589040  33.3706190  19.1730930  82.2079810  33.5871710  20.5671870
  84.1716080  49.0362950  21.3715080  85.0666870  49.3747920  21.3933840
  84.2033710  48.3142360  20.7439360  77.8112240  44.4090000  19.6002080
  78.2487110  44.9519670  20.2559660  78.2959970  43.5836950  19.6098420
  75.0258040  47.1979030  27.0522340  75.3561050  46.3300090  26.8200980
  75.4549040  47.4037550  27.8827300  79.6219960  45.5288040  24.7124310
  79.3215500  45.4053010  25.6128220  79.5157450  44.6696630  24.3040040
  75.5148250  48.0649620  29.7903970  75.0779240  48.2450420  30.6228120
  76.0825930  48.8224240  29.6485690  75.3472680  40.5769850  26.1492850
  74.6921520  40.3081490  25.5052550  76.1850630  40.4674330  25.6994830
  89.8362070  44.2918600  32.1757440  89.0221910  44.7215760  32.4383230
  90.2436270  44.9037010  31.5626490  88.2963120  35.3711140  20.3711340
  88.7148000  35.1842120  19.5308000  87.9899180  34.5190190  20.6814270
  76.3848610  40.9622420  30.6896190  76.7521650  40.8749820  31.5692210
  75.8159430  40.1988970  30.5903050  75.9364610  37.8731510  34.5954610
  75.0420660  37.8398270  34.9348320  76.4762160  38.0718300  35.3605860
  74.5610760  37.7868780  22.0918180  73.6574840  38.0498980  21.9169840
  75.0451380  38.0579950  21.3118140  77.1037970  36.8434320  20.0012560
  77.8129670  36.4217540  19.5159840  76.3877910  36.9109550  19.3695910
  76.7512130  32.8973650  19.0415210  77.4740260  33.4382590  19.3596430
  77.0236650  32.6237070  18.1656750  76.4404320  32.1479840  28.9437830
  77.0880510  31.5977220  28.5032990  76.8606160  32.4022990  29.7653640
  76.1936320  32.3035510  31.6863150  75.8451140  32.7599330  32.4521330
  75.8624020  31.4092640  31.7685580  77.8000690  45.4755110  35.8516340
  77.7570320  45.1048020  36.7330800  77.9311700  46.4132680  35.9918160
  81.5006720  47.0314700  31.4526060  81.2598080  47.2989260  30.5656580
  82.4409360  47.2020430  31.5076920  83.7061140  33.4947390  35.2082570
  83.6450030  34.0869220  35.9577980  84.6461520  33.3873350  35.0632830
  86.3435700  33.1517450  34.8474860  86.9576110  33.4696740  34.1855940
  86.8885260  32.6666040  35.4670720  76.8656960  31.8311710  34.9613920
  77.4139950  31.6499760  34.1980030  76.9312270  31.0405820  35.4970230
  77.6388720  48.4217360  32.9714120  77.0449040  48.2902060  33.7104160
  77.6312560  47.5855500  32.5056220  87.0843740  31.7149590  31.1744150
  86.2103580  32.0484700  30.9717080  86.9754490  31.2422770  31.9996020
  87.9915720  33.9220460  32.5585870  87.6629080  33.1072220  32.1787600
  88.9398020  33.8790270  32.4351560  77.2700950  45.7875740  31.9222160
  76.5435010  45.1681030  31.8548110  77.3310100  46.1816350  31.0520240
  80.8746050  48.0020740  28.7071570  81.3911070  47.3908100  28.1819830
  81.5243430  48.5049520  29.1982580  83.6141550  48.8929230  29.5340550
  83.9019360  48.6383530  28.6573560  84.1264770  48.3406590  30.1246120
  84.8318560  32.6319430  30.1137060  84.0490350  33.1064930  30.3933820
  84.5381490  31.7274260  30.0050240  89.3839630  33.3342530  28.1586150
  89.8247720  33.2787630  27.3107750  89.1147220  34.2500540  28.2296330
  75.5530950  49.1050130  25.1318920  75.3852990  48.4720810  25.8300810
  74.6865460  49.3109530  24.7813110  76.1758970  32.9366910  22.6350780
  76.9338330  33.0495790  22.0614810  75.7136140  33.7736110  22.5894210
  82.7172780  35.0506180  25.6253090  81.9047290  34.6763070  25.2848970
  83.2214420  34.2951260  25.9274280  87.2197760  31.7148630  26.8636160
  87.8227130  32.2868840  27.3384680  86.4790750  32.2788070  26.6410060
  77.1593650  47.7983360  22.5769060  76.6341270  48.1791390  21.8731020
  77.0838230  48.4234130  23.2978770  78.5484120  33.4630960  21.1752750
  79.0776880  32.6760760  21.0460700  79.1812440  34.1422150  21.4088280
  80.7421960  33.2006100  24.2298140  80.1124700  32.4993410  24.3968270
  80.2027100  33.9610230  24.0131300  83.6813910  49.8145330  36.9008750
  84.6081220  49.5789600  36.9444710  83.6664340  50.6417330  36.4194780
  80.8677520  32.4790080  36.6650630  80.5861790  32.9823680  35.9011450
  81.2497220  31.6811830  36.2992760  79.7586620  49.7465740  21.4518310
  80.4905440  49.4625020  20.9042200  80.0180290  49.5079020  22.3417690
  78.9201410  45.8630470  21.4564640  78.2910290  46.3315570  22.0050470
  79.0349240  45.0179690  21.8910830  87.4692980  31.8943660  37.2431100
  87.3558430  32.2138270  38.1382620  88.2862720  32.2956170  36.9468380
  86.3751130  39.9136130   7.6065840  86.2945180  38.9990740   7.3357550
  85.9615550  40.4103200   6.9005550  84.5069170  41.6915150   9.4875110
  83.7311270  41.2115590   9.7773680  85.1582100  41.0120800   9.3131270
  78.5235000  42.0034960  10.3650870  77.6919880  41.7483670  10.7647380
  79.1315980  42.0745730  11.1008790  88.5276600  46.0975340   8.2674240
  88.0658130  45.3262580   8.5961410  89.3402150  46.1241410   8.7726690
  78.5036260  46.0375050  10.5608890  78.8064300  45.1472790  10.3819110
  79.2479850  46.5945270  10.3331140  76.9326950  36.9636850   4.1493260
  76.0443650  37.3052820   4.0473140  77.2168140  36.7637170   3.2574090
  74.8959960  39.5642500  10.0332960  75.4676070  38.7964700  10.0336600
  74.8961500  39.8631260   9.1239570  84.7539910  48.3833350   7.8878230
  84.1351350  48.8390850   7.3172670  85.6091690  48.5384810   7.4867930
  83.9478160  44.3672340   9.4945270  83.8786440  43.4262280   9.3334400
  84.7098020  44.4573750  10.0667840  76.1384830  34.9726860  11.8201890
  75.9587670  34.0752610  12.1004650  75.7364910  35.5198730  12.4948840
  84.9783330  37.1742720   9.7214200  85.3548150  36.3014600   9.6087870
  84.8802840  37.5101420   8.8304640  79.1088340  35.5468350   5.1831640
  79.2155090  36.4472080   5.4900400  78.1980700  35.4986320   4.8926290
  88.7607450  34.6693160   6.6542540  89.5817070  34.1789730   6.6968020
  88.7941530  35.2590820   7.4074380  76.7571500  37.4687360  10.4284230
  77.4381610  37.7325730  11.0471630  76.4419550  36.6288230  10.7622240
  80.9496070  38.5154720   9.5156820  81.4574290  39.0135690  10.1561840
  81.4809310  37.7389920   9.3396180  79.2332170  33.1553280  13.7820240
  79.2350610  33.6725670  12.9766140  78.4036480  32.6783460  13.7590170
  85.6203260  43.2672590   5.2810140  85.0020530  43.7322040   4.7172860
  86.1326510  43.9600070   5.6979650  80.4835020  42.7948460  11.9593740
  80.1504400  43.4217380  12.6014810  80.6601700  43.3210340  11.1795410
  88.9968930  36.6093540   9.4270080  88.2924500  36.8978430  10.0073190
  89.3581090  37.4193650   9.0669640  78.9147500  34.8663240  11.7890690
  79.2564310  35.7105290  11.4944560  77.9763310  35.0146980  11.9056030
  79.6954120  44.7629260  13.7742920  80.3128120  45.4380340  13.4927370
  78.8347240  45.1717240  13.6830420  74.9886460  43.9529120   2.6549770
  74.6114440  44.4416220   1.9234670  75.2459530  44.6254400   3.2856300
  82.5975390  32.3545510   8.1135280  82.9050370  31.7992400   7.3970780
  81.6676090  32.4889970   7.9308270  88.1490450  48.0712800  10.4042740
  88.1617610  47.6675090   9.5365000  87.5965670  48.8460090  10.3004170
  89.4435870  44.7929020   5.4932910  89.3332200  43.8503350   5.6182330
  89.4404120  45.1544660   6.3795670  87.5475890  42.9742640  11.7325350
  87.9644680  42.7602750  10.8978810  88.2715710  43.2315430  12.3033970
  84.9856150  40.4194340   4.8495400  84.0585430  40.3531720   5.0783870
  85.1380970  41.3574470   4.7350640  89.0153440  41.9814640   5.3530650
  88.3965860  41.6434190   4.7056950  88.9977890  41.3374400   6.0609840
  88.4580000  38.1599180  12.7696460  88.0451180  38.9852890  13.0236450
  87.7255950  37.5744220  12.5772820  80.5912790  40.9459080   7.6315130
  80.1869790  40.2336330   7.1361030  80.6775910  40.6012320   8.5203170
  81.0594490  44.6326640   9.7954340  80.7622780  44.0272110   9.1162120
  82.0094310  44.6703950   9.6843700  79.3041410  37.7202290  11.4114170
  79.8556000  37.8297630  10.6367420  79.8184920  38.0939890  12.1269400
  89.1480100  48.2058510  13.4577440  88.6710660  49.0130700  13.2650050
  88.4641890  47.5536840  13.6103650  80.1512920  44.3708330  16.4462140
  79.2541450  44.5948300  16.6935540  80.1765790  44.4943270  15.4973540
  87.1918140  41.2201450   2.3603400  87.6311420  40.3823880   2.2141220
  87.9046560  41.8530850   2.4467540  78.9784140  41.2421650  15.0219510
  78.8391910  42.1144450  15.3906910  78.0965500  40.8994460  14.8767450
  85.3013520  46.1597520   6.3284640  85.7409430  46.9021850   5.9140030
  85.2400410  46.4024090   7.2523600  80.7764490  47.1843350  17.2304660
  80.7479920  47.5886300  16.3633090  80.6129460  46.2553710  17.0676260
  77.2917420  39.8404060   5.1321780  77.1715020  40.5666150   4.5203050
  76.9818310  39.0706970   4.6549690  74.9302790  43.0119200  10.9390420
  75.0083210  43.1467970   9.9946140  75.5444470  42.3035090  11.1318540
  76.1750420  44.7119390   7.3496600  75.7678500  44.8533980   6.4950200
  77.0663430  44.4279550   7.1467810  85.9929300  48.8611300  14.2563650
  86.5073970  48.7719310  15.0586080  85.1498380  49.2071000  14.5491560
  87.9683700  49.1466640   3.6847650  87.8084840  48.8569580   4.5829480
  87.8030410  48.3706770   3.1492880  80.4472080  48.9265170   5.4619270
  80.2714560  48.0100710   5.2487070  79.5927820  49.2852460   5.7017070
  87.2359760  48.2816910   6.3194140  87.6916710  47.5006290   6.6332760
  87.5752280  48.9923730   6.8635320  74.9862310  44.0533370  13.4784880
  75.1493350  43.5838730  12.6604250  75.4514760  43.5456930  14.1433720
  79.7581080  33.1839130   8.5145450  79.3149230  33.9648670   8.1829970
  80.3166070  33.5069020   9.2216390  84.0450890  36.0507650  14.1180770
  83.5830260  36.2590670  14.9300710  83.6429000  35.2367000  13.8151440
  89.0455400  37.2716600  15.2477430  88.1948990  36.9722350  15.5686500
  88.8857190  37.5158610  14.3361250  86.1405110  38.7718350  17.3476220
  86.4658520  37.9382100  17.0078450  86.9285440  39.2946870  17.4954550
  82.8739900  32.8049830   3.3951280  82.2494080  32.8009700   4.1204590
  82.7870020  31.9380790   2.9987250  81.7956980  33.7286460  10.3735050
  82.0929310  34.6349290  10.2927070  82.3442540  33.2405240   9.7594620
  79.5495300  38.3072700   6.2426700  79.3236220  38.0909870   7.1473320
  78.7687830  38.7401160   5.8972670  86.7793060  38.3136070   4.8417350
  86.1801950  39.0371870   4.6580970  87.3272670  38.2512850   4.0593800
  81.9894510  39.2058280  16.9086970  81.8938110  38.2653010  16.7587370
  82.8326490  39.4273350  16.5135040  85.3857930  36.9499610   6.8720630
  85.7787500  37.2671810   6.0589320  85.7474780  36.0711490   6.9865150
  77.1205050  35.6171950  15.0620750  76.7268440  36.4647160  15.2693530
  76.4323450  34.9798320  15.2529390  83.6950100  35.7006920  18.1317490
  83.0048420  35.5079120  18.7663580  84.4382400  35.9841560  18.6641790
  74.4222100  33.5400410   9.0950830  74.1335150  34.1103270   9.8075810
  75.1667860  33.0604860   9.4582060  85.9713070  39.5405360  10.9671410
  85.2394190  40.0492170  11.3161510  85.5737410  38.7235340  10.6660190
  82.4090460  36.2159560   9.3723900  82.4126520  35.7749510   8.5228440
  83.3041580  36.5376890   9.4795720  78.2592840  36.0986050   8.3318110
  77.9192890  36.5761280   9.0885160  77.4970160  35.6451170   7.9719210
  82.4710610  37.2171640   2.3630660  82.5923430  37.1758120   3.3116480
  82.0859120  38.0795790   2.2077390  86.4338980  34.9939040  10.3794350
  86.4511720  35.4447690  11.2236200  86.1854560  34.0944680  10.5927790
  89.8609730  32.4071220  16.2180730  90.1855500  31.6760880  16.7438710
  89.8966240  32.0884860  15.3161720  76.5601290  43.4284800  15.6380690
  76.1756080  42.7878470  16.2363650  76.8713480  44.1320920  16.2075420
  82.7098430  40.2761340  11.1189310  83.0768560  39.8019910  11.8650650
  82.5203490  41.1502910  11.4597650  75.5738920  35.0205030   7.2482780
  75.2885840  34.6560700   8.0861400  75.5117780  34.2885490   6.6345920
  80.4997800  39.3169980  13.4373520  80.1954870  40.1961960  13.6623880
  81.4544260  39.3769770  13.4730960  79.0279590  43.5230970   4.0340370
  78.2541850  42.9828590   3.8739090  79.7574220  43.0037580   3.6958130
  85.2477510  33.9134290   3.9696150  84.4342120  33.4147460   3.8941460
  85.0539460  34.7532540   3.5532500  85.1686370  42.5905390  15.7135760
  85.1023680  41.6701060  15.4593350  84.5391510  42.6880830  16.4280400
  87.9625900  38.2853940   2.2658310  88.8505520  38.5971170   2.0909650
  87.9330990  37.4126190   1.8738890  79.0716990  43.1911350   7.6719180
  79.5895660  42.3879610   7.6176070  78.6201010  43.1290490   8.5136010
  83.9586490  44.4577630   2.9446480  84.3002190  45.2019860   2.4489800
  83.1299200  44.7708750   3.3071310  76.5561530  40.1572720  14.5844880
  76.1976470  40.8226570  15.1718220  76.2616090  39.3256270  14.9557500
  79.7574650  40.6156960  17.4684430  79.4574790  40.7614140  16.5712250
  80.5285890  40.0562250  17.3757820  85.1003100  45.4125960  15.4639560
  85.1147640  44.4806920  15.2458470  84.3928200  45.4985720  16.1029330
  86.8413900  43.7793470   8.3091990  87.1937720  43.1821600   7.6493360
  85.9576230  43.4537700   8.4800240  82.9277180  44.5391160   5.7162400
  83.6148310  45.0860370   6.0969990  82.1409600  45.0831890   5.7512010
  82.2304390  41.5437190   5.3287760  82.6867170  42.3542440   5.5547950
  81.8792600  41.2260330   6.1606250  84.5337000  47.0543530  12.5580060
  85.1779220  47.2602910  13.2353480  84.8966440  46.2931930  12.1050910
  78.1316170  31.8874840   5.8010280  78.0030800  31.8792740   6.7495200
  77.3078190  32.2257930   5.4501290  85.8069080  45.0575880  11.2757510
  86.4491310  44.3569040  11.3889680  86.3318430  45.8374320  11.0954400
  87.5806700  45.8570780  14.4793570  87.9162940  46.4437470  15.1571490
  86.6607040  45.7263490  14.7091360  75.1310100  33.6465960  15.2616980
  74.4168620  33.8462880  15.8669590  75.5505140  32.8705530  15.6331780
  89.2341050  43.2596440   2.6610810  88.9462750  43.7209130   3.4488690
  90.0293220  42.7994210   2.9295030  75.4182690  47.6346220  16.2483510
  75.5273810  46.6940960  16.1078900  74.7663250  47.9000970  15.5997240
  83.4095280  45.9062110  17.6481630  83.0892150  45.1871350  18.1927320
  82.7353640  46.5817180  17.7217690  81.4509450  46.7522560   2.5914780
  81.4419550  47.4852250   1.9759290  80.5307810  46.5054140   2.6841740
  77.0516090  41.9737450   3.3361540  76.4444040  42.7136350   3.3456840
  77.5265440  42.0636810   2.5099740  86.6248880  36.1388270  13.0118430
  86.9929700  35.3183480  13.3398000  85.7647080  36.1990160  13.4274080
  89.9910910  35.0945210   3.8205990  89.3624070  35.1990880   3.1064220
  89.4962830  35.3141990   4.6099870  81.9594940  37.3731160   5.2363870
  81.2511090  37.8417500   5.6777480  82.2439420  36.7153170   5.8709060
  83.5850870  38.7927860  13.2356400  84.0836120  39.2673680  13.9008250
  83.7273820  37.8691380  13.4426430  85.9910370  34.0981820   6.6759660
  85.8678150  34.1167950   5.7269170  86.9394930  34.1460760   6.7958060
  83.0787160  49.3337120   5.9487640  83.3328660  49.2958510   5.0267010
  82.1299640  49.2070450   5.9415890  80.1629960  35.6816240   2.6114580
  81.0120490  36.1186390   2.5454770  79.7961230  35.9936500   3.4386640
  89.0839740  40.2529000   7.5246150  88.1429880  40.2679230   7.6993840
  89.3983810  39.4664960   7.9706450  77.7568140  39.3673670   1.7683000
  77.8371730  38.4201180   1.8800400  78.6487890  39.6980550   1.8743660
  78.5582850  49.5169060   8.8717540  79.2945330  48.9684520   9.1426110
  78.9423770  50.3825070   8.7323530  75.4428330  45.5842630   4.7459050
  74.5168110  45.8263770   4.7364460  75.9084760  46.4116890   4.6243800
  77.5641130  48.7015130  18.0603120  78.3653860  49.0227180  18.4738520
  77.0492950  48.3410710  18.7823030  86.4005760  44.8095000  18.0078530
  85.7943920  44.8326600  17.2674280  86.0959870  44.0778040  18.5445780
  87.8306130  48.5375290  16.6187940  88.7827880  48.4533310  16.5688180
  87.6834350  49.2017000  17.2921730  75.2838940  41.1888590  17.0039170
  75.7877960  40.6095870  17.5755400  74.5446360  41.4728820  17.5415540
  82.3376880  42.5959580  16.5374690  81.5722550  43.1644580  16.4529360
  82.5192840  42.3035790  15.6442920  89.4800230  44.3264910  17.0949710
  90.2209700  44.6640670  16.5917170  88.7172910  44.4956970  16.5419480
  77.3162020  39.3318180  17.8989240  77.3567360  39.0332050  18.8074470
  78.1707520  39.7325790  17.7396760  81.0940410  41.9313730   3.0592750
  81.5156830  41.7653600   3.9024140  81.2191250  41.1213960   2.5647890
  79.2567830  37.9110280  15.8663730  78.7264290  37.4201230  15.2387070
  79.9255900  38.3394480  15.3321660  88.1545890  42.3779740  15.6304920
  88.5686910  42.5324820  16.4795340  87.2196890  42.5034960  15.7930700
  88.6268060  39.7175900  17.6344070  89.2088830  38.9628220  17.5464550
  88.8029830  40.2483340  16.8575550  79.7440130  34.8772650  15.9461020
  79.6497000  34.2593400  15.2211890  79.1637520  35.6038940  15.7190930
  82.5101570  33.4345890  12.9788410  82.0618870  33.4570150  12.1333960
  81.8766770  33.0364910  13.5758710  82.9161120  42.3300220  13.6000850
  83.3349230  43.1732950  13.4277090  81.9969750  42.4672260  13.3707630
  85.2525020  40.0616400  14.9838690  85.3721230  39.4657540  15.7233530
  86.1119020  40.0986090  14.5639990  87.5912920  40.6153590  13.5601200
  87.0648140  41.1396210  12.9566340  87.9344260  41.2480980  14.1910930
  80.7668540  48.6353230  14.7158580  80.2289630  49.3599290  14.3967280
  81.0202500  48.1583570  13.9255920  82.0193790  36.6037750  16.2414510
  82.6093480  36.2953600  16.9292330  81.2014030  36.1317500  16.3974410
  86.8387220  36.2203560  16.4747530  86.1502740  35.5585100  16.4097520
  87.5593240  35.7741830  16.9195990  87.4687620  32.8155190   2.5337790
  87.7489910  31.9723090   2.8897210  86.6953350  33.0478300   3.0476540
  83.6230750  49.8704440  14.9745230  83.5489450  50.7739580  15.2817600
  82.7209590  49.5516340  14.9467300  84.1716080  49.0362950   2.5971590
  85.0666870  49.3747920   2.6190350  84.2033710  48.3142360   1.9695870
  75.0258040  47.1979030   8.2778850  75.3561050  46.3300090   8.0457490
  75.4549040  47.4037550   9.1083810  79.6219960  45.5288040   5.9380820
  79.3215500  45.4053010   6.8384730  79.5157450  44.6696630   5.5296550
  75.5148250  48.0649620  11.0160480  75.0779240  48.2450420  11.8484630
  76.0825930  48.8224240  10.8742200  75.3472680  40.5769850   7.3749360
  74.6921520  40.3081490   6.7309060  76.1850630  40.4674330   6.9251340
  89.8362070  44.2918600  13.4013950  89.0221910  44.7215760  13.6639740
  90.2436270  44.9037010  12.7883000  76.3848610  40.9622420  11.9152700
  76.7521650  40.8749820  12.7948720  75.8159430  40.1988970  11.8159560
  75.9364610  37.8731510  15.8211120  75.0420660  37.8398270  16.1604830
  76.4762160  38.0718300  16.5862370  74.5610760  37.7868780   3.3174690
  73.6574840  38.0498980   3.1426350  75.0451380  38.0579950   2.5374650
  76.4404320  32.1479840  10.1694340  77.0880510  31.5977220   9.7289500
  76.8606160  32.4022990  10.9910150  76.1936320  32.3035510  12.9119660
  75.8451140  32.7599330  13.6777840  75.8624020  31.4092640  12.9942090
  77.8000690  45.4755110  17.0772850  77.7570320  45.1048020  17.9587310
  77.9311700  46.4132680  17.2174670  81.5006720  47.0314700  12.6782570
  81.2598080  47.2989260  11.7913090  82.4409360  47.2020430  12.7333430
  83.7061140  33.4947390  16.4339080  83.6450030  34.0869220  17.1834490
  84.6461520  33.3873350  16.2889340  86.3435700  33.1517450  16.0731370
  86.9576110  33.4696740  15.4112450  86.8885260  32.6666040  16.6927230
  76.8656960  31.8311710  16.1870430  77.4139950  31.6499760  15.4236540
  76.9312270  31.0405820  16.7226740  77.6388720  48.4217360  14.1970630
  77.0449040  48.2902060  14.9360670  77.6312560  47.5855500  13.7312730
  87.0843740  31.7149590  12.4000660  86.2103580  32.0484700  12.1973590
  86.9754490  31.2422770  13.2252530  87.9915720  33.9220460  13.7842380
  87.6629080  33.1072220  13.4044110  88.9398020  33.8790270  13.6608070
  77.2700950  45.7875740  13.1478670  76.5435010  45.1681030  13.0804620
  77.3310100  46.1816350  12.2776750  80.8746050  48.0020740   9.9328080
  81.3911070  47.3908100   9.4076340  81.5243430  48.5049520  10.4239090
  83.6141550  48.8929230  10.7597060  83.9019360  48.6383530   9.8830070
  84.1264770  48.3406590  11.3502630  84.8318560  32.6319430  11.3393570
  84.0490350  33.1064930  11.6190330  84.5381490  31.7274260  11.2306750
  89.3839630  33.3342530   9.3842660  89.8247720  33.2787630   8.5364260
  89.1147220  34.2500540   9.4552840  75.5530950  49.1050130   6.3575430
  75.3852990  48.4720810   7.0557320  74.6865460  49.3109530   6.0069620
  76.1758970  32.9366910   3.8607290  76.9338330  33.0495790   3.2871320
  75.7136140  33.7736110   3.8150720  82.7172780  35.0506180   6.8509600
  81.9047290  34.6763070   6.5105480  83.2214420  34.2951260   7.1530790
  87.2197760  31.7148630   8.0892670  87.8227130  32.2868840   8.5641190
  86.4790750  32.2788070   7.8666570  77.1593650  47.7983360   3.8025570
  76.6341270  48.1791390   3.0987530  77.0838230  48.4234130   4.5235280
  78.5484120  33.4630960   2.4009260  79.0776880  32.6760760   2.2717210
  79.1812440  34.1422150   2.6344790  80.7421960  33.2006100   5.4554650
  80.1124700  32.4993410   5.6224780  80.2027100  33.9610230   5.2387810
  83.6813910  49.8145330  18.1265260  84.6081220  49.5789600  18.1701220
  83.6664340  50.6417330  17.6451290  80.8677520  32.4790080  17.8907140
  80.5861790  32.9823680  17.1267960  81.2497220  31.6811830  17.5249270
  79.7586620  49.7465740   2.6774820  80.4905440  49.4625020   2.1298710
  80.0180290  49.5079020   3.5674200  78.9201410  45.8630470   2.6821150
  78.2910290  46.3315570   3.2306980  79.0349240  45.0179690   3.1167340
  87.4692980  31.8943660  18.4687610  87.3558430  32.2138270  19.3639130
  88.2862720  32.2956170  18.1724890  86.3751130  21.1392640  45.1552820
  86.2945180  20.2247250  44.8844530  85.9615550  21.6359710  44.4492530
  84.5069170  22.9171660  47.0362090  83.7311270  22.4372100  47.3260660
  85.1582100  22.2377310  46.8618250  78.5235000  23.2291470  47.9137850
  77.6919880  22.9740180  48.3134360  79.1315980  23.3002240  48.6495770
  88.5276600  27.3231850  45.8161220  88.0658130  26.5519090  46.1448390
  89.3402150  27.3497920  46.3213670  78.5036260  27.2631560  48.1095870
  78.8064300  26.3729300  47.9306090  79.2479850  27.8201780  47.8818120
  76.9326950  18.1893360  41.6980240  76.0443650  18.5309330  41.5960120
  77.2168140  17.9893680  40.8061070  74.8959960  20.7899010  47.5819940
  75.4676070  20.0221210  47.5823580  74.8961500  21.0887770  46.6726550
  84.7539910  29.6089860  45.4365210  84.1351350  30.0647360  44.8659650
  85.6091690  29.7641320  45.0354910  83.9478160  25.5928850  47.0432250
  83.8786440  24.6518790  46.8821380  84.7098020  25.6830260  47.6154820
  76.1384830  16.1983370  49.3688870  75.9587670  15.3009120  49.6491630
  75.7364910  16.7455240  50.0435820  84.9783330  18.3999230  47.2701180
  85.3548150  17.5271110  47.1574850  84.8802840  18.7357930  46.3791620
  79.1088340  16.7724860  42.7318620  79.2155090  17.6728590  43.0387380
  78.1980700  16.7242830  42.4413270  88.7607450  15.8949670  44.2029520
  89.5817070  15.4046240  44.2455000  88.7941530  16.4847330  44.9561360
  76.7571500  18.6943870  47.9771210  77.4381610  18.9582240  48.5958610
  76.4419550  17.8544740  48.3109220  80.9496070  19.7411230  47.0643800
  81.4574290  20.2392200  47.7048820  81.4809310  18.9646430  46.8883160
  79.2332170  14.3809790  51.3307220  79.2350610  14.8982180  50.5253120
  78.4036480  13.9039970  51.3077150  85.6203260  24.4929100  42.8297120
  85.0020530  24.9578550  42.2659840  86.1326510  25.1856580  43.2466630
  80.4835020  24.0204970  49.5080720  80.1504400  24.6473890  50.1501790
  80.6601700  24.5466850  48.7282390  88.9968930  17.8350050  46.9757060
  88.2924500  18.1234940  47.5560170  89.3581090  18.6450160  46.6156620
  78.9147500  16.0919750  49.3377670  79.2564310  16.9361800  49.0431540
  77.9763310  16.2403490  49.4543010  79.6954120  25.9885770  51.3229900
  80.3128120  26.6636850  51.0414350  78.8347240  26.3973750  51.2317400
  74.9886460  25.1785630  40.2036750  74.6114440  25.6672730  39.4721650
  75.2459530  25.8510910  40.8343280  82.5975390  13.5802020  45.6622260
  82.9050370  13.0248910  44.9457760  81.6676090  13.7146480  45.4795250
  88.1490450  29.2969310  47.9529720  88.1617610  28.8931600  47.0851980
  87.5965670  30.0716600  47.8491150  89.4435870  26.0185530  43.0419890
  89.3332200  25.0759860  43.1669310  89.4404120  26.3801170  43.9282650
  87.5475890  24.1999150  49.2812330  87.9644680  23.9859260  48.4465790
  88.2715710  24.4571940  49.8520950  84.9856150  21.6450850  42.3982380
  84.0585430  21.5788230  42.6270850  85.1380970  22.5830980  42.2837620
  84.9725230  17.9167850  39.3949540  84.0328900  18.0781810  39.4802000
  85.2908490  18.6353530  38.8485530  89.0153440  23.2071150  42.9017630
  88.3965860  22.8690700  42.2543930  88.9977890  22.5630910  43.6096820
  88.4580000  19.3855690  50.3183440  88.0451180  20.2109400  50.5723430
  87.7255950  18.8000730  50.1259800  80.5912790  22.1715590  45.1802110
  80.1869790  21.4592840  44.6848010  80.6775910  21.8268830  46.0690150
  81.0594490  25.8583150  47.3441320  80.7622780  25.2528620  46.6649100
  82.0094310  25.8960460  47.2330680  79.3041410  18.9458800  48.9601150
  79.8556000  19.0554140  48.1854400  79.8184920  19.3196400  49.6756380
  89.1480100  29.4315020  51.0064420  88.6710660  30.2387210  50.8137030
  88.4641890  28.7793350  51.1590630  87.1918140  22.4457960  39.9090380
  87.6311420  21.6080390  39.7628200  87.9046560  23.0787360  39.9954520
  78.9784140  22.4678160  52.5706490  78.8391910  23.3400960  52.9393890
  78.0965500  22.1250970  52.4254430  85.3013520  27.3854030  43.8771620
  85.7409430  28.1278360  43.4627010  85.2400410  27.6280600  44.8010580
  77.2917420  21.0660570  42.6808760  77.1715020  21.7922660  42.0690030
  76.9818310  20.2963480  42.2036670  74.9302790  24.2375710  48.4877400
  75.0083210  24.3724480  47.5433120  75.5444470  23.5291600  48.6805520
  76.1750420  25.9375900  44.8983580  75.7678500  26.0790490  44.0437180
  77.0663430  25.6536060  44.6954790  85.9929300  30.0867810  51.8050630
  86.5073970  29.9975820  52.6073060  85.1498380  30.4327510  52.0978540
  87.9683700  30.3723150  41.2334630  87.8084840  30.0826090  42.1316460
  87.8030410  29.5963280  40.6979860  80.4472080  30.1521680  43.0106250
  80.2714560  29.2357220  42.7974050  79.5927820  30.5108970  43.2504050
  87.6709830  27.8810710  39.7932630  86.9774990  27.8788000  39.1334910
  88.4132690  27.4570030  39.3626800  87.2359760  29.5073420  43.8681120
  87.6916710  28.7262800  44.1819740  87.5752280  30.2180240  44.4122300
  74.9862310  25.2789880  51.0271860  75.1493350  24.8095240  50.2091230
  75.4514760  24.7713440  51.6920700  79.7581080  14.4095640  46.0632430
  79.3149230  15.1905180  45.7316950  80.3166070  14.7325530  46.7703370
  84.0450890  17.2764160  51.6667750  83.5830260  17.4847180  52.4787690
  83.6429000  16.4623510  51.3638420  89.0455400  18.4973110  52.7964410
  88.1948990  18.1978860  53.1173480  88.8857190  18.7415120  51.8848230
  82.8739900  14.0306340  40.9438260  82.2494080  14.0266210  41.6691570
  82.7870020  13.1637300  40.5474230  81.7956980  14.9542970  47.9222030
  82.0929310  15.8605800  47.8414050  82.3442540  14.4661750  47.3081600
  79.5495300  19.5329210  43.7913680  79.3236220  19.3166380  44.6960300
  78.7687830  19.9657670  43.4459650  86.7793060  19.5392580  42.3904330
  86.1801950  20.2628380  42.2067950  87.3272670  19.4769360  41.6080780
  85.3857930  18.1756120  44.4207610  85.7787500  18.4928320  43.6076300
  85.7474780  17.2968000  44.5352130  77.1205050  16.8428460  52.6107730
  76.7268440  17.6903670  52.8180510  76.4323450  16.2054830  52.8016370
  74.4222100  14.7656920  46.6437810  74.1335150  15.3359780  47.3562790
  75.1667860  14.2861370  47.0069040  74.6092330  18.7077040  37.8540530
  74.5267000  19.6507800  37.9955520  74.2575390  18.5651950  36.9752880
  85.9713070  20.7661870  48.5158390  85.2394190  21.2748680  48.8648490
  85.5737410  19.9491850  48.2147170  82.4090460  17.4416070  46.9210880
  82.4126520  17.0006020  46.0715420  83.3041580  17.7633400  47.0282700
  78.2592840  17.3242560  45.8805090  77.9192890  17.8017790  46.6372140
  77.4970160  16.8707680  45.5206190  82.4710610  18.4428150  39.9117640
  82.5923430  18.4014630  40.8603460  82.0859120  19.3052300  39.7564370
  86.4338980  16.2195550  47.9281330  86.4511720  16.6704200  48.7723180
  86.1854560  15.3201190  48.1414770  81.4832110  20.7529290  39.3100940
  80.9149010  20.3047540  38.6836850  82.1921110  21.1122070  38.7766090
  76.5601290  24.6541310  53.1867670  76.1756080  24.0134980  53.7850630
  76.8713480  25.3577430  53.7562400  82.7098430  21.5017850  48.6676290
  83.0768560  21.0276420  49.4137630  82.5203490  22.3759420  49.0084630
  75.5738920  16.2461540  44.7969760  75.2885840  15.8817210  45.6348380
  75.5117780  15.5142000  44.1832900  80.4997800  20.5426490  50.9860500
  80.1954870  21.4218470  51.2110860  81.4544260  20.6026280  51.0217940
  79.0279590  24.7487480  41.5827350  78.2541850  24.2085100  41.4226070
  79.7574220  24.2294090  41.2445110  85.2477510  15.1390800  41.5183130
  84.4342120  14.6403970  41.4428440  85.0539460  15.9789050  41.1019480
  85.1686370  23.8161900  53.2622740  85.1023680  22.8957570  53.0080330
  84.5391510  23.9137340  53.9767380  87.9625900  19.5110450  39.8145290
  88.8505520  19.8227680  39.6396630  87.9330990  18.6382700  39.4225870
  79.0716990  24.4167860  45.2206160  79.5895660  23.6136120  45.1663050
  78.6201010  24.3547000  46.0622990  83.9586490  25.6834140  40.4933460
  84.3002190  26.4276370  39.9976780  83.1299200  25.9965260  40.8558290
  76.5561530  21.3829230  52.1331860  76.1976470  22.0483080  52.7205200
  76.2616090  20.5512780  52.5044480  85.1003100  26.6382470  53.0126540
  85.1147640  25.7063430  52.7945450  84.3928200  26.7242230  53.6516310
  86.8413900  25.0049980  45.8578970  87.1937720  24.4078110  45.1980340
  85.9576230  24.6794210  46.0287220  82.9277180  25.7647670  43.2649380
  83.6148310  26.3116880  43.6456970  82.1409600  26.3088400  43.2998990
  75.0669580  21.3820490  38.7566460  75.9364430  21.6645290  39.0402380
  74.5759900  22.1956360  38.6415270  82.2304390  22.7693700  42.8774740
  82.6867170  23.5798950  43.1034930  81.8792600  22.4516840  43.7093230
  84.5337000  28.2800040  50.1067040  85.1779220  28.4859420  50.7840460
  84.8966440  27.5188440  49.6537890  78.1316170  13.1131350  43.3497260
  78.0030800  13.1049250  44.2982180  77.3078190  13.4514440  42.9988270
  85.8069080  26.2832390  48.8244490  86.4491310  25.5825550  48.9376660
  86.3318430  27.0630830  48.6441380  89.6524800  26.5681010  38.5483630
  89.4262380  25.8511450  39.1408270  89.2621000  26.3193450  37.7105380
  87.5806700  27.0827290  52.0280550  87.9162940  27.6693980  52.7058470
  86.6607040  26.9520000  52.2578340  75.4340830  30.5947870  39.3228090
  75.7938470  31.1937210  38.6685360  75.2933170  31.1407760  40.0963120
  75.1310100  14.8722470  52.8103960  74.4168620  15.0719390  53.4156570
  75.5505140  14.0962040  53.1818760  89.2341050  24.4852950  40.2097790
  88.9462750  24.9465640  40.9975670  90.0293220  24.0250720  40.4782010
  75.4182690  28.8602730  53.7970490  75.5273810  27.9197470  53.6565880
  74.7663250  29.1257480  53.1484220  81.4509450  27.9779070  40.1401760
  81.4419550  28.7108760  39.5246270  80.5307810  27.7310650  40.2328720
  77.0516090  23.1993960  40.8848520  76.4444040  23.9392860  40.8943820
  77.5265440  23.2893320  40.0586720  86.6248880  17.3644780  50.5605410
  86.9929700  16.5439990  50.8884980  85.7647080  17.4246670  50.9761060
  89.9910910  16.3201720  41.3692970  89.3624070  16.4247390  40.6551200
  89.4962830  16.5398500  42.1586850  84.4369050  28.0407310  38.8026950
  84.5381030  27.8371300  37.8728930  83.5370790  27.7865590  39.0074730
  81.9594940  18.5987670  42.7850850  81.2511090  19.0674010  43.2264460
  82.2439420  17.9409680  43.4196040  83.5850870  20.0184370  50.7843380
  84.0836120  20.4930190  51.4495230  83.7273820  19.0947890  50.9913410
  85.9910370  15.3238330  44.2246640  85.8678150  15.3424460  43.2756150
  86.9394930  15.3717270  44.3445040  83.0787160  30.5593630  43.4974620
  83.3328660  30.5215020  42.5753990  82.1299640  30.4326960  43.4902870
  80.1629960  16.9072750  40.1601560  81.0120490  17.3442900  40.0941750
  79.7961230  17.2193010  40.9873620  89.0839740  21.4785510  45.0733130
  88.1429880  21.4935740  45.2480820  89.3983810  20.6921470  45.5193430
  79.0621380  23.1605110  38.6337090  79.8284650  23.0486470  39.1962520
  79.1396070  22.4643080  37.9813860  77.7568140  20.5930180  39.3169980
  77.8371730  19.6457690  39.4287380  78.6487890  20.9237060  39.4230640
  78.5582850  30.7425570  46.4204520  79.2945330  30.1941030  46.6913090
  78.9423770  31.6081580  46.2810510  75.4428330  26.8099140  42.2946030
  74.5168110  27.0520280  42.2851440  75.9084760  27.6373400  42.1730780
  81.6685160  29.9155880  38.2430090  82.4613770  30.2044710  37.7911880
  81.1489510  29.4848050  37.5642570  82.1862560  25.1359290  38.1072440
  82.0813200  24.5211640  38.8333820  82.0186780  24.6125180  37.3235450
  82.3376880  23.8216090  54.0861670  81.5722550  24.3901090  54.0016340
  82.5192840  23.5292300  53.1929900  85.4265290  24.1979320  38.7114430
  84.8775390  24.6448620  39.3557170  86.0484550  23.6928570  39.2352100
  81.0940410  23.1570240  40.6079730  81.5156830  22.9910110  41.4511120
  81.2191250  22.3470470  40.1134870  79.2567830  19.1366790  53.4150710
  78.7264290  18.6457740  52.7874050  79.9255900  19.5650990  52.8808640
  83.6068050  22.1807850  37.8556830  84.1273710  21.4656870  37.4897980
  84.2536450  22.8193720  38.1557340  88.1545890  23.6036250  53.1791900
  88.5686910  23.7581330  54.0282320  87.2196890  23.7291470  53.3417680
  79.7440130  16.1029160  53.4948000  79.6497000  15.4849910  52.7698870
  79.1637520  16.8295450  53.2677910  82.5101570  14.6602400  50.5275390
  82.0618870  14.6826660  49.6820940  81.8766770  14.2621420  51.1245690
  82.9161120  23.5556730  51.1487830  83.3349230  24.3989460  50.9764070
  81.9969750  23.6928770  50.9194610  85.2525020  21.2872910  52.5325670
  85.3721230  20.6914050  53.2720510  86.1119020  21.3242600  52.1126970
  87.5912920  21.8410100  51.1088180  87.0648140  22.3652720  50.5053320
  87.9344260  22.4737490  51.7397910  79.9899310  19.2303470  37.5537890
  79.7888370  18.3670830  37.9151230  79.8191360  19.1436830  36.6159490
  80.7668540  29.8609740  52.2645560  80.2289630  30.5855800  51.9454260
  81.0202500  29.3840080  51.4742900  87.4687620  14.0411700  40.0824770
  87.7489910  13.1979600  40.4384190  86.6953350  14.2734810  40.5963520
  78.7882110  16.3304090  37.5415770  79.0908010  16.3371520  36.6334920
  79.5276700  15.9801950  38.0383430  83.6230750  31.0960950  52.5232210
  83.5489450  31.9996090  52.8304580  82.7209590  30.7772850  52.4954280
  82.0067040  15.2738710  38.5271970  81.6589040  14.5962700  37.9474420
  82.2079810  14.8128220  39.3415360  84.1716080  30.2619460  40.1458570
  85.0666870  30.6004430  40.1677330  84.2033710  29.5398870  39.5182850
  77.8112240  25.6346510  38.3745570  78.2487110  26.1776180  39.0303150
  78.2959970  24.8093460  38.3841910  75.0258040  28.4235540  45.8265830
  75.3561050  27.5556600  45.5944470  75.4549040  28.6294060  46.6570790
  79.6219960  26.7544550  43.4867800  79.3215500  26.6309520  44.3871710
  79.5157450  25.8953140  43.0783530  75.5148250  29.2906130  48.5647460
  75.0779240  29.4706930  49.3971610  76.0825930  30.0480750  48.4229180
  75.3472680  21.8026360  44.9236340  74.6921520  21.5338000  44.2796040
  76.1850630  21.6930840  44.4738320  89.8362070  25.5175110  50.9500930
  89.0221910  25.9472270  51.2126720  90.2436270  26.1293520  50.3369980
  88.2963120  16.5967650  39.1454830  88.7148000  16.4098630  38.3051490
  87.9899180  15.7446700  39.4557760  76.3848610  22.1878930  49.4639680
  76.7521650  22.1006330  50.3435700  75.8159430  21.4245480  49.3646540
  75.9364610  19.0988020  53.3698100  75.0420660  19.0654780  53.7091810
  76.4762160  19.2974810  54.1349350  74.5610760  19.0125290  40.8661670
  73.6574840  19.2755490  40.6913330  75.0451380  19.2836460  40.0861630
  77.1037970  18.0690830  38.7756050  77.8129670  17.6474050  38.2903330
  76.3877910  18.1366060  38.1439400  76.7512130  14.1230160  37.8158700
  77.4740260  14.6639100  38.1339920  77.0236650  13.8493580  36.9400240
  76.4404320  13.3736350  47.7181320  77.0880510  12.8233730  47.2776480
  76.8606160  13.6279500  48.5397130  76.1936320  13.5292020  50.4606640
  75.8451140  13.9855840  51.2264820  75.8624020  12.6349150  50.5429070
  81.5006720  28.2571210  50.2269550  81.2598080  28.5245770  49.3400070
  82.4409360  28.4276940  50.2820410  77.6388720  29.6473870  51.7457610
  77.0449040  29.5158570  52.4847650  77.6312560  28.8112010  51.2799710
  87.0843740  12.9406100  49.9487640  86.2103580  13.2741210  49.7460570
  86.9754490  12.4679280  50.7739510  87.9915720  15.1476970  51.3329360
  87.6629080  14.3328730  50.9531090  88.9398020  15.1046780  51.2095050
  77.2700950  27.0132250  50.6965650  76.5435010  26.3937540  50.6291600
  77.3310100  27.4072860  49.8263730  80.8746050  29.2277250  47.4815060
  81.3911070  28.6164610  46.9563320  81.5243430  29.7306030  47.9726070
  83.6141550  30.1185740  48.3084040  83.9019360  29.8640040  47.4317050
  84.1264770  29.5663100  48.8989610  84.8318560  13.8575940  48.8880550
  84.0490350  14.3321440  49.1677310  84.5381490  12.9530770  48.7793730
  89.3839630  14.5599040  46.9329640  89.8247720  14.5044140  46.0851240
  89.1147220  15.4757050  47.0039820  75.5530950  30.3306640  43.9062410
  75.3852990  29.6977320  44.6044300  74.6865460  30.5366040  43.5556600
  76.1758970  14.1623420  41.4094270  76.9338330  14.2752300  40.8358300
  75.7136140  14.9992620  41.3637700  82.7172780  16.2762690  44.3996580
  81.9047290  15.9019580  44.0592460  83.2214420  15.5207770  44.7017770
  87.2197760  12.9405140  45.6379650  87.8227130  13.5125350  46.1128170
  86.4790750  13.5044580  45.4153550  77.1593650  29.0239870  41.3512550
  76.6341270  29.4047900  40.6474510  77.0838230  29.6490640  42.0722260
  78.5484120  14.6887470  39.9496240  79.0776880  13.9017270  39.8204190
  79.1812440  15.3678660  40.1831770  80.7421960  14.4262610  43.0041630
  80.1124700  13.7249920  43.1711760  80.2027100  15.1866740  42.7874790
  79.7586620  30.9722250  40.2261800  80.4905440  30.6881530  39.6785690
  80.0180290  30.7335530  41.1161180  78.9201410  27.0886980  40.2308130
  78.2910290  27.5572080  40.7793960  79.0349240  26.2436200  40.6654320
  86.3751130  21.1392640  26.3809330  86.2945180  20.2247250  26.1101040
  85.9615550  21.6359710  25.6749040  84.5069170  22.9171660  28.2618600
  83.7311270  22.4372100  28.5517170  85.1582100  22.2377310  28.0874760
  78.5235000  23.2291470  29.1394360  77.6919880  22.9740180  29.5390870
  79.1315980  23.3002240  29.8752280  88.5276600  27.3231850  27.0417730
  88.0658130  26.5519090  27.3704900  89.3402150  27.3497920  27.5470180
  78.5036260  27.2631560  29.3352380  78.8064300  26.3729300  29.1562600
  79.2479850  27.8201780  29.1074630  76.9326950  18.1893360  22.9236750
  76.0443650  18.5309330  22.8216630  77.2168140  17.9893680  22.0317580
  74.8959960  20.7899010  28.8076450  75.4676070  20.0221210  28.8080090
  74.8961500  21.0887770  27.8983060  84.7539910  29.6089860  26.6621720
  84.1351350  30.0647360  26.0916160  85.6091690  29.7641320  26.2611420
  83.9478160  25.5928850  28.2688760  83.8786440  24.6518790  28.1077890
  84.7098020  25.6830260  28.8411330  76.1384830  16.1983370  30.5945380
  75.9587670  15.3009120  30.8748140  75.7364910  16.7455240  31.2692330
  84.9783330  18.3999230  28.4957690  85.3548150  17.5271110  28.3831360
  84.8802840  18.7357930  27.6048130  79.1088340  16.7724860  23.9575130
  79.2155090  17.6728590  24.2643890  78.1980700  16.7242830  23.6669780
  88.7607450  15.8949670  25.4286030  89.5817070  15.4046240  25.4711510
  88.7941530  16.4847330  26.1817870  76.7571500  18.6943870  29.2027720
  77.4381610  18.9582240  29.8215120  76.4419550  17.8544740  29.5365730
  80.9496070  19.7411230  28.2900310  81.4574290  20.2392200  28.9305330
  81.4809310  18.9646430  28.1139670  79.2332170  14.3809790  32.5563730
  79.2350610  14.8982180  31.7509630  78.4036480  13.9039970  32.5333660
  85.6203260  24.4929100  24.0553630  85.0020530  24.9578550  23.4916350
  86.1326510  25.1856580  24.4723140  80.4835020  24.0204970  30.7337230
  80.1504400  24.6473890  31.3758300  80.6601700  24.5466850  29.9538900
  88.9968930  17.8350050  28.2013570  88.2924500  18.1234940  28.7816680
  89.3581090  18.6450160  27.8413130  78.9147500  16.0919750  30.5634180
  79.2564310  16.9361800  30.2688050  77.9763310  16.2403490  30.6799520
  79.6954120  25.9885770  32.5486410  80.3128120  26.6636850  32.2670860
  78.8347240  26.3973750  32.4573910  74.9886460  25.1785630  21.4293260
  74.6114440  25.6672730  20.6978160  75.2459530  25.8510910  22.0599790
  82.5975390  13.5802020  26.8878770  82.9050370  13.0248910  26.1714270
  81.6676090  13.7146480  26.7051760  88.1490450  29.2969310  29.1786230
  88.1617610  28.8931600  28.3108490  87.5965670  30.0716600  29.0747660
  89.4435870  26.0185530  24.2676400  89.3332200  25.0759860  24.3925820
  89.4404120  26.3801170  25.1539160  87.5475890  24.1999150  30.5068840
  87.9644680  23.9859260  29.6722300  88.2715710  24.4571940  31.0777460
  84.9856150  21.6450850  23.6238890  84.0585430  21.5788230  23.8527360
  85.1380970  22.5830980  23.5094130  84.9725230  17.9167850  20.6206050
  84.0328900  18.0781810  20.7058510  85.2908490  18.6353530  20.0742040
  89.0153440  23.2071150  24.1274140  88.3965860  22.8690700  23.4800440
  88.9977890  22.5630910  24.8353330  88.4580000  19.3855690  31.5439950
  88.0451180  20.2109400  31.7979940  87.7255950  18.8000730  31.3516310
  80.5912790  22.1715590  26.4058620  80.1869790  21.4592840  25.9104520
  80.6775910  21.8268830  27.2946660  81.0594490  25.8583150  28.5697830
  80.7622780  25.2528620  27.8905610  82.0094310  25.8960460  28.4587190
  79.3041410  18.9458800  30.1857660  79.8556000  19.0554140  29.4110910
  79.8184920  19.3196400  30.9012890  89.1480100  29.4315020  32.2320930
  88.6710660  30.2387210  32.0393540  88.4641890  28.7793350  32.3847140
  80.1512920  25.5964840  35.2205630  79.2541450  25.8204810  35.4679030
  80.1765790  25.7199780  34.2717030  87.1918140  22.4457960  21.1346890
  87.6311420  21.6080390  20.9884710  87.9046560  23.0787360  21.2211030
  78.9784140  22.4678160  33.7963000  78.8391910  23.3400960  34.1650400
  78.0965500  22.1250970  33.6510940  85.3013520  27.3854030  25.1028130
  85.7409430  28.1278360  24.6883520  85.2400410  27.6280600  26.0267090
  80.7764490  28.4099860  36.0048150  80.7479920  28.8142810  35.1376580
  80.6129460  27.4810220  35.8419750  77.2917420  21.0660570  23.9065270
  77.1715020  21.7922660  23.2946540  76.9818310  20.2963480  23.4293180
  74.9302790  24.2375710  29.7133910  75.0083210  24.3724480  28.7689630
  75.5444470  23.5291600  29.9062030  76.1750420  25.9375900  26.1240090
  75.7678500  26.0790490  25.2693690  77.0663430  25.6536060  25.9211300
  85.9929300  30.0867810  33.0307140  86.5073970  29.9975820  33.8329570
  85.1498380  30.4327510  33.3235050  87.9683700  30.3723150  22.4591140
  87.8084840  30.0826090  23.3572970  87.8030410  29.5963280  21.9236370
  80.4472080  30.1521680  24.2362760  80.2714560  29.2357220  24.0230560
  79.5927820  30.5108970  24.4760560  87.6709830  27.8810710  21.0189140
  86.9774990  27.8788000  20.3591420  88.4132690  27.4570030  20.5883310
  87.2359760  29.5073420  25.0937630  87.6916710  28.7262800  25.4076250
  87.5752280  30.2180240  25.6378810  74.9862310  25.2789880  32.2528370
  75.1493350  24.8095240  31.4347740  75.4514760  24.7713440  32.9177210
  79.7581080  14.4095640  27.2888940  79.3149230  15.1905180  26.9573460
  80.3166070  14.7325530  27.9959880  84.0450890  17.2764160  32.8924260
  83.5830260  17.4847180  33.7044200  83.6429000  16.4623510  32.5894930
  89.0455400  18.4973110  34.0220920  88.1948990  18.1978860  34.3429990
  88.8857190  18.7415120  33.1104740  86.1405110  19.9974860  36.1219710
  86.4658520  19.1638610  35.7821940  86.9285440  20.5203380  36.2698040
  82.8739900  14.0306340  22.1694770  82.2494080  14.0266210  22.8948080
  82.7870020  13.1637300  21.7730740  81.7956980  14.9542970  29.1478540
  82.0929310  15.8605800  29.0670560  82.3442540  14.4661750  28.5338110
  79.5495300  19.5329210  25.0170190  79.3236220  19.3166380  25.9216810
  78.7687830  19.9657670  24.6716160  86.7793060  19.5392580  23.6160840
  86.1801950  20.2628380  23.4324460  87.3272670  19.4769360  22.8337290
  81.9894510  20.4314790  35.6830460  81.8938110  19.4909520  35.5330860
  82.8326490  20.6529860  35.2878530  85.3857930  18.1756120  25.6464120
  85.7787500  18.4928320  24.8332810  85.7474780  17.2968000  25.7608640
  77.1205050  16.8428460  33.8364240  76.7268440  17.6903670  34.0437020
  76.4323450  16.2054830  34.0272880  83.6950100  16.9263430  36.9060980
  83.0048420  16.7335630  37.5407070  84.4382400  17.2098070  37.4385280
  74.4222100  14.7656920  27.8694320  74.1335150  15.3359780  28.5819300
  75.1667860  14.2861370  28.2325550  74.6092330  18.7077040  19.0797040
  74.5267000  19.6507800  19.2212030  74.2575390  18.5651950  18.2009390
  85.9713070  20.7661870  29.7414900  85.2394190  21.2748680  30.0905000
  85.5737410  19.9491850  29.4403680  82.4090460  17.4416070  28.1467390
  82.4126520  17.0006020  27.2971930  83.3041580  17.7633400  28.2539210
  78.2592840  17.3242560  27.1061600  77.9192890  17.8017790  27.8628650
  77.4970160  16.8707680  26.7462700  82.4710610  18.4428150  21.1374150
  82.5923430  18.4014630  22.0859970  82.0859120  19.3052300  20.9820880
  86.4338980  16.2195550  29.1537840  86.4511720  16.6704200  29.9979690
  86.1854560  15.3201190  29.3671280  81.4832110  20.7529290  20.5357450
  80.9149010  20.3047540  19.9093360  82.1921110  21.1122070  20.0022600
  89.8609730  13.6327730  34.9924220  90.1855500  12.9017390  35.5182200
  89.8966240  13.3141370  34.0905210  76.5601290  24.6541310  34.4124180
  76.1756080  24.0134980  35.0107140  76.8713480  25.3577430  34.9818910
  82.7098430  21.5017850  29.8932800  83.0768560  21.0276420  30.6394140
  82.5203490  22.3759420  30.2341140  75.5738920  16.2461540  26.0226270
  75.2885840  15.8817210  26.8604890  75.5117780  15.5142000  25.4089410
  80.4997800  20.5426490  32.2117010  80.1954870  21.4218470  32.4367370
  81.4544260  20.6026280  32.2474450  79.0279590  24.7487480  22.8083860
  78.2541850  24.2085100  22.6482580  79.7574220  24.2294090  22.4701620
  85.2477510  15.1390800  22.7439640  84.4342120  14.6403970  22.6684950
  85.0539460  15.9789050  22.3275990  85.1686370  23.8161900  34.4879250
  85.1023680  22.8957570  34.2336840  84.5391510  23.9137340  35.2023890
  87.9625900  19.5110450  21.0401800  88.8505520  19.8227680  20.8653140
  87.9330990  18.6382700  20.6482380  79.0716990  24.4167860  26.4462670
  79.5895660  23.6136120  26.3919560  78.6201010  24.3547000  27.2879500
  83.9586490  25.6834140  21.7189970  84.3002190  26.4276370  21.2233290
  83.1299200  25.9965260  22.0814800  76.5561530  21.3829230  33.3588370
  76.1976470  22.0483080  33.9461710  76.2616090  20.5512780  33.7300990
  79.7574650  21.8413470  36.2427920  79.4574790  21.9870650  35.3455740
  80.5285890  21.2818760  36.1501310  85.1003100  26.6382470  34.2383050
  85.1147640  25.7063430  34.0201960  84.3928200  26.7242230  34.8772820
  86.8413900  25.0049980  27.0835480  87.1937720  24.4078110  26.4236850
  85.9576230  24.6794210  27.2543730  82.9277180  25.7647670  24.4905890
  83.6148310  26.3116880  24.8713480  82.1409600  26.3088400  24.5255500
  75.0669580  21.3820490  19.9822970  75.9364430  21.6645290  20.2658890
  74.5759900  22.1956360  19.8671780  82.2304390  22.7693700  24.1031250
  82.6867170  23.5798950  24.3291440  81.8792600  22.4516840  24.9349740
  84.5337000  28.2800040  31.3323550  85.1779220  28.4859420  32.0096970
  84.8966440  27.5188440  30.8794400  78.1316170  13.1131350  24.5753770
  78.0030800  13.1049250  25.5238690  77.3078190  13.4514440  24.2244780
  85.8069080  26.2832390  30.0501000  86.4491310  25.5825550  30.1633170
  86.3318430  27.0630830  29.8697890  89.6524800  26.5681010  19.7740140
  89.4262380  25.8511450  20.3664780  89.2621000  26.3193450  18.9361890
  87.5806700  27.0827290  33.2537060  87.9162940  27.6693980  33.9314980
  86.6607040  26.9520000  33.4834850  75.4340830  30.5947870  20.5484600
  75.7938470  31.1937210  19.8941870  75.2933170  31.1407760  21.3219630
  75.1310100  14.8722470  34.0360470  74.4168620  15.0719390  34.6413080
  75.5505140  14.0962040  34.4075270  89.2341050  24.4852950  21.4354300
  88.9462750  24.9465640  22.2232180  90.0293220  24.0250720  21.7038520
  75.4182690  28.8602730  35.0227000  75.5273810  27.9197470  34.8822390
  74.7663250  29.1257480  34.3740730  83.4095280  27.1318620  36.4225120
  83.0892150  26.4127860  36.9670810  82.7353640  27.8073690  36.4961180
  81.4509450  27.9779070  21.3658270  81.4419550  28.7108760  20.7502780
  80.5307810  27.7310650  21.4585230  77.0516090  23.1993960  22.1105030
  76.4444040  23.9392860  22.1200330  77.5265440  23.2893320  21.2843230
  86.6248880  17.3644780  31.7861920  86.9929700  16.5439990  32.1141490
  85.7647080  17.4246670  32.2017570  89.9910910  16.3201720  22.5949480
  89.3624070  16.4247390  21.8807710  89.4962830  16.5398500  23.3843360
  84.4369050  28.0407310  20.0283460  84.5381030  27.8371300  19.0985440
  83.5370790  27.7865590  20.2331240  81.9594940  18.5987670  24.0107360
  81.2511090  19.0674010  24.4520970  82.2439420  17.9409680  24.6452550
  83.5850870  20.0184370  32.0099890  84.0836120  20.4930190  32.6751740
  83.7273820  19.0947890  32.2169920  85.9910370  15.3238330  25.4503150
  85.8678150  15.3424460  24.5012660  86.9394930  15.3717270  25.5701550
  83.0787160  30.5593630  24.7231130  83.3328660  30.5215020  23.8010500
  82.1299640  30.4326960  24.7159380  80.1629960  16.9072750  21.3858070
  81.0120490  17.3442900  21.3198260  79.7961230  17.2193010  22.2130130
  89.0839740  21.4785510  26.2989640  88.1429880  21.4935740  26.4737330
  89.3983810  20.6921470  26.7449940  79.0621380  23.1605110  19.8593600
  79.8284650  23.0486470  20.4219030  79.1396070  22.4643080  19.2070370
  77.7568140  20.5930180  20.5426490  77.8371730  19.6457690  20.6543890
  78.6487890  20.9237060  20.6487150  78.5582850  30.7425570  27.6461030
  79.2945330  30.1941030  27.9169600  78.9423770  31.6081580  27.5067020
  75.4428330  26.8099140  23.5202540  74.5168110  27.0520280  23.5107950
  75.9084760  27.6373400  23.3987290  77.5641130  29.9271640  36.8346610
  78.3653860  30.2483690  37.2482010  77.0492950  29.5667220  37.5566520
  81.6685160  29.9155880  19.4686600  82.4613770  30.2044710  19.0168390
  81.1489510  29.4848050  18.7899080  86.4005760  26.0351510  36.7822020
  85.7943920  26.0583110  36.0417770  86.0959870  25.3034550  37.3189270
  87.8306130  29.7631800  35.3931430  88.7827880  29.6789820  35.3431670
  87.6834350  30.4273510  36.0665220  75.2838940  22.4145100  35.7782660
  75.7877960  21.8352380  36.3498890  74.5446360  22.6985330  36.3159030
  82.1862560  25.1359290  19.3328950  82.0813200  24.5211640  20.0590330
  82.0186780  24.6125180  18.5491960  82.3376880  23.8216090  35.3118180
  81.5722550  24.3901090  35.2272850  82.5192840  23.5292300  34.4186410
  85.4265290  24.1979320  19.9370940  84.8775390  24.6448620  20.5813680
  86.0484550  23.6928570  20.4608610  89.4800230  25.5521420  35.8693200
  90.2209700  25.8897180  35.3660660  88.7172910  25.7213480  35.3162970
  77.3162020  20.5574690  36.6732730  77.3567360  20.2588560  37.5817960
  78.1707520  20.9582300  36.5140250  81.0940410  23.1570240  21.8336240
  81.5156830  22.9910110  22.6767630  81.2191250  22.3470470  21.3391380
  79.2567830  19.1366790  34.6407220  78.7264290  18.6457740  34.0130560
  79.9255900  19.5650990  34.1065150  83.6068050  22.1807850  19.0813340
  84.1273710  21.4656870  18.7154490  84.2536450  22.8193720  19.3813850
  88.1545890  23.6036250  34.4048410  88.5686910  23.7581330  35.2538830
  87.2196890  23.7291470  34.5674190  88.6268060  20.9432410  36.4087560
  89.2088830  20.1884730  36.3208040  88.8029830  21.4739850  35.6319040
  79.7440130  16.1029160  34.7204510  79.6497000  15.4849910  33.9955380
  79.1637520  16.8295450  34.4934420  82.5101570  14.6602400  31.7531900
  82.0618870  14.6826660  30.9077450  81.8766770  14.2621420  32.3502200
  82.9161120  23.5556730  32.3744340  83.3349230  24.3989460  32.2020580
  81.9969750  23.6928770  32.1451120  85.2525020  21.2872910  33.7582180
  85.3721230  20.6914050  34.4977020  86.1119020  21.3242600  33.3383480
  87.5912920  21.8410100  32.3344690  87.0648140  22.3652720  31.7309830
  87.9344260  22.4737490  32.9654420  79.9899310  19.2303470  18.7794400
  79.7888370  18.3670830  19.1407740  79.8191360  19.1436830  17.8416000
  80.7668540  29.8609740  33.4902070  80.2289630  30.5855800  33.1710770
  81.0202500  29.3840080  32.6999410  82.0193790  17.8294260  35.0158000
  82.6093480  17.5210110  35.7035820  81.2014030  17.3574010  35.1717900
  86.8387220  17.4460070  35.2491020  86.1502740  16.7841610  35.1841010
  87.5593240  16.9998340  35.6939480  87.4687620  14.0411700  21.3081280
  87.7489910  13.1979600  21.6640700  86.6953350  14.2734810  21.8220030
  78.7882110  16.3304090  18.7672280  79.0908010  16.3371520  17.8591430
  79.5276700  15.9801950  19.2639940  83.6230750  31.0960950  33.7488720
  83.5489450  31.9996090  34.0561090  82.7209590  30.7772850  33.7210790
  82.0067040  15.2738710  19.7528480  81.6589040  14.5962700  19.1730930
  82.2079810  14.8128220  20.5671870  84.1716080  30.2619460  21.3715080
  85.0666870  30.6004430  21.3933840  84.2033710  29.5398870  20.7439360
  77.8112240  25.6346510  19.6002080  78.2487110  26.1776180  20.2559660
  78.2959970  24.8093460  19.6098420  75.0258040  28.4235540  27.0522340
  75.3561050  27.5556600  26.8200980  75.4549040  28.6294060  27.8827300
  79.6219960  26.7544550  24.7124310  79.3215500  26.6309520  25.6128220
  79.5157450  25.8953140  24.3040040  75.5148250  29.2906130  29.7903970
  75.0779240  29.4706930  30.6228120  76.0825930  30.0480750  29.6485690
  75.3472680  21.8026360  26.1492850  74.6921520  21.5338000  25.5052550
  76.1850630  21.6930840  25.6994830  89.8362070  25.5175110  32.1757440
  89.0221910  25.9472270  32.4383230  90.2436270  26.1293520  31.5626490
  88.2963120  16.5967650  20.3711340  88.7148000  16.4098630  19.5308000
  87.9899180  15.7446700  20.6814270  76.3848610  22.1878930  30.6896190
  76.7521650  22.1006330  31.5692210  75.8159430  21.4245480  30.5903050
  75.9364610  19.0988020  34.5954610  75.0420660  19.0654780  34.9348320
  76.4762160  19.2974810  35.3605860  74.5610760  19.0125290  22.0918180
  73.6574840  19.2755490  21.9169840  75.0451380  19.2836460  21.3118140
  77.1037970  18.0690830  20.0012560  77.8129670  17.6474050  19.5159840
  76.3877910  18.1366060  19.3695910  76.7512130  14.1230160  19.0415210
  77.4740260  14.6639100  19.3596430  77.0236650  13.8493580  18.1656750
  76.4404320  13.3736350  28.9437830  77.0880510  12.8233730  28.5032990
  76.8606160  13.6279500  29.7653640  76.1936320  13.5292020  31.6863150
  75.8451140  13.9855840  32.4521330  75.8624020  12.6349150  31.7685580
  77.8000690  26.7011620  35.8516340  77.7570320  26.3304530  36.7330800
  77.9311700  27.6389190  35.9918160  81.5006720  28.2571210  31.4526060
  81.2598080  28.5245770  30.5656580  82.4409360  28.4276940  31.5076920
  83.7061140  14.7203900  35.2082570  83.6450030  15.3125730  35.9577980
  84.6461520  14.6129860  35.0632830  86.3435700  14.3773960  34.8474860
  86.9576110  14.6953250  34.1855940  86.8885260  13.8922550  35.4670720
  76.8656960  13.0568220  34.9613920  77.4139950  12.8756270  34.1980030
  76.9312270  12.2662330  35.4970230  77.6388720  29.6473870  32.9714120
  77.0449040  29.5158570  33.7104160  77.6312560  28.8112010  32.5056220
  87.0843740  12.9406100  31.1744150  86.2103580  13.2741210  30.9717080
  86.9754490  12.4679280  31.9996020  87.9915720  15.1476970  32.5585870
  87.6629080  14.3328730  32.1787600  88.9398020  15.1046780  32.4351560
  77.2700950  27.0132250  31.9222160  76.5435010  26.3937540  31.8548110
  77.3310100  27.4072860  31.0520240  80.8746050  29.2277250  28.7071570
  81.3911070  28.6164610  28.1819830  81.5243430  29.7306030  29.1982580
  83.6141550  30.1185740  29.5340550  83.9019360  29.8640040  28.6573560
  84.1264770  29.5663100  30.1246120  84.8318560  13.8575940  30.1137060
  84.0490350  14.3321440  30.3933820  84.5381490  12.9530770  30.0050240
  89.3839630  14.5599040  28.1586150  89.8247720  14.5044140  27.3107750
  89.1147220  15.4757050  28.2296330  75.5530950  30.3306640  25.1318920
  75.3852990  29.6977320  25.8300810  74.6865460  30.5366040  24.7813110
  76.1758970  14.1623420  22.6350780  76.9338330  14.2752300  22.0614810
  75.7136140  14.9992620  22.5894210  82.7172780  16.2762690  25.6253090
  81.9047290  15.9019580  25.2848970  83.2214420  15.5207770  25.9274280
  87.2197760  12.9405140  26.8636160  87.8227130  13.5125350  27.3384680
  86.4790750  13.5044580  26.6410060  77.1593650  29.0239870  22.5769060
  76.6341270  29.4047900  21.8731020  77.0838230  29.6490640  23.2978770
  78.5484120  14.6887470  21.1752750  79.0776880  13.9017270  21.0460700
  79.1812440  15.3678660  21.4088280  80.7421960  14.4262610  24.2298140
  80.1124700  13.7249920  24.3968270  80.2027100  15.1866740  24.0131300
  83.6813910  31.0401840  36.9008750  84.6081220  30.8046110  36.9444710
  83.6664340  31.8673840  36.4194780  80.8677520  13.7046590  36.6650630
  80.5861790  14.2080190  35.9011450  81.2497220  12.9068340  36.2992760
  79.7586620  30.9722250  21.4518310  80.4905440  30.6881530  20.9042200
  80.0180290  30.7335530  22.3417690  78.9201410  27.0886980  21.4564640
  78.2910290  27.5572080  22.0050470  79.0349240  26.2436200  21.8910830
  87.4692980  13.1200170  37.2431100  87.3558430  13.4394780  38.1382620
  88.2862720  13.5212680  36.9468380  86.3751130  21.1392640   7.6065840
  86.2945180  20.2247250   7.3357550  85.9615550  21.6359710   6.9005550
  84.5069170  22.9171660   9.4875110  83.7311270  22.4372100   9.7773680
  85.1582100  22.2377310   9.3131270  78.5235000  23.2291470  10.3650870
  77.6919880  22.9740180  10.7647380  79.1315980  23.3002240  11.1008790
  88.5276600  27.3231850   8.2674240  88.0658130  26.5519090   8.5961410
  89.3402150  27.3497920   8.7726690  78.5036260  27.2631560  10.5608890
  78.8064300  26.3729300  10.3819110  79.2479850  27.8201780  10.3331140
  76.9326950  18.1893360   4.1493260  76.0443650  18.5309330   4.0473140
  77.2168140  17.9893680   3.2574090  74.8959960  20.7899010  10.0332960
  75.4676070  20.0221210  10.0336600  74.8961500  21.0887770   9.1239570
  84.7539910  29.6089860   7.8878230  84.1351350  30.0647360   7.3172670
  85.6091690  29.7641320   7.4867930  83.9478160  25.5928850   9.4945270
  83.8786440  24.6518790   9.3334400  84.7098020  25.6830260  10.0667840
  76.1384830  16.1983370  11.8201890  75.9587670  15.3009120  12.1004650
  75.7364910  16.7455240  12.4948840  84.9783330  18.3999230   9.7214200
  85.3548150  17.5271110   9.6087870  84.8802840  18.7357930   8.8304640
  79.1088340  16.7724860   5.1831640  79.2155090  17.6728590   5.4900400
  78.1980700  16.7242830   4.8926290  88.7607450  15.8949670   6.6542540
  89.5817070  15.4046240   6.6968020  88.7941530  16.4847330   7.4074380
  76.7571500  18.6943870  10.4284230  77.4381610  18.9582240  11.0471630
  76.4419550  17.8544740  10.7622240  80.9496070  19.7411230   9.5156820
  81.4574290  20.2392200  10.1561840  81.4809310  18.9646430   9.3396180
  79.2332170  14.3809790  13.7820240  79.2350610  14.8982180  12.9766140
  78.4036480  13.9039970  13.7590170  85.6203260  24.4929100   5.2810140
  85.0020530  24.9578550   4.7172860  86.1326510  25.1856580   5.6979650
  80.4835020  24.0204970  11.9593740  80.1504400  24.6473890  12.6014810
  80.6601700  24.5466850  11.1795410  88.9968930  17.8350050   9.4270080
  88.2924500  18.1234940  10.0073190  89.3581090  18.6450160   9.0669640
  78.9147500  16.0919750  11.7890690  79.2564310  16.9361800  11.4944560
  77.9763310  16.2403490  11.9056030  79.6954120  25.9885770  13.7742920
  80.3128120  26.6636850  13.4927370  78.8347240  26.3973750  13.6830420
  74.9886460  25.1785630   2.6549770  74.6114440  25.6672730   1.9234670
  75.2459530  25.8510910   3.2856300  82.5975390  13.5802020   8.1135280
  82.9050370  13.0248910   7.3970780  81.6676090  13.7146480   7.9308270
  88.1490450  29.2969310  10.4042740  88.1617610  28.8931600   9.5365000
  87.5965670  30.0716600  10.3004170  89.4435870  26.0185530   5.4932910
  89.3332200  25.0759860   5.6182330  89.4404120  26.3801170   6.3795670
  87.5475890  24.1999150  11.7325350  87.9644680  23.9859260  10.8978810
  88.2715710  24.4571940  12.3033970  84.9856150  21.6450850   4.8495400
  84.0585430  21.5788230   5.0783870  85.1380970  22.5830980   4.7350640
  89.0153440  23.2071150   5.3530650  88.3965860  22.8690700   4.7056950
  88.9977890  22.5630910   6.0609840  88.4580000  19.3855690  12.7696460
  88.0451180  20.2109400  13.0236450  87.7255950  18.8000730  12.5772820
  80.5912790  22.1715590   7.6315130  80.1869790  21.4592840   7.1361030
  80.6775910  21.8268830   8.5203170  81.0594490  25.8583150   9.7954340
  80.7622780  25.2528620   9.1162120  82.0094310  25.8960460   9.6843700
  79.3041410  18.9458800  11.4114170  79.8556000  19.0554140  10.6367420
  79.8184920  19.3196400  12.1269400  89.1480100  29.4315020  13.4577440
  88.6710660  30.2387210  13.2650050  88.4641890  28.7793350  13.6103650
  80.1512920  25.5964840  16.4462140  79.2541450  25.8204810  16.6935540
  80.1765790  25.7199780  15.4973540  87.1918140  22.4457960   2.3603400
  87.6311420  21.6080390   2.2141220  87.9046560  23.0787360   2.4467540
  78.9784140  22.4678160  15.0219510  78.8391910  23.3400960  15.3906910
  78.0965500  22.1250970  14.8767450  85.3013520  27.3854030   6.3284640
  85.7409430  28.1278360   5.9140030  85.2400410  27.6280600   7.2523600
  80.7764490  28.4099860  17.2304660  80.7479920  28.8142810  16.3633090
  80.6129460  27.4810220  17.0676260  77.2917420  21.0660570   5.1321780
  77.1715020  21.7922660   4.5203050  76.9818310  20.2963480   4.6549690
  74.9302790  24.2375710  10.9390420  75.0083210  24.3724480   9.9946140
  75.5444470  23.5291600  11.1318540  76.1750420  25.9375900   7.3496600
  75.7678500  26.0790490   6.4950200  77.0663430  25.6536060   7.1467810
  85.9929300  30.0867810  14.2563650  86.5073970  29.9975820  15.0586080
  85.1498380  30.4327510  14.5491560  87.9683700  30.3723150   3.6847650
  87.8084840  30.0826090   4.5829480  87.8030410  29.5963280   3.1492880
  80.4472080  30.1521680   5.4619270  80.2714560  29.2357220   5.2487070
  79.5927820  30.5108970   5.7017070  87.2359760  29.5073420   6.3194140
  87.6916710  28.7262800   6.6332760  87.5752280  30.2180240   6.8635320
  74.9862310  25.2789880  13.4784880  75.1493350  24.8095240  12.6604250
  75.4514760  24.7713440  14.1433720  79.7581080  14.4095640   8.5145450
  79.3149230  15.1905180   8.1829970  80.3166070  14.7325530   9.2216390
  84.0450890  17.2764160  14.1180770  83.5830260  17.4847180  14.9300710
  83.6429000  16.4623510  13.8151440  89.0455400  18.4973110  15.2477430
  88.1948990  18.1978860  15.5686500  88.8857190  18.7415120  14.3361250
  86.1405110  19.9974860  17.3476220  86.4658520  19.1638610  17.0078450
  86.9285440  20.5203380  17.4954550  82.8739900  14.0306340   3.3951280
  82.2494080  14.0266210   4.1204590  82.7870020  13.1637300   2.9987250
  81.7956980  14.9542970  10.3735050  82.0929310  15.8605800  10.2927070
  82.3442540  14.4661750   9.7594620  79.5495300  19.5329210   6.2426700
  79.3236220  19.3166380   7.1473320  78.7687830  19.9657670   5.8972670
  86.7793060  19.5392580   4.8417350  86.1801950  20.2628380   4.6580970
  87.3272670  19.4769360   4.0593800  81.9894510  20.4314790  16.9086970
  81.8938110  19.4909520  16.7587370  82.8326490  20.6529860  16.5135040
  85.3857930  18.1756120   6.8720630  85.7787500  18.4928320   6.0589320
  85.7474780  17.2968000   6.9865150  77.1205050  16.8428460  15.0620750
  76.7268440  17.6903670  15.2693530  76.4323450  16.2054830  15.2529390
  83.6950100  16.9263430  18.1317490  83.0048420  16.7335630  18.7663580
  84.4382400  17.2098070  18.6641790  74.4222100  14.7656920   9.0950830
  74.1335150  15.3359780   9.8075810  75.1667860  14.2861370   9.4582060
  85.9713070  20.7661870  10.9671410  85.2394190  21.2748680  11.3161510
  85.5737410  19.9491850  10.6660190  82.4090460  17.4416070   9.3723900
  82.4126520  17.0006020   8.5228440  83.3041580  17.7633400   9.4795720
  78.2592840  17.3242560   8.3318110  77.9192890  17.8017790   9.0885160
  77.4970160  16.8707680   7.9719210  82.4710610  18.4428150   2.3630660
  82.5923430  18.4014630   3.3116480  82.0859120  19.3052300   2.2077390
  86.4338980  16.2195550  10.3794350  86.4511720  16.6704200  11.2236200
  86.1854560  15.3201190  10.5927790  89.8609730  13.6327730  16.2180730
  90.1855500  12.9017390  16.7438710  89.8966240  13.3141370  15.3161720
  76.5601290  24.6541310  15.6380690  76.1756080  24.0134980  16.2363650
  76.8713480  25.3577430  16.2075420  82.7098430  21.5017850  11.1189310
  83.0768560  21.0276420  11.8650650  82.5203490  22.3759420  11.4597650
  75.5738920  16.2461540   7.2482780  75.2885840  15.8817210   8.0861400
  75.5117780  15.5142000   6.6345920  80.4997800  20.5426490  13.4373520
  80.1954870  21.4218470  13.6623880  81.4544260  20.6026280  13.4730960
  79.0279590  24.7487480   4.0340370  78.2541850  24.2085100   3.8739090
  79.7574220  24.2294090   3.6958130  85.2477510  15.1390800   3.9696150
  84.4342120  14.6403970   3.8941460  85.0539460  15.9789050   3.5532500
  85.1686370  23.8161900  15.7135760  85.1023680  22.8957570  15.4593350
  84.5391510  23.9137340  16.4280400  87.9625900  19.5110450   2.2658310
  88.8505520  19.8227680   2.0909650  87.9330990  18.6382700   1.8738890
  79.0716990  24.4167860   7.6719180  79.5895660  23.6136120   7.6176070
  78.6201010  24.3547000   8.5136010  83.9586490  25.6834140   2.9446480
  84.3002190  26.4276370   2.4489800  83.1299200  25.9965260   3.3071310
  76.5561530  21.3829230  14.5844880  76.1976470  22.0483080  15.1718220
  76.2616090  20.5512780  14.9557500  79.7574650  21.8413470  17.4684430
  79.4574790  21.9870650  16.5712250  80.5285890  21.2818760  17.3757820
  85.1003100  26.6382470  15.4639560  85.1147640  25.7063430  15.2458470
  84.3928200  26.7242230  16.1029330  86.8413900  25.0049980   8.3091990
  87.1937720  24.4078110   7.6493360  85.9576230  24.6794210   8.4800240
  82.9277180  25.7647670   5.7162400  83.6148310  26.3116880   6.0969990
  82.1409600  26.3088400   5.7512010  82.2304390  22.7693700   5.3287760
  82.6867170  23.5798950   5.5547950  81.8792600  22.4516840   6.1606250
  84.5337000  28.2800040  12.5580060  85.1779220  28.4859420  13.2353480
  84.8966440  27.5188440  12.1050910  78.1316170  13.1131350   5.8010280
  78.0030800  13.1049250   6.7495200  77.3078190  13.4514440   5.4501290
  85.8069080  26.2832390  11.2757510  86.4491310  25.5825550  11.3889680
  86.3318430  27.0630830  11.0954400  87.5806700  27.0827290  14.4793570
  87.9162940  27.6693980  15.1571490  86.6607040  26.9520000  14.7091360
  75.1310100  14.8722470  15.2616980  74.4168620  15.0719390  15.8669590
  75.5505140  14.0962040  15.6331780  89.2341050  24.4852950   2.6610810
  88.9462750  24.9465640   3.4488690  90.0293220  24.0250720   2.9295030
  75.4182690  28.8602730  16.2483510  75.5273810  27.9197470  16.1078900
  74.7663250  29.1257480  15.5997240  83.4095280  27.1318620  17.6481630
  83.0892150  26.4127860  18.1927320  82.7353640  27.8073690  17.7217690
  81.4509450  27.9779070   2.5914780  81.4419550  28.7108760   1.9759290
  80.5307810  27.7310650   2.6841740  77.0516090  23.1993960   3.3361540
  76.4444040  23.9392860   3.3456840  77.5265440  23.2893320   2.5099740
  86.6248880  17.3644780  13.0118430  86.9929700  16.5439990  13.3398000
  85.7647080  17.4246670  13.4274080  89.9910910  16.3201720   3.8205990
  89.3624070  16.4247390   3.1064220  89.4962830  16.5398500   4.6099870
  81.9594940  18.5987670   5.2363870  81.2511090  19.0674010   5.6777480
  82.2439420  17.9409680   5.8709060  83.5850870  20.0184370  13.2356400
  84.0836120  20.4930190  13.9008250  83.7273820  19.0947890  13.4426430
  85.9910370  15.3238330   6.6759660  85.8678150  15.3424460   5.7269170
  86.9394930  15.3717270   6.7958060  83.0787160  30.5593630   5.9487640
  83.3328660  30.5215020   5.0267010  82.1299640  30.4326960   5.9415890
  80.1629960  16.9072750   2.6114580  81.0120490  17.3442900   2.5454770
  79.7961230  17.2193010   3.4386640  89.0839740  21.4785510   7.5246150
  88.1429880  21.4935740   7.6993840  89.3983810  20.6921470   7.9706450
  77.7568140  20.5930180   1.7683000  77.8371730  19.6457690   1.8800400
  78.6487890  20.9237060   1.8743660  78.5582850  30.7425570   8.8717540
  79.2945330  30.1941030   9.1426110  78.9423770  31.6081580   8.7323530
  75.4428330  26.8099140   4.7459050  74.5168110  27.0520280   4.7364460
  75.9084760  27.6373400   4.6243800  77.5641130  29.9271640  18.0603120
  78.3653860  30.2483690  18.4738520  77.0492950  29.5667220  18.7823030
  86.4005760  26.0351510  18.0078530  85.7943920  26.0583110  17.2674280
  86.0959870  25.3034550  18.5445780  87.8306130  29.7631800  16.6187940
  88.7827880  29.6789820  16.5688180  87.6834350  30.4273510  17.2921730
  75.2838940  22.4145100  17.0039170  75.7877960  21.8352380  17.5755400
  74.5446360  22.6985330  17.5415540  82.3376880  23.8216090  16.5374690
  81.5722550  24.3901090  16.4529360  82.5192840  23.5292300  15.6442920
  89.4800230  25.5521420  17.0949710  90.2209700  25.8897180  16.5917170
  88.7172910  25.7213480  16.5419480  77.3162020  20.5574690  17.8989240
  77.3567360  20.2588560  18.8074470  78.1707520  20.9582300  17.7396760
  81.0940410  23.1570240   3.0592750  81.5156830  22.9910110   3.9024140
  81.2191250  22.3470470   2.5647890  79.2567830  19.1366790  15.8663730
  78.7264290  18.6457740  15.2387070  79.9255900  19.5650990  15.3321660
  88.1545890  23.6036250  15.6304920  88.5686910  23.7581330  16.4795340
  87.2196890  23.7291470  15.7930700  88.6268060  20.9432410  17.6344070
  89.2088830  20.1884730  17.5464550  88.8029830  21.4739850  16.8575550
  79.7440130  16.1029160  15.9461020  79.6497000  15.4849910  15.2211890
  79.1637520  16.8295450  15.7190930  82.5101570  14.6602400  12.9788410
  82.0618870  14.6826660  12.1333960  81.8766770  14.2621420  13.5758710
  82.9161120  23.5556730  13.6000850  83.3349230  24.3989460  13.4277090
  81.9969750  23.6928770  13.3707630  85.2525020  21.2872910  14.9838690
  85.3721230  20.6914050  15.7233530  86.1119020  21.3242600  14.5639990
  87.5912920  21.8410100  13.5601200  87.0648140  22.3652720  12.9566340
  87.9344260  22.4737490  14.1910930  80.7668540  29.8609740  14.7158580
  80.2289630  30.5855800  14.3967280  81.0202500  29.3840080  13.9255920
  82.0193790  17.8294260  16.2414510  82.6093480  17.5210110  16.9292330
  81.2014030  17.3574010  16.3974410  86.8387220  17.4460070  16.4747530
  86.1502740  16.7841610  16.4097520  87.5593240  16.9998340  16.9195990
  87.4687620  14.0411700   2.5337790  87.7489910  13.1979600   2.8897210
  86.6953350  14.2734810   3.0476540  83.6230750  31.0960950  14.9745230
  83.5489450  31.9996090  15.2817600  82.7209590  30.7772850  14.9467300
  84.1716080  30.2619460   2.5971590  85.0666870  30.6004430   2.6190350
  84.2033710  29.5398870   1.9695870  75.0258040  28.4235540   8.2778850
  75.3561050  27.5556600   8.0457490  75.4549040  28.6294060   9.1083810
  79.6219960  26.7544550   5.9380820  79.3215500  26.6309520   6.8384730
  79.5157450  25.8953140   5.5296550  75.5148250  29.2906130  11.0160480
  75.0779240  29.4706930  11.8484630  76.0825930  30.0480750  10.8742200
  75.3472680  21.8026360   7.3749360  74.6921520  21.5338000   6.7309060
  76.1850630  21.6930840   6.9251340  89.8362070  25.5175110  13.4013950
  89.0221910  25.9472270  13.6639740  90.2436270  26.1293520  12.7883000
  76.3848610  22.1878930  11.9152700  76.7521650  22.1006330  12.7948720
  75.8159430  21.4245480  11.8159560  75.9364610  19.0988020  15.8211120
  75.0420660  19.0654780  16.1604830  76.4762160  19.2974810  16.5862370
  74.5610760  19.0125290   3.3174690  73.6574840  19.2755490   3.1426350
  75.0451380  19.2836460   2.5374650  76.4404320  13.3736350  10.1694340
  77.0880510  12.8233730   9.7289500  76.8606160  13.6279500  10.9910150
  76.1936320  13.5292020  12.9119660  75.8451140  13.9855840  13.6777840
  75.8624020  12.6349150  12.9942090  77.8000690  26.7011620  17.0772850
  77.7570320  26.3304530  17.9587310  77.9311700  27.6389190  17.2174670
  81.5006720  28.2571210  12.6782570  81.2598080  28.5245770  11.7913090
  82.4409360  28.4276940  12.7333430  83.7061140  14.7203900  16.4339080
  83.6450030  15.3125730  17.1834490  84.6461520  14.6129860  16.2889340
  86.3435700  14.3773960  16.0731370  86.9576110  14.6953250  15.4112450
  86.8885260  13.8922550  16.6927230  76.8656960  13.0568220  16.1870430
  77.4139950  12.8756270  15.4236540  76.9312270  12.2662330  16.7226740
  77.6388720  29.6473870  14.1970630  77.0449040  29.5158570  14.9360670
  77.6312560  28.8112010  13.7312730  87.0843740  12.9406100  12.4000660
  86.2103580  13.2741210  12.1973590  86.9754490  12.4679280  13.2252530
  87.9915720  15.1476970  13.7842380  87.6629080  14.3328730  13.4044110
  88.9398020  15.1046780  13.6608070  77.2700950  27.0132250  13.1478670
  76.5435010  26.3937540  13.0804620  77.3310100  27.4072860  12.2776750
  80.8746050  29.2277250   9.9328080  81.3911070  28.6164610   9.4076340
  81.5243430  29.7306030  10.4239090  83.6141550  30.1185740  10.7597060
  83.9019360  29.8640040   9.8830070  84.1264770  29.5663100  11.3502630
  84.8318560  13.8575940  11.3393570  84.0490350  14.3321440  11.6190330
  84.5381490  12.9530770  11.2306750  89.3839630  14.5599040   9.3842660
  89.8247720  14.5044140   8.5364260  89.1147220  15.4757050   9.4552840
  75.5530950  30.3306640   6.3575430  75.3852990  29.6977320   7.0557320
  74.6865460  30.5366040   6.0069620  76.1758970  14.1623420   3.8607290
  76.9338330  14.2752300   3.2871320  75.7136140  14.9992620   3.8150720
  82.7172780  16.2762690   6.8509600  81.9047290  15.9019580   6.5105480
  83.2214420  15.5207770   7.1530790  87.2197760  12.9405140   8.0892670
  87.8227130  13.5125350   8.5641190  86.4790750  13.5044580   7.8666570
  77.1593650  29.0239870   3.8025570  76.6341270  29.4047900   3.0987530
  77.0838230  29.6490640   4.5235280  78.5484120  14.6887470   2.4009260
  79.0776880  13.9017270   2.2717210  79.1812440  15.3678660   2.6344790
  80.7421960  14.4262610   5.4554650  80.1124700  13.7249920   5.6224780
  80.2027100  15.1866740   5.2387810  83.6813910  31.0401840  18.1265260
  84.6081220  30.8046110  18.1701220  83.6664340  31.8673840  17.6451290
  80.8677520  13.7046590  17.8907140  80.5861790  14.2080190  17.1267960
  81.2497220  12.9068340  17.5249270  79.7586620  30.9722250   2.6774820
  80.4905440  30.6881530   2.1298710  80.0180290  30.7335530   3.5674200
  78.9201410  27.0886980   2.6821150  78.2910290  27.5572080   3.2306980
  79.0349240  26.2436200   3.1167340  87.4692980  13.1200170  18.4687610
  87.3558430  13.4394780  19.3639130  88.2862720  13.5212680  18.1724890
  84.5069170   4.1428170  47.0362090  83.7311270   3.6628610  47.3260660
  85.1582100   3.4633820  46.8618250  78.5235000   4.4547980  47.9137850
  77.6919880   4.1996690  48.3134360  79.1315980   4.5258750  48.6495770
  88.5276600   8.5488360  45.8161220  88.0658130   7.7775600  46.1448390
  89.3402150   8.5754430  46.3213670  78.5036260   8.4888070  48.1095870
  78.8064300   7.5985810  47.9306090  79.2479850   9.0458290  47.8818120
  84.7539910  10.8346370  45.4365210  84.1351350  11.2903870  44.8659650
  85.6091690  10.9897830  45.0354910  83.9478160   6.8185360  47.0432250
  83.8786440   5.8775300  46.8821380  84.7098020   6.9086770  47.6154820
  85.6203260   5.7185610  42.8297120  85.0020530   6.1835060  42.2659840
  86.1326510   6.4113090  43.2466630  80.4835020   5.2461480  49.5080720
  80.1504400   5.8730400  50.1501790  80.6601700   5.7723360  48.7282390
  79.6954120   7.2142280  51.3229900  80.3128120   7.8893360  51.0414350
  78.8347240   7.6230260  51.2317400  74.9886460   6.4042140  40.2036750
  74.6114440   6.8929240  39.4721650  75.2459530   7.0767420  40.8343280
  88.1490450  10.5225820  47.9529720  88.1617610  10.1188110  47.0851980
  87.5965670  11.2973110  47.8491150  89.4435870   7.2442040  43.0419890
  89.3332200   6.3016370  43.1669310  89.4404120   7.6057680  43.9282650
  87.5475890   5.4255660  49.2812330  87.9644680   5.2115770  48.4465790
  88.2715710   5.6828450  49.8520950  84.9856150   2.8707360  42.3982380
  84.0585430   2.8044740  42.6270850  85.1380970   3.8087490  42.2837620
  89.0153440   4.4327660  42.9017630  88.3965860   4.0947210  42.2543930
  88.9977890   3.7887420  43.6096820  80.5912790   3.3972100  45.1802110
  80.1869790   2.6849350  44.6848010  80.6775910   3.0525340  46.0690150
  81.0594490   7.0839660  47.3441320  80.7622780   6.4785130  46.6649100
  82.0094310   7.1216970  47.2330680  89.1480100  10.6571530  51.0064420
  88.6710660  11.4643720  50.8137030  88.4641890  10.0049860  51.1590630
  87.1918140   3.6714470  39.9090380  87.6311420   2.8336900  39.7628200
  87.9046560   4.3043870  39.9954520  78.9784140   3.6934670  52.5706490
  78.8391910   4.5657470  52.9393890  78.0965500   3.3507480  52.4254430
  85.3013520   8.6110540  43.8771620  85.7409430   9.3534870  43.4627010
  85.2400410   8.8537110  44.8010580  74.9302790   5.4632220  48.4877400
  75.0083210   5.5980990  47.5433120  75.5444470   4.7548110  48.6805520
  76.1750420   7.1632410  44.8983580  75.7678500   7.3047000  44.0437180
  77.0663430   6.8792570  44.6954790  85.9929300  11.3124320  51.8050630
  86.5073970  11.2232330  52.6073060  85.1498380  11.6584020  52.0978540
  87.9683700  11.5979660  41.2334630  87.8084840  11.3082600  42.1316460
  87.8030410  10.8219790  40.6979860  80.4472080  11.3778190  43.0106250
  80.2714560  10.4613730  42.7974050  79.5927820  11.7365480  43.2504050
  87.6709830   9.1067220  39.7932630  86.9774990   9.1044510  39.1334910
  88.4132690   8.6826540  39.3626800  87.2359760  10.7329930  43.8681120
  87.6916710   9.9519310  44.1819740  87.5752280  11.4436750  44.4122300
  74.9862310   6.5046390  51.0271860  75.1493350   6.0351750  50.2091230
  75.4514760   5.9969950  51.6920700  76.5601290   5.8797820  53.1867670
  76.1756080   5.2391490  53.7850630  76.8713480   6.5833940  53.7562400
  82.7098430   2.7274360  48.6676290  83.0768560   2.2532930  49.4137630
  82.5203490   3.6015930  49.0084630  80.4997800   1.7683000  50.9860500
  80.1954870   2.6474980  51.2110860  81.4544260   1.8282790  51.0217940
  79.0279590   5.9743990  41.5827350  78.2541850   5.4341610  41.4226070
  79.7574220   5.4550600  41.2445110  85.1686370   5.0418410  53.2622740
  85.1023680   4.1214080  53.0080330  84.5391510   5.1393850  53.9767380
  79.0716990   5.6424370  45.2206160  79.5895660   4.8392630  45.1663050
  78.6201010   5.5803510  46.0622990  83.9586490   6.9090650  40.4933460
  84.3002190   7.6532880  39.9976780  83.1299200   7.2221770  40.8558290
  76.5561530   2.6085740  52.1331860  76.1976470   3.2739590  52.7205200
  76.2616090   1.7769290  52.5044480  85.1003100   7.8638980  53.0126540
  85.1147640   6.9319940  52.7945450  84.3928200   7.9498740  53.6516310
  86.8413900   6.2306490  45.8578970  87.1937720   5.6334620  45.1980340
  85.9576230   5.9050720  46.0287220  82.9277180   6.9904180  43.2649380
  83.6148310   7.5373390  43.6456970  82.1409600   7.5344910  43.2998990
  75.0669580   2.6077000  38.7566460  75.9364430   2.8901800  39.0402380
  74.5759900   3.4212870  38.6415270  82.2304390   3.9950210  42.8774740
  82.6867170   4.8055460  43.1034930  81.8792600   3.6773350  43.7093230
  84.5337000   9.5056550  50.1067040  85.1779220   9.7115930  50.7840460
  84.8966440   8.7444950  49.6537890  85.8069080   7.5088900  48.8244490
  86.4491310   6.8082060  48.9376660  86.3318430   8.2887340  48.6441380
  89.6524800   7.7937520  38.5483630  89.4262380   7.0767960  39.1408270
  89.2621000   7.5449960  37.7105380  87.5806700   8.3083800  52.0280550
  87.9162940   8.8950490  52.7058470  86.6607040   8.1776510  52.2578340
  75.4340830  11.8204380  39.3228090  75.7938470  12.4193720  38.6685360
  75.2933170  12.3664270  40.0963120  89.2341050   5.7109460  40.2097790
  88.9462750   6.1722150  40.9975670  90.0293220   5.2507230  40.4782010
  75.4182690  10.0859240  53.7970490  75.5273810   9.1453980  53.6565880
  74.7663250  10.3513990  53.1484220  81.4509450   9.2035580  40.1401760
  81.4419550   9.9365270  39.5246270  80.5307810   8.9567160  40.2328720
  77.0516090   4.4250470  40.8848520  76.4444040   5.1649370  40.8943820
  77.5265440   4.5149830  40.0586720  84.4369050   9.2663820  38.8026950
  84.5381030   9.0627810  37.8728930  83.5370790   9.0122100  39.0074730
  83.0787160  11.7850140  43.4974620  83.3328660  11.7471530  42.5753990
  82.1299640  11.6583470  43.4902870  89.0839740   2.7042020  45.0733130
  88.1429880   2.7192250  45.2480820  89.3983810   1.9177980  45.5193430
  79.0621380   4.3861620  38.6337090  79.8284650   4.2742980  39.1962520
  79.1396070   3.6899590  37.9813860  78.5582850  11.9682080  46.4204520
  79.2945330  11.4197540  46.6913090  78.9423770  12.8338090  46.2810510
  75.4428330   8.0355650  42.2946030  74.5168110   8.2776790  42.2851440
  75.9084760   8.8629910  42.1730780  81.6685160  11.1412390  38.2430090
  82.4613770  11.4301220  37.7911880  81.1489510  10.7104560  37.5642570
  82.1862560   6.3615800  38.1072440  82.0813200   5.7468150  38.8333820
  82.0186780   5.8381690  37.3235450  82.3376880   5.0472600  54.0861670
  81.5722550   5.6157600  54.0016340  82.5192840   4.7548810  53.1929900
  85.4265290   5.4235830  38.7114430  84.8775390   5.8705130  39.3557170
  86.0484550   4.9185080  39.2352100  81.0940410   4.3826750  40.6079730
  81.5156830   4.2166620  41.4511120  81.2191250   3.5726980  40.1134870
  83.6068050   3.4064360  37.8556830  84.1273710   2.6913380  37.4897980
  84.2536450   4.0450230  38.1557340  88.1545890   4.8292760  53.1791900
  88.5686910   4.9837840  54.0282320  87.2196890   4.9547980  53.3417680
  82.9161120   4.7813240  51.1487830  83.3349230   5.6245970  50.9764070
  81.9969750   4.9185280  50.9194610  85.2525020   2.5129420  52.5325670
  85.3721230   1.9170560  53.2720510  86.1119020   2.5499110  52.1126970
  87.5912920   3.0666610  51.1088180  87.0648140   3.5909230  50.5053320
  87.9344260   3.6994000  51.7397910  80.7668540  11.0866250  52.2645560
  80.2289630  11.8112310  51.9454260  81.0202500  10.6096590  51.4742900
  83.6230750  12.3217460  52.5232210  83.5489450  13.2252600  52.8304580
  82.7209590  12.0029360  52.4954280  84.1716080  11.4875970  40.1458570
  85.0666870  11.8260940  40.1677330  84.2033710  10.7655380  39.5182850
  77.8112240   6.8603020  38.3745570  78.2487110   7.4032690  39.0303150
  78.2959970   6.0349970  38.3841910  75.0258040   9.6492050  45.8265830
  75.3561050   8.7813110  45.5944470  75.4549040   9.8550570  46.6570790
  79.6219960   7.9801060  43.4867800  79.3215500   7.8566030  44.3871710
  79.5157450   7.1209650  43.0783530  75.5148250  10.5162640  48.5647460
  75.0779240  10.6963440  49.3971610  76.0825930  11.2737260  48.4229180
  75.3472680   3.0282870  44.9236340  74.6921520   2.7594510  44.2796040
  76.1850630   2.9187350  44.4738320  89.8362070   6.7431620  50.9500930
  89.0221910   7.1728780  51.2126720  90.2436270   7.3550030  50.3369980
  76.3848610   3.4135440  49.4639680  76.7521650   3.3262840  50.3435700
  75.8159430   2.6501990  49.3646540  81.5006720   9.4827720  50.2269550
  81.2598080   9.7502280  49.3400070  82.4409360   9.6533450  50.2820410
  77.6388720  10.8730380  51.7457610  77.0449040  10.7415080  52.4847650
  77.6312560  10.0368520  51.2799710  77.2700950   8.2388760  50.6965650
  76.5435010   7.6194050  50.6291600  77.3310100   8.6329370  49.8263730
  80.8746050  10.4533760  47.4815060  81.3911070   9.8421120  46.9563320
  81.5243430  10.9562540  47.9726070  83.6141550  11.3442250  48.3084040
  83.9019360  11.0896550  47.4317050  84.1264770  10.7919610  48.8989610
  75.5530950  11.5563150  43.9062410  75.3852990  10.9233830  44.6044300
  74.6865460  11.7622550  43.5556600  77.1593650  10.2496380  41.3512550
  76.6341270  10.6304410  40.6474510  77.0838230  10.8747150  42.0722260
  79.7586620  12.1978760  40.2261800  80.4905440  11.9138040  39.6785690
  80.0180290  11.9592040  41.1161180  78.9201410   8.3143490  40.2308130
  78.2910290   8.7828590  40.7793960  79.0349240   7.4692710  40.6654320
  84.5069170   4.1428170  28.2618600  83.7311270   3.6628610  28.5517170
  85.1582100   3.4633820  28.0874760  78.5235000   4.4547980  29.1394360
  77.6919880   4.1996690  29.5390870  79.1315980   4.5258750  29.8752280
  88.5276600   8.5488360  27.0417730  88.0658130   7.7775600  27.3704900
  89.3402150   8.5754430  27.5470180  78.5036260   8.4888070  29.3352380
  78.8064300   7.5985810  29.1562600  79.2479850   9.0458290  29.1074630
  84.7539910  10.8346370  26.6621720  84.1351350  11.2903870  26.0916160
  85.6091690  10.9897830  26.2611420  83.9478160   6.8185360  28.2688760
  83.8786440   5.8775300  28.1077890  84.7098020   6.9086770  28.8411330
  85.6203260   5.7185610  24.0553630  85.0020530   6.1835060  23.4916350
  86.1326510   6.4113090  24.4723140  80.4835020   5.2461480  30.7337230
  80.1504400   5.8730400  31.3758300  80.6601700   5.7723360  29.9538900
  79.6954120   7.2142280  32.5486410  80.3128120   7.8893360  32.2670860
  78.8347240   7.6230260  32.4573910  74.9886460   6.4042140  21.4293260
  74.6114440   6.8929240  20.6978160  75.2459530   7.0767420  22.0599790
  88.1490450  10.5225820  29.1786230  88.1617610  10.1188110  28.3108490
  87.5965670  11.2973110  29.0747660  89.4435870   7.2442040  24.2676400
  89.3332200   6.3016370  24.3925820  89.4404120   7.6057680  25.1539160
  87.5475890   5.4255660  30.5068840  87.9644680   5.2115770  29.6722300
  88.2715710   5.6828450  31.0777460  84.9856150   2.8707360  23.6238890
  84.0585430   2.8044740  23.8527360  85.1380970   3.8087490  23.5094130
  89.0153440   4.4327660  24.1274140  88.3965860   4.0947210  23.4800440
  88.9977890   3.7887420  24.8353330  80.5912790   3.3972100  26.4058620
  80.1869790   2.6849350  25.9104520  80.6775910   3.0525340  27.2946660
  81.0594490   7.0839660  28.5697830  80.7622780   6.4785130  27.8905610
  82.0094310   7.1216970  28.4587190  89.1480100  10.6571530  32.2320930
  88.6710660  11.4643720  32.0393540  88.4641890  10.0049860  32.3847140
  80.1512920   6.8221350  35.2205630  79.2541450   7.0461320  35.4679030
  80.1765790   6.9456290  34.2717030  87.1918140   3.6714470  21.1346890
  87.6311420   2.8336900  20.9884710  87.9046560   4.3043870  21.2211030
  78.9784140   3.6934670  33.7963000  78.8391910   4.5657470  34.1650400
  78.0965500   3.3507480  33.6510940  85.3013520   8.6110540  25.1028130
  85.7409430   9.3534870  24.6883520  85.2400410   8.8537110  26.0267090
  80.7764490   9.6356370  36.0048150  80.7479920  10.0399320  35.1376580
  80.6129460   8.7066730  35.8419750  74.9302790   5.4632220  29.7133910
  75.0083210   5.5980990  28.7689630  75.5444470   4.7548110  29.9062030
  76.1750420   7.1632410  26.1240090  75.7678500   7.3047000  25.2693690
  77.0663430   6.8792570  25.9211300  85.9929300  11.3124320  33.0307140
  86.5073970  11.2232330  33.8329570  85.1498380  11.6584020  33.3235050
  87.9683700  11.5979660  22.4591140  87.8084840  11.3082600  23.3572970
  87.8030410  10.8219790  21.9236370  80.4472080  11.3778190  24.2362760
  80.2714560  10.4613730  24.0230560  79.5927820  11.7365480  24.4760560
  87.6709830   9.1067220  21.0189140  86.9774990   9.1044510  20.3591420
  88.4132690   8.6826540  20.5883310  87.2359760  10.7329930  25.0937630
  87.6916710   9.9519310  25.4076250  87.5752280  11.4436750  25.6378810
  74.9862310   6.5046390  32.2528370  75.1493350   6.0351750  31.4347740
  75.4514760   5.9969950  32.9177210  76.5601290   5.8797820  34.4124180
  76.1756080   5.2391490  35.0107140  76.8713480   6.5833940  34.9818910
  82.7098430   2.7274360  29.8932800  83.0768560   2.2532930  30.6394140
  82.5203490   3.6015930  30.2341140  80.4997800   1.7683000  32.2117010
  80.1954870   2.6474980  32.4367370  81.4544260   1.8282790  32.2474450
  79.0279590   5.9743990  22.8083860  78.2541850   5.4341610  22.6482580
  79.7574220   5.4550600  22.4701620  85.1686370   5.0418410  34.4879250
  85.1023680   4.1214080  34.2336840  84.5391510   5.1393850  35.2023890
  79.0716990   5.6424370  26.4462670  79.5895660   4.8392630  26.3919560
  78.6201010   5.5803510  27.2879500  83.9586490   6.9090650  21.7189970
  84.3002190   7.6532880  21.2233290  83.1299200   7.2221770  22.0814800
  76.5561530   2.6085740  33.3588370  76.1976470   3.2739590  33.9461710
  76.2616090   1.7769290  33.7300990  79.7574650   3.0669980  36.2427920
  79.4574790   3.2127160  35.3455740  80.5285890   2.5075270  36.1501310
  85.1003100   7.8638980  34.2383050  85.1147640   6.9319940  34.0201960
  84.3928200   7.9498740  34.8772820  86.8413900   6.2306490  27.0835480
  87.1937720   5.6334620  26.4236850  85.9576230   5.9050720  27.2543730
  82.9277180   6.9904180  24.4905890  83.6148310   7.5373390  24.8713480
  82.1409600   7.5344910  24.5255500  75.0669580   2.6077000  19.9822970
  75.9364430   2.8901800  20.2658890  74.5759900   3.4212870  19.8671780
  82.2304390   3.9950210  24.1031250  82.6867170   4.8055460  24.3291440
  81.8792600   3.6773350  24.9349740  84.5337000   9.5056550  31.3323550
  85.1779220   9.7115930  32.0096970  84.8966440   8.7444950  30.8794400
  85.8069080   7.5088900  30.0501000  86.4491310   6.8082060  30.1633170
  86.3318430   8.2887340  29.8697890  89.6524800   7.7937520  19.7740140
  89.4262380   7.0767960  20.3664780  89.2621000   7.5449960  18.9361890
  87.5806700   8.3083800  33.2537060  87.9162940   8.8950490  33.9314980
  86.6607040   8.1776510  33.4834850  75.4340830  11.8204380  20.5484600
  75.7938470  12.4193720  19.8941870  75.2933170  12.3664270  21.3219630
  89.2341050   5.7109460  21.4354300  88.9462750   6.1722150  22.2232180
  90.0293220   5.2507230  21.7038520  75.4182690  10.0859240  35.0227000
  75.5273810   9.1453980  34.8822390  74.7663250  10.3513990  34.3740730
  83.4095280   8.3575130  36.4225120  83.0892150   7.6384370  36.9670810
  82.7353640   9.0330200  36.4961180  81.4509450   9.2035580  21.3658270
  81.4419550   9.9365270  20.7502780  80.5307810   8.9567160  21.4585230
  77.0516090   4.4250470  22.1105030  76.4444040   5.1649370  22.1200330
  77.5265440   4.5149830  21.2843230  84.4369050   9.2663820  20.0283460
  84.5381030   9.0627810  19.0985440  83.5370790   9.0122100  20.2331240
  83.0787160  11.7850140  24.7231130  83.3328660  11.7471530  23.8010500
  82.1299640  11.6583470  24.7159380  89.0839740   2.7042020  26.2989640
  88.1429880   2.7192250  26.4737330  89.3983810   1.9177980  26.7449940
  79.0621380   4.3861620  19.8593600  79.8284650   4.2742980  20.4219030
  79.1396070   3.6899590  19.2070370  78.5582850  11.9682080  27.6461030
  79.2945330  11.4197540  27.9169600  78.9423770  12.8338090  27.5067020
  75.4428330   8.0355650  23.5202540  74.5168110   8.2776790  23.5107950
  75.9084760   8.8629910  23.3987290  77.5641130  11.1528150  36.8346610
  78.3653860  11.4740200  37.2482010  77.0492950  10.7923730  37.5566520
  81.6685160  11.1412390  19.4686600  82.4613770  11.4301220  19.0168390
  81.1489510  10.7104560  18.7899080  86.4005760   7.2608020  36.7822020
  85.7943920   7.2839620  36.0417770  86.0959870   6.5291060  37.3189270
  87.8306130  10.9888310  35.3931430  88.7827880  10.9046330  35.3431670
  87.6834350  11.6530020  36.0665220  75.2838940   3.6401610  35.7782660
  75.7877960   3.0608890  36.3498890  74.5446360   3.9241840  36.3159030
  82.1862560   6.3615800  19.3328950  82.0813200   5.7468150  20.0590330
  82.0186780   5.8381690  18.5491960  82.3376880   5.0472600  35.3118180
  81.5722550   5.6157600  35.2272850  82.5192840   4.7548810  34.4186410
  85.4265290   5.4235830  19.9370940  84.8775390   5.8705130  20.5813680
  86.0484550   4.9185080  20.4608610  89.4800230   6.7777930  35.8693200
  90.2209700   7.1153690  35.3660660  88.7172910   6.9469990  35.3162970
  81.0940410   4.3826750  21.8336240  81.5156830   4.2166620  22.6767630
  81.2191250   3.5726980  21.3391380  83.6068050   3.4064360  19.0813340
  84.1273710   2.6913380  18.7154490  84.2536450   4.0450230  19.3813850
  88.1545890   4.8292760  34.4048410  88.5686910   4.9837840  35.2538830
  87.2196890   4.9547980  34.5674190  82.9161120   4.7813240  32.3744340
  83.3349230   5.6245970  32.2020580  81.9969750   4.9185280  32.1451120
  85.2525020   2.5129420  33.7582180  85.3721230   1.9170560  34.4977020
  86.1119020   2.5499110  33.3383480  87.5912920   3.0666610  32.3344690
  87.0648140   3.5909230  31.7309830  87.9344260   3.6994000  32.9654420
  80.7668540  11.0866250  33.4902070  80.2289630  11.8112310  33.1710770
  81.0202500  10.6096590  32.6999410  83.6230750  12.3217460  33.7488720
  83.5489450  13.2252600  34.0561090  82.7209590  12.0029360  33.7210790
  84.1716080  11.4875970  21.3715080  85.0666870  11.8260940  21.3933840
  84.2033710  10.7655380  20.7439360  77.8112240   6.8603020  19.6002080
  78.2487110   7.4032690  20.2559660  78.2959970   6.0349970  19.6098420
  75.0258040   9.6492050  27.0522340  75.3561050   8.7813110  26.8200980
  75.4549040   9.8550570  27.8827300  79.6219960   7.9801060  24.7124310
  79.3215500   7.8566030  25.6128220  79.5157450   7.1209650  24.3040040
  75.5148250  10.5162640  29.7903970  75.0779240  10.6963440  30.6228120
  76.0825930  11.2737260  29.6485690  75.3472680   3.0282870  26.1492850
  74.6921520   2.7594510  25.5052550  76.1850630   2.9187350  25.6994830
  89.8362070   6.7431620  32.1757440  89.0221910   7.1728780  32.4383230
  90.2436270   7.3550030  31.5626490  76.3848610   3.4135440  30.6896190
  76.7521650   3.3262840  31.5692210  75.8159430   2.6501990  30.5903050
  77.8000690   7.9268130  35.8516340  77.7570320   7.5561040  36.7330800
  77.9311700   8.8645700  35.9918160  81.5006720   9.4827720  31.4526060
  81.2598080   9.7502280  30.5656580  82.4409360   9.6533450  31.5076920
  77.6388720  10.8730380  32.9714120  77.0449040  10.7415080  33.7104160
  77.6312560  10.0368520  32.5056220  77.2700950   8.2388760  31.9222160
  76.5435010   7.6194050  31.8548110  77.3310100   8.6329370  31.0520240
  80.8746050  10.4533760  28.7071570  81.3911070   9.8421120  28.1819830
  81.5243430  10.9562540  29.1982580  83.6141550  11.3442250  29.5340550
  83.9019360  11.0896550  28.6573560  84.1264770  10.7919610  30.1246120
  75.5530950  11.5563150  25.1318920  75.3852990  10.9233830  25.8300810
  74.6865460  11.7622550  24.7813110  77.1593650  10.2496380  22.5769060
  76.6341270  10.6304410  21.8731020  77.0838230  10.8747150  23.2978770
  83.6813910  12.2658350  36.9008750  84.6081220  12.0302620  36.9444710
  83.6664340  13.0930350  36.4194780  79.7586620  12.1978760  21.4518310
  80.4905440  11.9138040  20.9042200  80.0180290  11.9592040  22.3417690
  78.9201410   8.3143490  21.4564640  78.2910290   8.7828590  22.0050470
  79.0349240   7.4692710  21.8910830  84.5069170   4.1428170   9.4875110
  83.7311270   3.6628610   9.7773680  85.1582100   3.4633820   9.3131270
  78.5235000   4.4547980  10.3650870  77.6919880   4.1996690  10.7647380
  79.1315980   4.5258750  11.1008790  88.5276600   8.5488360   8.2674240
  88.0658130   7.7775600   8.5961410  89.3402150   8.5754430   8.7726690
  78.5036260   8.4888070  10.5608890  78.8064300   7.5985810  10.3819110
  79.2479850   9.0458290  10.3331140  84.7539910  10.8346370   7.8878230
  84.1351350  11.2903870   7.3172670  85.6091690  10.9897830   7.4867930
  83.9478160   6.8185360   9.4945270  83.8786440   5.8775300   9.3334400
  84.7098020   6.9086770  10.0667840  85.6203260   5.7185610   5.2810140
  85.0020530   6.1835060   4.7172860  86.1326510   6.4113090   5.6979650
  80.4835020   5.2461480  11.9593740  80.1504400   5.8730400  12.6014810
  80.6601700   5.7723360  11.1795410  79.6954120   7.2142280  13.7742920
  80.3128120   7.8893360  13.4927370  78.8347240   7.6230260  13.6830420
  74.9886460   6.4042140   2.6549770  74.6114440   6.8929240   1.9234670
  75.2459530   7.0767420   3.2856300  88.1490450  10.5225820  10.4042740
  88.1617610  10.1188110   9.5365000  87.5965670  11.2973110  10.3004170
  89.4435870   7.2442040   5.4932910  89.3332200   6.3016370   5.6182330
  89.4404120   7.6057680   6.3795670  87.5475890   5.4255660  11.7325350
  87.9644680   5.2115770  10.8978810  88.2715710   5.6828450  12.3033970
  84.9856150   2.8707360   4.8495400  84.0585430   2.8044740   5.0783870
  85.1380970   3.8087490   4.7350640  89.0153440   4.4327660   5.3530650
  88.3965860   4.0947210   4.7056950  88.9977890   3.7887420   6.0609840
  80.5912790   3.3972100   7.6315130  80.1869790   2.6849350   7.1361030
  80.6775910   3.0525340   8.5203170  81.0594490   7.0839660   9.7954340
  80.7622780   6.4785130   9.1162120  82.0094310   7.1216970   9.6843700
  89.1480100  10.6571530  13.4577440  88.6710660  11.4643720  13.2650050
  88.4641890  10.0049860  13.6103650  80.1512920   6.8221350  16.4462140
  79.2541450   7.0461320  16.6935540  80.1765790   6.9456290  15.4973540
  87.1918140   3.6714470   2.3603400  87.6311420   2.8336900   2.2141220
  87.9046560   4.3043870   2.4467540  78.9784140   3.6934670  15.0219510
  78.8391910   4.5657470  15.3906910  78.0965500   3.3507480  14.8767450
  85.3013520   8.6110540   6.3284640  85.7409430   9.3534870   5.9140030
  85.2400410   8.8537110   7.2523600  80.7764490   9.6356370  17.2304660
  80.7479920  10.0399320  16.3633090  80.6129460   8.7066730  17.0676260
  74.9302790   5.4632220  10.9390420  75.0083210   5.5980990   9.9946140
  75.5444470   4.7548110  11.1318540  76.1750420   7.1632410   7.3496600
  75.7678500   7.3047000   6.4950200  77.0663430   6.8792570   7.1467810
  85.9929300  11.3124320  14.2563650  86.5073970  11.2232330  15.0586080
  85.1498380  11.6584020  14.5491560  87.9683700  11.5979660   3.6847650
  87.8084840  11.3082600   4.5829480  87.8030410  10.8219790   3.1492880
  80.4472080  11.3778190   5.4619270  80.2714560  10.4613730   5.2487070
  79.5927820  11.7365480   5.7017070  87.2359760  10.7329930   6.3194140
  87.6916710   9.9519310   6.6332760  87.5752280  11.4436750   6.8635320
  74.9862310   6.5046390  13.4784880  75.1493350   6.0351750  12.6604250
  75.4514760   5.9969950  14.1433720  76.5601290   5.8797820  15.6380690
  76.1756080   5.2391490  16.2363650  76.8713480   6.5833940  16.2075420
  82.7098430   2.7274360  11.1189310  83.0768560   2.2532930  11.8650650
  82.5203490   3.6015930  11.4597650  80.4997800   1.7683000  13.4373520
  80.1954870   2.6474980  13.6623880  81.4544260   1.8282790  13.4730960
  79.0279590   5.9743990   4.0340370  78.2541850   5.4341610   3.8739090
  79.7574220   5.4550600   3.6958130  85.1686370   5.0418410  15.7135760
  85.1023680   4.1214080  15.4593350  84.5391510   5.1393850  16.4280400
  79.0716990   5.6424370   7.6719180  79.5895660   4.8392630   7.6176070
  78.6201010   5.5803510   8.5136010  83.9586490   6.9090650   2.9446480
  84.3002190   7.6532880   2.4489800  83.1299200   7.2221770   3.3071310
  76.5561530   2.6085740  14.5844880  76.1976470   3.2739590  15.1718220
  76.2616090   1.7769290  14.9557500  79.7574650   3.0669980  17.4684430
  79.4574790   3.2127160  16.5712250  80.5285890   2.5075270  17.3757820
  85.1003100   7.8638980  15.4639560  85.1147640   6.9319940  15.2458470
  84.3928200   7.9498740  16.1029330  86.8413900   6.2306490   8.3091990
  87.1937720   5.6334620   7.6493360  85.9576230   5.9050720   8.4800240
  82.9277180   6.9904180   5.7162400  83.6148310   7.5373390   6.0969990
  82.1409600   7.5344910   5.7512010  82.2304390   3.9950210   5.3287760
  82.6867170   4.8055460   5.5547950  81.8792600   3.6773350   6.1606250
  84.5337000   9.5056550  12.5580060  85.1779220   9.7115930  13.2353480
  84.8966440   8.7444950  12.1050910  85.8069080   7.5088900  11.2757510
  86.4491310   6.8082060  11.3889680  86.3318430   8.2887340  11.0954400
  87.5806700   8.3083800  14.4793570  87.9162940   8.8950490  15.1571490
  86.6607040   8.1776510  14.7091360  89.2341050   5.7109460   2.6610810
  88.9462750   6.1722150   3.4488690  90.0293220   5.2507230   2.9295030
  75.4182690  10.0859240  16.2483510  75.5273810   9.1453980  16.1078900
  74.7663250  10.3513990  15.5997240  83.4095280   8.3575130  17.6481630
  83.0892150   7.6384370  18.1927320  82.7353640   9.0330200  17.7217690
  81.4509450   9.2035580   2.5914780  81.4419550   9.9365270   1.9759290
  80.5307810   8.9567160   2.6841740  77.0516090   4.4250470   3.3361540
  76.4444040   5.1649370   3.3456840  77.5265440   4.5149830   2.5099740
  83.0787160  11.7850140   5.9487640  83.3328660  11.7471530   5.0267010
  82.1299640  11.6583470   5.9415890  89.0839740   2.7042020   7.5246150
  88.1429880   2.7192250   7.6993840  89.3983810   1.9177980   7.9706450
  78.5582850  11.9682080   8.8717540  79.2945330  11.4197540   9.1426110
  78.9423770  12.8338090   8.7323530  75.4428330   8.0355650   4.7459050
  74.5168110   8.2776790   4.7364460  75.9084760   8.8629910   4.6243800
  77.5641130  11.1528150  18.0603120  78.3653860  11.4740200  18.4738520
  77.0492950  10.7923730  18.7823030  86.4005760   7.2608020  18.0078530
  85.7943920   7.2839620  17.2674280  86.0959870   6.5291060  18.5445780
  87.8306130  10.9888310  16.6187940  88.7827880  10.9046330  16.5688180
  87.6834350  11.6530020  17.2921730  75.2838940   3.6401610  17.0039170
  75.7877960   3.0608890  17.5755400  74.5446360   3.9241840  17.5415540
  82.3376880   5.0472600  16.5374690  81.5722550   5.6157600  16.4529360
  82.5192840   4.7548810  15.6442920  89.4800230   6.7777930  17.0949710
  90.2209700   7.1153690  16.5917170  88.7172910   6.9469990  16.5419480
  81.0940410   4.3826750   3.0592750  81.5156830   4.2166620   3.9024140
  81.2191250   3.5726980   2.5647890  88.1545890   4.8292760  15.6304920
  88.5686910   4.9837840  16.4795340  87.2196890   4.9547980  15.7930700
  82.9161120   4.7813240  13.6000850  83.3349230   5.6245970  13.4277090
  81.9969750   4.9185280  13.3707630  85.2525020   2.5129420  14.9838690
  85.3721230   1.9170560  15.7233530  86.1119020   2.5499110  14.5639990
  87.5912920   3.0666610  13.5601200  87.0648140   3.5909230  12.9566340
  87.9344260   3.6994000  14.1910930  80.7668540  11.0866250  14.7158580
  80.2289630  11.8112310  14.3967280  81.0202500  10.6096590  13.9255920
  83.6230750  12.3217460  14.9745230  83.5489450  13.2252600  15.2817600
  82.7209590  12.0029360  14.9467300  84.1716080  11.4875970   2.5971590
  85.0666870  11.8260940   2.6190350  84.2033710  10.7655380   1.9695870
  75.0258040   9.6492050   8.2778850  75.3561050   8.7813110   8.0457490
  75.4549040   9.8550570   9.1083810  79.6219960   7.9801060   5.9380820
  79.3215500   7.8566030   6.8384730  79.5157450   7.1209650   5.5296550
  75.5148250  10.5162640  11.0160480  75.0779240  10.6963440  11.8484630
  76.0825930  11.2737260  10.8742200  75.3472680   3.0282870   7.3749360
  74.6921520   2.7594510   6.7309060  76.1850630   2.9187350   6.9251340
  89.8362070   6.7431620  13.4013950  89.0221910   7.1728780  13.6639740
  90.2436270   7.3550030  12.7883000  76.3848610   3.4135440  11.9152700
  76.7521650   3.3262840  12.7948720  75.8159430   2.6501990  11.8159560
  77.8000690   7.9268130  17.0772850  77.7570320   7.5561040  17.9587310
  77.9311700   8.8645700  17.2174670  81.5006720   9.4827720  12.6782570
  81.2598080   9.7502280  11.7913090  82.4409360   9.6533450  12.7333430
  77.6388720  10.8730380  14.1970630  77.0449040  10.7415080  14.9360670
  77.6312560  10.0368520  13.7312730  77.2700950   8.2388760  13.1478670
  76.5435010   7.6194050  13.0804620  77.3310100   8.6329370  12.2776750
  80.8746050  10.4533760   9.9328080  81.3911070   9.8421120   9.4076340
  81.5243430  10.9562540  10.4239090  83.6141550  11.3442250  10.7597060
  83.9019360  11.0896550   9.8830070  84.1264770  10.7919610  11.3502630
  75.5530950  11.5563150   6.3575430  75.3852990  10.9233830   7.0557320
  74.6865460  11.7622550   6.0069620  77.1593650  10.2496380   3.8025570
  76.6341270  10.6304410   3.0987530  77.0838230  10.8747150   4.5235280
  83.6813910  12.2658350  18.1265260  84.6081220  12.0302620  18.1701220
  83.6664340  13.0930350  17.6451290  79.7586620  12.1978760   2.6774820
  80.4905440  11.9138040   2.1298710  80.0180290  11.9592040   3.5674200
  78.9201410   8.3143490   2.6821150  78.2910290   8.7828590   3.2306980
  79.0349240   7.4692710   3.1167340  67.6007640  96.2366600  45.1552820
  67.5201690  95.3221210  44.8844530  67.1872060  96.7333670  44.4492530
  65.7325680  98.0145620  47.0362090  64.9567780  97.5346060  47.3260660
  66.3838610  97.3351270  46.8618250  59.7491510  98.3265430  47.9137850
  58.9176390  98.0714140  48.3134360  60.3572490  98.3976200  48.6495770
  58.1583460  93.2867320  41.6980240  57.2700160  93.6283290  41.5960120
  58.4424650  93.0867640  40.8061070  56.1216470  95.8872970  47.5819940
  56.6932580  95.1195170  47.5823580  56.1218010  96.1861730  46.6726550
  57.3641340  91.2957330  49.3688870  57.1844180  90.3983080  49.6491630
  56.9621420  91.8429200  50.0435820  66.2039840  93.4973190  47.2701180
  66.5804660  92.6245070  47.1574850  66.1059350  93.8331890  46.3791620
  60.3344850  91.8698820  42.7318620  60.4411600  92.7702550  43.0387380
  59.4237210  91.8216790  42.4413270  69.9863960  90.9923630  44.2029520
  70.8073580  90.5020200  44.2455000  70.0198040  91.5821290  44.9561360
  57.9828010  93.7917830  47.9771210  58.6638120  94.0556200  48.5958610
  57.6676060  92.9518700  48.3109220  62.1752580  94.8385190  47.0643800
  62.6830800  95.3366160  47.7048820  62.7065820  94.0620390  46.8883160
  74.2763510  93.0090380  50.7673150  73.5715680  93.3972090  50.2488260
  74.5421430  93.7040670  51.3694080  60.4588680  89.4783750  51.3307220
  60.4607120  89.9956140  50.5253120  59.6292990  89.0013930  51.3077150
  70.2225440  92.9324010  46.9757060  69.5181010  93.2208900  47.5560170
  70.5837600  93.7424120  46.6156620  60.1404010  91.1893710  49.3377670
  60.4820820  92.0335760  49.0431540  59.2019820  91.3377450  49.4543010
  73.2912360  92.3778800  47.3666270  72.3437270  92.4117780  47.4981700
  73.6162350  93.1917750  47.7515630  63.8231900  88.6775980  45.6622260
  64.1306880  88.1222870  44.9457760  62.8932600  88.8120440  45.4795250
  66.2112660  96.7424810  42.3982380  65.2841940  96.6762190  42.6270850
  66.3637480  97.6804940  42.2837620  66.1981740  93.0141810  39.3949540
  65.2585410  93.1755770  39.4802000  66.5165000  93.7327490  38.8485530
  72.7194500  97.6960330  49.3728570  71.8913130  97.7653420  48.8978700
  73.3144980  98.2814640  48.9044400  70.2409950  98.3045110  42.9017630
  69.6222370  97.9664660  42.2543930  70.2234400  97.6604870  43.6096820
  69.6836510  94.4829650  50.3183440  69.2707690  95.3083360  50.5723430
  68.9512460  93.8974690  50.1259800  61.8169300  97.2689550  45.1802110
  61.4126300  96.5566800  44.6848010  61.9032420  96.9242790  46.0690150
  60.5297920  94.0432760  48.9601150  61.0812510  94.1528100  48.1854400
  61.0441430  94.4170360  49.6756380  68.4174650  97.5431920  39.9090380
  68.8567930  96.7054350  39.7628200  69.1303070  98.1761320  39.9954520
  60.2040650  97.5652120  52.5706490  60.0648420  98.4374920  52.9393890
  59.3222010  97.2224930  52.4254430  71.9991790  88.7974730  38.2231420
  71.6864450  88.8901560  39.1230490  72.7604260  89.3755760  38.1728850
  58.5173930  96.1634530  42.6808760  58.3971530  96.8896620  42.0690030
  58.2074820  95.3937440  42.2036670  73.2093080  93.5346230  54.2005560
  72.5937350  94.0425900  53.6721020  72.8889500  92.6344560  54.1431500
  60.9837590  89.5069600  46.0632430  60.5405740  90.2879140  45.7316950
  61.5422580  89.8299490  46.7703370  65.2707400  92.3738120  51.6667750
  64.8086770  92.5821140  52.4787690  64.8685510  91.5597470  51.3638420
  70.2711910  93.5947070  52.7964410  69.4205500  93.2952820  53.1173480
  70.1113700  93.8389080  51.8848230  64.0996410  89.1280300  40.9438260
  63.4750590  89.1240170  41.6691570  64.0126530  88.2611260  40.5474230
  63.0213490  90.0516930  47.9222030  63.3185820  90.9579760  47.8414050
  63.5699050  89.5635710  47.3081600  60.7751810  94.6303170  43.7913680
  60.5492730  94.4140340  44.6960300  59.9944340  95.0631630  43.4459650
  68.0049570  94.6366540  42.3904330  67.4058460  95.3602340  42.2067950
  68.5529180  94.5743320  41.6080780  66.6114440  93.2730080  44.4207610
  67.0044010  93.5902280  43.6076300  66.9731290  92.3941960  44.5352130
  58.3461560  91.9402420  52.6107730  57.9524950  92.7877630  52.8180510
  57.6579960  91.3028790  52.8016370  55.6478610  89.8630880  46.6437810
  55.3591660  90.4333740  47.3562790  56.3924370  89.3835330  47.0069040
  55.8348840  93.8051000  37.8540530  55.7523510  94.7481760  37.9955520
  55.4831900  93.6625910  36.9752880  67.1969580  95.8635830  48.5158390
  66.4650700  96.3722640  48.8648490  66.7993920  95.0465810  48.2147170
  63.6346970  92.5390030  46.9210880  63.6383030  92.0979980  46.0715420
  64.5298090  92.8607360  47.0282700  59.4849350  92.4216520  45.8805090
  59.1449400  92.8991750  46.6372140  58.7226670  91.9681640  45.5206190
  63.6967120  93.5402110  39.9117640  63.8179940  93.4988590  40.8603460
  63.3115630  94.4026260  39.7564370  67.6595490  91.3169510  47.9281330
  67.6768230  91.7678160  48.7723180  67.4111070  90.4175150  48.1414770
  62.7088620  95.8503250  39.3100940  62.1405520  95.4021500  38.6836850
  63.4177620  96.2096030  38.7766090  63.9354940  96.5991810  48.6676290
  64.3025070  96.1250380  49.4137630  63.7460000  97.4733380  49.0084630
  56.7995430  91.3435500  44.7969760  56.5142350  90.9791170  45.6348380
  56.7374290  90.6115960  44.1832900  61.7254310  95.6400450  50.9860500
  61.4211380  96.5192430  51.2110860  62.6800770  95.7000240  51.0217940
  66.4734020  90.2364760  41.5183130  65.6598630  89.7377930  41.4428440
  66.2795970  91.0763010  41.1019480  69.1882410  94.6084410  39.8145290
  70.0762030  94.9201640  39.6396630  69.1587500  93.7356660  39.4225870
  57.7818040  96.4803190  52.1331860  57.4232980  97.1457040  52.7205200
  57.4872600  95.6486740  52.5044480  71.4596680  95.9196250  39.2825150
  71.3760400  96.3510470  38.4321590  72.1790870  96.3794600  39.7151970
  56.2926090  96.4794450  38.7566460  57.1620940  96.7619250  39.0402380
  55.8016410  97.2930320  38.6415270  59.3572680  88.2105310  43.3497260
  59.2287310  88.2023210  44.2982180  58.5334700  88.5488400  42.9988270
  56.3566610  89.9696430  52.8103960  55.6425130  90.1693350  53.4156570
  56.7761650  89.1936000  53.1818760  67.8505390  92.4618740  50.5605410
  68.2186210  91.6413950  50.8884980  66.9903590  92.5220630  50.9761060
  71.2167420  91.4175680  41.3692970  70.5880580  91.5221350  40.6551200
  70.7219340  91.6372460  42.1586850  63.1851450  93.6961630  42.7850850
  62.4767600  94.1647970  43.2264460  63.4695930  93.0383640  43.4196040
  64.8107380  95.1158330  50.7843380  65.3092630  95.5904150  51.4495230
  64.9530330  94.1921850  50.9913410  67.2166880  90.4212290  44.2246640
  67.0934660  90.4398420  43.2756150  68.1651440  90.4691230  44.3445040
  61.3886470  92.0046710  40.1601560  62.2377000  92.4416860  40.0941750
  61.0217740  92.3166970  40.9873620  72.0174240  91.3326290  51.6271770
  71.5147840  92.0731690  51.9665580  72.8330900  91.7210290  51.3108560
  70.3096250  96.5759470  45.0733130  69.3686390  96.5909700  45.2480820
  70.6240320  95.7895430  45.5193430  60.2877890  98.2579070  38.6337090
  61.0541160  98.1460430  39.1962520  60.3652580  97.5617040  37.9813860
  58.9824650  95.6904140  39.3169980  59.0628240  94.7431650  39.4287380
  59.8744400  96.0211020  39.4230640  62.3196920  98.2544200  40.6079730
  62.7413340  98.0884070  41.4511120  62.4447760  97.4444430  40.1134870
  60.4824340  94.2340750  53.4150710  59.9520800  93.7431700  52.7874050
  61.1512410  94.6624950  52.8808640  64.8324560  97.2781810  37.8556830
  65.3530220  96.5630830  37.4897980  65.4792960  97.9167680  38.1557340
  60.9696640  91.2003120  53.4948000  60.8753510  90.5823870  52.7698870
  60.3894030  91.9269410  53.2677910  63.7358080  89.7576360  50.5275390
  63.2875380  89.7800620  49.6820940  63.1023280  89.3595380  51.1245690
  66.4781530  96.3846870  52.5325670  66.5977740  95.7888010  53.2720510
  67.3375530  96.4216560  52.1126970  68.8169430  96.9384060  51.1088180
  68.2904650  97.4626680  50.5053320  69.1600770  97.5711450  51.7397910
  61.2155820  94.3277430  37.5537890  61.0144880  93.4644790  37.9151230
  61.0447870  94.2410790  36.6159490  68.6944130  89.1385660  40.0824770
  68.9746420  88.2953560  40.4384190  67.9209860  89.3708770  40.5963520
  60.0138620  91.4278050  37.5415770  60.3164520  91.4345480  36.6334920
  60.7533210  91.0775910  38.0383430  63.2323550  90.3712670  38.5271970
  62.8845550  89.6936660  37.9474420  63.4336320  89.9102180  39.3415360
  56.5729190  96.9000320  44.9236340  55.9178030  96.6311960  44.2796040
  57.4107140  96.7904800  44.4738320  69.5219630  91.6941610  39.1454830
  69.9404510  91.5072590  38.3051490  69.2155690  90.8420660  39.4557760
  73.0209360  96.6065750  42.8430630  72.6452960  95.8393680  42.4111920
  72.2912480  96.9888450  43.3305560  57.6105120  97.2852890  49.4639680
  57.9778160  97.1980290  50.3435700  57.0415940  96.5219440  49.3646540
  72.4108980  95.7537270  52.4770150  72.1795070  95.5250020  51.5768100
  72.6713530  96.6736820  52.4315040  57.1621120  94.1961980  53.3698100
  56.2677170  94.1628740  53.7091810  57.7018670  94.3948770  54.1349350
  55.7867270  94.1099250  40.8661670  54.8831350  94.3729450  40.6913330
  56.2707890  94.3810420  40.0861630  72.2960320  94.8323240  46.1437870
  72.8197800  94.3385890  45.5128040  72.8819740  94.9673600  46.8885440
  72.4750040  94.9163110  49.6657420  71.5252750  94.8826650  49.7802410
  72.6563050  95.8263220  49.4307190  58.3294480  93.1664790  38.7756050
  59.0386180  92.7448010  38.2903330  57.6134420  93.2340020  38.1439400
  57.9768640  89.2204120  37.8158700  58.6996770  89.7613060  38.1339920
  58.2493160  88.9467540  36.9400240  71.7860290  94.0896590  42.0830280
  72.2819410  93.8567460  42.8679160  71.5876360  93.2508430  41.6667920
  57.6660830  88.4710310  47.7181320  58.3137020  87.9207690  47.2776480
  58.0862670  88.7253460  48.5397130  73.2147450  92.7257540  44.6167960
  73.1046730  92.5713580  45.5550230  73.9755040  92.1978480  44.3743370
  71.5613170  88.6651670  51.0750960  72.1985390  89.2785810  51.4410150
  71.7088060  88.7012330  50.1300190  74.1037720  90.5565460  37.8574100
  75.0287030  90.4246640  37.6492390  74.0813510  90.6358280  38.8110550
  74.1776210  91.3276120  40.4830810  73.3827710  91.2621240  41.0123720
  74.3819490  92.2626760  40.4716160  57.4192830  88.6265980  50.4606640
  57.0707650  89.0829800  51.2264820  57.0880530  87.7323110  50.5429070
  68.3100250  88.0380060  49.9487640  67.4360090  88.3715170  49.7460570
  68.2011000  87.5653240  50.7739510  69.2172230  90.2450930  51.3329360
  68.8885590  89.4302690  50.9531090  70.1654530  90.2020740  51.2095050
  66.0575070  88.9549900  48.8880550  65.2746860  89.4295400  49.1677310
  65.7638000  88.0504730  48.7793730  70.6096140  89.6573000  46.9329640
  71.0504230  89.6018100  46.0851240  70.3403730  90.5731010  47.0039820
  72.4734710  89.2888240  44.9438460  72.4123110  88.3449460  44.7969480
  73.2526740  89.3968330  45.4891920  57.4015480  89.2597380  41.4094270
  58.1594840  89.3726260  40.8358300  56.9392650  90.0966580  41.3637700
  63.9429290  91.3736650  44.3996580  63.1303800  90.9993540  44.0592460
  64.4470930  90.6181730  44.7017770  68.4454270  88.0379100  45.6379650
  69.0483640  88.6099310  46.1128170  67.7047260  88.6018540  45.4153550
  71.5888870  88.4400660  40.9119930  71.7839500  89.3384110  41.1787360
  70.8018740  88.2087740  41.4052880  59.7740630  89.7861430  39.9496240
  60.3033390  88.9991230  39.8204190  60.4068950  90.4652620  40.1831770
  61.9678470  89.5236570  43.0041630  61.3381210  88.8223880  43.1711760
  61.4283610  90.2840700  42.7874790  67.6007640  96.2366600  26.3809330
  67.5201690  95.3221210  26.1101040  67.1872060  96.7333670  25.6749040
  65.7325680  98.0145620  28.2618600  64.9567780  97.5346060  28.5517170
  66.3838610  97.3351270  28.0874760  59.7491510  98.3265430  29.1394360
  58.9176390  98.0714140  29.5390870  60.3572490  98.3976200  29.8752280
  58.1583460  93.2867320  22.9236750  57.2700160  93.6283290  22.8216630
  58.4424650  93.0867640  22.0317580  56.1216470  95.8872970  28.8076450
  56.6932580  95.1195170  28.8080090  56.1218010  96.1861730  27.8983060
  57.3641340  91.2957330  30.5945380  57.1844180  90.3983080  30.8748140
  56.9621420  91.8429200  31.2692330  66.2039840  93.4973190  28.4957690
  66.5804660  92.6245070  28.3831360  66.1059350  93.8331890  27.6048130
  60.3344850  91.8698820  23.9575130  60.4411600  92.7702550  24.2643890
  59.4237210  91.8216790  23.6669780  69.9863960  90.9923630  25.4286030
  70.8073580  90.5020200  25.4711510  70.0198040  91.5821290  26.1817870
  57.9828010  93.7917830  29.2027720  58.6638120  94.0556200  29.8215120
  57.6676060  92.9518700  29.5365730  62.1752580  94.8385190  28.2900310
  62.6830800  95.3366160  28.9305330  62.7065820  94.0620390  28.1139670
  74.2763510  93.0090380  31.9929660  73.5715680  93.3972090  31.4744770
  74.5421430  93.7040670  32.5950590  60.4588680  89.4783750  32.5563730
  60.4607120  89.9956140  31.7509630  59.6292990  89.0013930  32.5333660
  70.2225440  92.9324010  28.2013570  69.5181010  93.2208900  28.7816680
  70.5837600  93.7424120  27.8413130  60.1404010  91.1893710  30.5634180
  60.4820820  92.0335760  30.2688050  59.2019820  91.3377450  30.6799520
  73.2912360  92.3778800  28.5922780  72.3437270  92.4117780  28.7238210
  73.6162350  93.1917750  28.9772140  63.8231900  88.6775980  26.8878770
  64.1306880  88.1222870  26.1714270  62.8932600  88.8120440  26.7051760
  66.2112660  96.7424810  23.6238890  65.2841940  96.6762190  23.8527360
  66.3637480  97.6804940  23.5094130  66.1981740  93.0141810  20.6206050
  65.2585410  93.1755770  20.7058510  66.5165000  93.7327490  20.0742040
  72.7194500  97.6960330  30.5985080  71.8913130  97.7653420  30.1235210
  73.3144980  98.2814640  30.1300910  70.2409950  98.3045110  24.1274140
  69.6222370  97.9664660  23.4800440  70.2234400  97.6604870  24.8353330
  69.6836510  94.4829650  31.5439950  69.2707690  95.3083360  31.7979940
  68.9512460  93.8974690  31.3516310  61.8169300  97.2689550  26.4058620
  61.4126300  96.5566800  25.9104520  61.9032420  96.9242790  27.2946660
  60.5297920  94.0432760  30.1857660  61.0812510  94.1528100  29.4110910
  61.0441430  94.4170360  30.9012890  68.4174650  97.5431920  21.1346890
  68.8567930  96.7054350  20.9884710  69.1303070  98.1761320  21.2211030
  60.2040650  97.5652120  33.7963000  60.0648420  98.4374920  34.1650400
  59.3222010  97.2224930  33.6510940  71.9991790  88.7974730  19.4487930
  71.6864450  88.8901560  20.3487000  72.7604260  89.3755760  19.3985360
  58.5173930  96.1634530  23.9065270  58.3971530  96.8896620  23.2946540
  58.2074820  95.3937440  23.4293180  73.2093080  93.5346230  35.4262070
  72.5937350  94.0425900  34.8977530  72.8889500  92.6344560  35.3688010
  60.9837590  89.5069600  27.2888940  60.5405740  90.2879140  26.9573460
  61.5422580  89.8299490  27.9959880  65.2707400  92.3738120  32.8924260
  64.8086770  92.5821140  33.7044200  64.8685510  91.5597470  32.5894930
  70.2711910  93.5947070  34.0220920  69.4205500  93.2952820  34.3429990
  70.1113700  93.8389080  33.1104740  67.3661620  95.0948820  36.1219710
  67.6915030  94.2612570  35.7821940  68.1541950  95.6177340  36.2698040
  64.0996410  89.1280300  22.1694770  63.4750590  89.1240170  22.8948080
  64.0126530  88.2611260  21.7730740  63.0213490  90.0516930  29.1478540
  63.3185820  90.9579760  29.0670560  63.5699050  89.5635710  28.5338110
  60.7751810  94.6303170  25.0170190  60.5492730  94.4140340  25.9216810
  59.9944340  95.0631630  24.6716160  68.0049570  94.6366540  23.6160840
  67.4058460  95.3602340  23.4324460  68.5529180  94.5743320  22.8337290
  63.2151020  95.5288750  35.6830460  63.1194620  94.5883480  35.5330860
  64.0583000  95.7503820  35.2878530  66.6114440  93.2730080  25.6464120
  67.0044010  93.5902280  24.8332810  66.9731290  92.3941960  25.7608640
  58.3461560  91.9402420  33.8364240  57.9524950  92.7877630  34.0437020
  57.6579960  91.3028790  34.0272880  64.9206610  92.0237390  36.9060980
  64.2304930  91.8309590  37.5407070  65.6638910  92.3072030  37.4385280
  55.6478610  89.8630880  27.8694320  55.3591660  90.4333740  28.5819300
  56.3924370  89.3835330  28.2325550  55.8348840  93.8051000  19.0797040
  55.7523510  94.7481760  19.2212030  55.4831900  93.6625910  18.2009390
  67.1969580  95.8635830  29.7414900  66.4650700  96.3722640  30.0905000
  66.7993920  95.0465810  29.4403680  63.6346970  92.5390030  28.1467390
  63.6383030  92.0979980  27.2971930  64.5298090  92.8607360  28.2539210
  59.4849350  92.4216520  27.1061600  59.1449400  92.8991750  27.8628650
  58.7226670  91.9681640  26.7462700  63.6967120  93.5402110  21.1374150
  63.8179940  93.4988590  22.0859970  63.3115630  94.4026260  20.9820880
  67.6595490  91.3169510  29.1537840  67.6768230  91.7678160  29.9979690
  67.4111070  90.4175150  29.3671280  62.7088620  95.8503250  20.5357450
  62.1405520  95.4021500  19.9093360  63.4177620  96.2096030  20.0022600
  71.0866240  88.7301690  34.9924220  71.4112010  87.9991350  35.5182200
  71.1222750  88.4115330  34.0905210  63.9354940  96.5991810  29.8932800
  64.3025070  96.1250380  30.6394140  63.7460000  97.4733380  30.2341140
  56.7995430  91.3435500  26.0226270  56.5142350  90.9791170  26.8604890
  56.7374290  90.6115960  25.4089410  61.7254310  95.6400450  32.2117010
  61.4211380  96.5192430  32.4367370  62.6800770  95.7000240  32.2474450
  66.4734020  90.2364760  22.7439640  65.6598630  89.7377930  22.6684950
  66.2795970  91.0763010  22.3275990  69.1882410  94.6084410  21.0401800
  70.0762030  94.9201640  20.8653140  69.1587500  93.7356660  20.6482380
  57.7818040  96.4803190  33.3588370  57.4232980  97.1457040  33.9461710
  57.4872600  95.6486740  33.7300990  60.9831160  96.9387430  36.2427920
  60.6831300  97.0844610  35.3455740  61.7542400  96.3792720  36.1501310
  71.4596680  95.9196250  20.5081660  71.3760400  96.3510470  19.6578100
  72.1790870  96.3794600  20.9408480  56.2926090  96.4794450  19.9822970
  57.1620940  96.7619250  20.2658890  55.8016410  97.2930320  19.8671780
  59.3572680  88.2105310  24.5753770  59.2287310  88.2023210  25.5238690
  58.5334700  88.5488400  24.2244780  56.3566610  89.9696430  34.0360470
  55.6425130  90.1693350  34.6413080  56.7761650  89.1936000  34.4075270
  67.8505390  92.4618740  31.7861920  68.2186210  91.6413950  32.1141490
  66.9903590  92.5220630  32.2017570  71.2167420  91.4175680  22.5949480
  70.5880580  91.5221350  21.8807710  70.7219340  91.6372460  23.3843360
  63.1851450  93.6961630  24.0107360  62.4767600  94.1647970  24.4520970
  63.4695930  93.0383640  24.6452550  64.8107380  95.1158330  32.0099890
  65.3092630  95.5904150  32.6751740  64.9530330  94.1921850  32.2169920
  67.2166880  90.4212290  25.4503150  67.0934660  90.4398420  24.5012660
  68.1651440  90.4691230  25.5701550  61.3886470  92.0046710  21.3858070
  62.2377000  92.4416860  21.3198260  61.0217740  92.3166970  22.2130130
  72.0174240  91.3326290  32.8528280  71.5147840  92.0731690  33.1922090
  72.8330900  91.7210290  32.5365070  70.3096250  96.5759470  26.2989640
  69.3686390  96.5909700  26.4737330  70.6240320  95.7895430  26.7449940
  60.2877890  98.2579070  19.8593600  61.0541160  98.1460430  20.4219030
  60.3652580  97.5617040  19.2070370  58.9824650  95.6904140  20.5426490
  59.0628240  94.7431650  20.6543890  59.8744400  96.0211020  20.6487150
  56.5095450  97.5119060  35.7782660  57.0134470  96.9326340  36.3498890
  55.7702870  97.7959290  36.3159030  58.5418530  95.6548650  36.6732730
  58.5823870  95.3562520  37.5817960  59.3964030  96.0556260  36.5140250
  62.3196920  98.2544200  21.8336240  62.7413340  98.0884070  22.6767630
  62.4447760  97.4444430  21.3391380  60.4824340  94.2340750  34.6407220
  59.9520800  93.7431700  34.0130560  61.1512410  94.6624950  34.1065150
  64.8324560  97.2781810  19.0813340  65.3530220  96.5630830  18.7154490
  65.4792960  97.9167680  19.3813850  69.8524570  96.0406370  36.4087560
  70.4345340  95.2858690  36.3208040  70.0286340  96.5713810  35.6319040
  60.9696640  91.2003120  34.7204510  60.8753510  90.5823870  33.9955380
  60.3894030  91.9269410  34.4934420  63.7358080  89.7576360  31.7531900
  63.2875380  89.7800620  30.9077450  63.1023280  89.3595380  32.3502200
  66.4781530  96.3846870  33.7582180  66.5977740  95.7888010  34.4977020
  67.3375530  96.4216560  33.3383480  68.8169430  96.9384060  32.3344690
  68.2904650  97.4626680  31.7309830  69.1600770  97.5711450  32.9654420
  61.2155820  94.3277430  18.7794400  61.0144880  93.4644790  19.1407740
  61.0447870  94.2410790  17.8416000  63.2450300  92.9268220  35.0158000
  63.8349990  92.6184070  35.7035820  62.4270540  92.4547970  35.1717900
  68.0643730  92.5434030  35.2491020  67.3759250  91.8815570  35.1841010
  68.7849750  92.0972300  35.6939480  68.6944130  89.1385660  21.3081280
  68.9746420  88.2953560  21.6640700  67.9209860  89.3708770  21.8220030
  60.0138620  91.4278050  18.7672280  60.3164520  91.4345480  17.8591430
  60.7533210  91.0775910  19.2639940  63.2323550  90.3712670  19.7528480
  62.8845550  89.6936660  19.1730930  63.4336320  89.9102180  20.5671870
  56.5729190  96.9000320  26.1492850  55.9178030  96.6311960  25.5052550
  57.4107140  96.7904800  25.6994830  69.5219630  91.6941610  20.3711340
  69.9404510  91.5072590  19.5308000  69.2155690  90.8420660  20.6814270
  73.0209360  96.6065750  24.0687140  72.6452960  95.8393680  23.6368430
  72.2912480  96.9888450  24.5562070  57.6105120  97.2852890  30.6896190
  57.9778160  97.1980290  31.5692210  57.0415940  96.5219440  30.5903050
  72.4108980  95.7537270  33.7026660  72.1795070  95.5250020  32.8024610
  72.6713530  96.6736820  33.6571550  57.1621120  94.1961980  34.5954610
  56.2677170  94.1628740  34.9348320  57.7018670  94.3948770  35.3605860
  70.8497050  90.9793700  36.4806360  71.7267230  90.9877100  36.8640360
  70.8617890  90.2424540  35.8698710  55.7867270  94.1099250  22.0918180
  54.8831350  94.3729450  21.9169840  56.2707890  94.3810420  21.3118140
  72.2960320  94.8323240  27.3694380  72.8197800  94.3385890  26.7384550
  72.8819740  94.9673600  28.1141950  72.4750040  94.9163110  30.8913930
  71.5252750  94.8826650  31.0058920  72.6563050  95.8263220  30.6563700
  58.3294480  93.1664790  20.0012560  59.0386180  92.7448010  19.5159840
  57.6134420  93.2340020  19.3695910  57.9768640  89.2204120  19.0415210
  58.6996770  89.7613060  19.3596430  58.2493160  88.9467540  18.1656750
  71.7860290  94.0896590  23.3086790  72.2819410  93.8567460  24.0935670
  71.5876360  93.2508430  22.8924430  57.6660830  88.4710310  28.9437830
  58.3137020  87.9207690  28.5032990  58.0862670  88.7253460  29.7653640
  73.2147450  92.7257540  25.8424470  73.1046730  92.5713580  26.7806740
  73.9755040  92.1978480  25.5999880  71.5613170  88.6651670  32.3007470
  72.1985390  89.2785810  32.6666660  71.7088060  88.7012330  31.3556700
  74.1037720  90.5565460  19.0830610  75.0287030  90.4246640  18.8748900
  74.0813510  90.6358280  20.0367060  74.1776210  91.3276120  21.7087320
  73.3827710  91.2621240  22.2380230  74.3819490  92.2626760  21.6972670
  57.4192830  88.6265980  31.6863150  57.0707650  89.0829800  32.4521330
  57.0880530  87.7323110  31.7685580  64.9317650  89.8177860  35.2082570
  64.8706540  90.4099690  35.9577980  65.8718030  89.7103820  35.0632830
  67.5692210  89.4747920  34.8474860  68.1832620  89.7927210  34.1855940
  68.1141770  88.9896510  35.4670720  58.0913470  88.1542180  34.9613920
  58.6396460  87.9730230  34.1980030  58.1568780  87.3636290  35.4970230
  68.3100250  88.0380060  31.1744150  67.4360090  88.3715170  30.9717080
  68.2011000  87.5653240  31.9996020  69.2172230  90.2450930  32.5585870
  68.8885590  89.4302690  32.1787600  70.1654530  90.2020740  32.4351560
  66.0575070  88.9549900  30.1137060  65.2746860  89.4295400  30.3933820
  65.7638000  88.0504730  30.0050240  70.6096140  89.6573000  28.1586150
  71.0504230  89.6018100  27.3107750  70.3403730  90.5731010  28.2296330
  72.4734710  89.2888240  26.1694970  72.4123110  88.3449460  26.0225990
  73.2526740  89.3968330  26.7148430  57.4015480  89.2597380  22.6350780
  58.1594840  89.3726260  22.0614810  56.9392650  90.0966580  22.5894210
  63.9429290  91.3736650  25.6253090  63.1303800  90.9993540  25.2848970
  64.4470930  90.6181730  25.9274280  68.4454270  88.0379100  26.8636160
  69.0483640  88.6099310  27.3384680  67.7047260  88.6018540  26.6410060
  71.5888870  88.4400660  22.1376440  71.7839500  89.3384110  22.4043870
  70.8018740  88.2087740  22.6309390  59.7740630  89.7861430  21.1752750
  60.3033390  88.9991230  21.0460700  60.4068950  90.4652620  21.4088280
  61.9678470  89.5236570  24.2298140  61.3381210  88.8223880  24.3968270
  61.4283610  90.2840700  24.0131300  62.0934030  88.8020550  36.6650630
  61.8118300  89.3054150  35.9011450  62.4753730  88.0042300  36.2992760
  68.6949490  88.2174130  37.2431100  68.5814940  88.5368740  38.1382620
  69.5119230  88.6186640  36.9468380  67.6007640  96.2366600   7.6065840
  67.5201690  95.3221210   7.3357550  67.1872060  96.7333670   6.9005550
  65.7325680  98.0145620   9.4875110  64.9567780  97.5346060   9.7773680
  66.3838610  97.3351270   9.3131270  59.7491510  98.3265430  10.3650870
  58.9176390  98.0714140  10.7647380  60.3572490  98.3976200  11.1008790
  58.1583460  93.2867320   4.1493260  57.2700160  93.6283290   4.0473140
  58.4424650  93.0867640   3.2574090  56.1216470  95.8872970  10.0332960
  56.6932580  95.1195170  10.0336600  56.1218010  96.1861730   9.1239570
  57.3641340  91.2957330  11.8201890  57.1844180  90.3983080  12.1004650
  56.9621420  91.8429200  12.4948840  66.2039840  93.4973190   9.7214200
  66.5804660  92.6245070   9.6087870  66.1059350  93.8331890   8.8304640
  60.3344850  91.8698820   5.1831640  60.4411600  92.7702550   5.4900400
  59.4237210  91.8216790   4.8926290  69.9863960  90.9923630   6.6542540
  70.8073580  90.5020200   6.6968020  70.0198040  91.5821290   7.4074380
  57.9828010  93.7917830  10.4284230  58.6638120  94.0556200  11.0471630
  57.6676060  92.9518700  10.7622240  62.1752580  94.8385190   9.5156820
  62.6830800  95.3366160  10.1561840  62.7065820  94.0620390   9.3396180
  74.2763510  93.0090380  13.2186170  73.5715680  93.3972090  12.7001280
  74.5421430  93.7040670  13.8207100  60.4588680  89.4783750  13.7820240
  60.4607120  89.9956140  12.9766140  59.6292990  89.0013930  13.7590170
  70.2225440  92.9324010   9.4270080  69.5181010  93.2208900  10.0073190
  70.5837600  93.7424120   9.0669640  60.1404010  91.1893710  11.7890690
  60.4820820  92.0335760  11.4944560  59.2019820  91.3377450  11.9056030
  73.2912360  92.3778800   9.8179290  72.3437270  92.4117780   9.9494720
  73.6162350  93.1917750  10.2028650  63.8231900  88.6775980   8.1135280
  64.1306880  88.1222870   7.3970780  62.8932600  88.8120440   7.9308270
  66.2112660  96.7424810   4.8495400  65.2841940  96.6762190   5.0783870
  66.3637480  97.6804940   4.7350640  72.7194500  97.6960330  11.8241590
  71.8913130  97.7653420  11.3491720  73.3144980  98.2814640  11.3557420
  70.2409950  98.3045110   5.3530650  69.6222370  97.9664660   4.7056950
  70.2234400  97.6604870   6.0609840  69.6836510  94.4829650  12.7696460
  69.2707690  95.3083360  13.0236450  68.9512460  93.8974690  12.5772820
  61.8169300  97.2689550   7.6315130  61.4126300  96.5566800   7.1361030
  61.9032420  96.9242790   8.5203170  60.5297920  94.0432760  11.4114170
  61.0812510  94.1528100  10.6367420  61.0441430  94.4170360  12.1269400
  68.4174650  97.5431920   2.3603400  68.8567930  96.7054350   2.2141220
  69.1303070  98.1761320   2.4467540  60.2040650  97.5652120  15.0219510
  60.0648420  98.4374920  15.3906910  59.3222010  97.2224930  14.8767450
  58.5173930  96.1634530   5.1321780  58.3971530  96.8896620   4.5203050
  58.2074820  95.3937440   4.6549690  73.2093080  93.5346230  16.6518580
  72.5937350  94.0425900  16.1234040  72.8889500  92.6344560  16.5944520
  60.9837590  89.5069600   8.5145450  60.5405740  90.2879140   8.1829970
  61.5422580  89.8299490   9.2216390  65.2707400  92.3738120  14.1180770
  64.8086770  92.5821140  14.9300710  64.8685510  91.5597470  13.8151440
  70.2711910  93.5947070  15.2477430  69.4205500  93.2952820  15.5686500
  70.1113700  93.8389080  14.3361250  67.3661620  95.0948820  17.3476220
  67.6915030  94.2612570  17.0078450  68.1541950  95.6177340  17.4954550
  64.0996410  89.1280300   3.3951280  63.4750590  89.1240170   4.1204590
  64.0126530  88.2611260   2.9987250  63.0213490  90.0516930  10.3735050
  63.3185820  90.9579760  10.2927070  63.5699050  89.5635710   9.7594620
  60.7751810  94.6303170   6.2426700  60.5492730  94.4140340   7.1473320
  59.9944340  95.0631630   5.8972670  68.0049570  94.6366540   4.8417350
  67.4058460  95.3602340   4.6580970  68.5529180  94.5743320   4.0593800
  63.2151020  95.5288750  16.9086970  63.1194620  94.5883480  16.7587370
  64.0583000  95.7503820  16.5135040  66.6114440  93.2730080   6.8720630
  67.0044010  93.5902280   6.0589320  66.9731290  92.3941960   6.9865150
  58.3461560  91.9402420  15.0620750  57.9524950  92.7877630  15.2693530
  57.6579960  91.3028790  15.2529390  64.9206610  92.0237390  18.1317490
  64.2304930  91.8309590  18.7663580  65.6638910  92.3072030  18.6641790
  55.6478610  89.8630880   9.0950830  55.3591660  90.4333740   9.8075810
  56.3924370  89.3835330   9.4582060  67.1969580  95.8635830  10.9671410
  66.4650700  96.3722640  11.3161510  66.7993920  95.0465810  10.6660190
  63.6346970  92.5390030   9.3723900  63.6383030  92.0979980   8.5228440
  64.5298090  92.8607360   9.4795720  59.4849350  92.4216520   8.3318110
  59.1449400  92.8991750   9.0885160  58.7226670  91.9681640   7.9719210
  63.6967120  93.5402110   2.3630660  63.8179940  93.4988590   3.3116480
  63.3115630  94.4026260   2.2077390  67.6595490  91.3169510  10.3794350
  67.6768230  91.7678160  11.2236200  67.4111070  90.4175150  10.5927790
  71.0866240  88.7301690  16.2180730  71.4112010  87.9991350  16.7438710
  71.1222750  88.4115330  15.3161720  63.9354940  96.5991810  11.1189310
  64.3025070  96.1250380  11.8650650  63.7460000  97.4733380  11.4597650
  56.7995430  91.3435500   7.2482780  56.5142350  90.9791170   8.0861400
  56.7374290  90.6115960   6.6345920  61.7254310  95.6400450  13.4373520
  61.4211380  96.5192430  13.6623880  62.6800770  95.7000240  13.4730960
  66.4734020  90.2364760   3.9696150  65.6598630  89.7377930   3.8941460
  66.2795970  91.0763010   3.5532500  69.1882410  94.6084410   2.2658310
  70.0762030  94.9201640   2.0909650  69.1587500  93.7356660   1.8738890
  57.7818040  96.4803190  14.5844880  57.4232980  97.1457040  15.1718220
  57.4872600  95.6486740  14.9557500  60.9831160  96.9387430  17.4684430
  60.6831300  97.0844610  16.5712250  61.7542400  96.3792720  17.3757820
  59.3572680  88.2105310   5.8010280  59.2287310  88.2023210   6.7495200
  58.5334700  88.5488400   5.4501290  56.3566610  89.9696430  15.2616980
  55.6425130  90.1693350  15.8669590  56.7761650  89.1936000  15.6331780
  67.8505390  92.4618740  13.0118430  68.2186210  91.6413950  13.3398000
  66.9903590  92.5220630  13.4274080  71.2167420  91.4175680   3.8205990
  70.5880580  91.5221350   3.1064220  70.7219340  91.6372460   4.6099870
  63.1851450  93.6961630   5.2363870  62.4767600  94.1647970   5.6777480
  63.4695930  93.0383640   5.8709060  64.8107380  95.1158330  13.2356400
  65.3092630  95.5904150  13.9008250  64.9530330  94.1921850  13.4426430
  67.2166880  90.4212290   6.6759660  67.0934660  90.4398420   5.7269170
  68.1651440  90.4691230   6.7958060  61.3886470  92.0046710   2.6114580
  62.2377000  92.4416860   2.5454770  61.0217740  92.3166970   3.4386640
  72.0174240  91.3326290  14.0784790  71.5147840  92.0731690  14.4178600
  72.8330900  91.7210290  13.7621580  70.3096250  96.5759470   7.5246150
  69.3686390  96.5909700   7.6993840  70.6240320  95.7895430   7.9706450
  58.9824650  95.6904140   1.7683000  59.0628240  94.7431650   1.8800400
  59.8744400  96.0211020   1.8743660  56.5095450  97.5119060  17.0039170
  57.0134470  96.9326340  17.5755400  55.7702870  97.7959290  17.5415540
  58.5418530  95.6548650  17.8989240  58.5823870  95.3562520  18.8074470
  59.3964030  96.0556260  17.7396760  62.3196920  98.2544200   3.0592750
  62.7413340  98.0884070   3.9024140  62.4447760  97.4444430   2.5647890
  60.4824340  94.2340750  15.8663730  59.9520800  93.7431700  15.2387070
  61.1512410  94.6624950  15.3321660  69.8524570  96.0406370  17.6344070
  70.4345340  95.2858690  17.5464550  70.0286340  96.5713810  16.8575550
  60.9696640  91.2003120  15.9461020  60.8753510  90.5823870  15.2211890
  60.3894030  91.9269410  15.7190930  63.7358080  89.7576360  12.9788410
  63.2875380  89.7800620  12.1333960  63.1023280  89.3595380  13.5758710
  66.4781530  96.3846870  14.9838690  66.5977740  95.7888010  15.7233530
  67.3375530  96.4216560  14.5639990  68.8169430  96.9384060  13.5601200
  68.2904650  97.4626680  12.9566340  69.1600770  97.5711450  14.1910930
  63.2450300  92.9268220  16.2414510  63.8349990  92.6184070  16.9292330
  62.4270540  92.4547970  16.3974410  68.0643730  92.5434030  16.4747530
  67.3759250  91.8815570  16.4097520  68.7849750  92.0972300  16.9195990
  68.6944130  89.1385660   2.5337790  68.9746420  88.2953560   2.8897210
  67.9209860  89.3708770   3.0476540  56.5729190  96.9000320   7.3749360
  55.9178030  96.6311960   6.7309060  57.4107140  96.7904800   6.9251340
  73.0209360  96.6065750   5.2943650  72.6452960  95.8393680   4.8624940
  72.2912480  96.9888450   5.7818580  57.6105120  97.2852890  11.9152700
  57.9778160  97.1980290  12.7948720  57.0415940  96.5219440  11.8159560
  72.4108980  95.7537270  14.9283170  72.1795070  95.5250020  14.0281120
  72.6713530  96.6736820  14.8828060  57.1621120  94.1961980  15.8211120
  56.2677170  94.1628740  16.1604830  57.7018670  94.3948770  16.5862370
  70.8497050  90.9793700  17.7062870  71.7267230  90.9877100  18.0896870
  70.8617890  90.2424540  17.0955220  55.7867270  94.1099250   3.3174690
  54.8831350  94.3729450   3.1426350  56.2707890  94.3810420   2.5374650
  72.2960320  94.8323240   8.5950890  72.8197800  94.3385890   7.9641060
  72.8819740  94.9673600   9.3398460  72.4750040  94.9163110  12.1170440
  71.5252750  94.8826650  12.2315430  72.6563050  95.8263220  11.8820210
  71.7860290  94.0896590   4.5343300  72.2819410  93.8567460   5.3192180
  71.5876360  93.2508430   4.1180940  57.6660830  88.4710310  10.1694340
  58.3137020  87.9207690   9.7289500  58.0862670  88.7253460  10.9910150
  73.2147450  92.7257540   7.0680980  73.1046730  92.5713580   8.0063250
  73.9755040  92.1978480   6.8256390  71.5613170  88.6651670  13.5263980
  72.1985390  89.2785810  13.8923170  71.7088060  88.7012330  12.5813210
  74.1776210  91.3276120   2.9343830  73.3827710  91.2621240   3.4636740
  74.3819490  92.2626760   2.9229180  57.4192830  88.6265980  12.9119660
  57.0707650  89.0829800  13.6777840  57.0880530  87.7323110  12.9942090
  64.9317650  89.8177860  16.4339080  64.8706540  90.4099690  17.1834490
  65.8718030  89.7103820  16.2889340  67.5692210  89.4747920  16.0731370
  68.1832620  89.7927210  15.4112450  68.1141770  88.9896510  16.6927230
  58.0913470  88.1542180  16.1870430  58.6396460  87.9730230  15.4236540
  58.1568780  87.3636290  16.7226740  68.3100250  88.0380060  12.4000660
  67.4360090  88.3715170  12.1973590  68.2011000  87.5653240  13.2252530
  69.2172230  90.2450930  13.7842380  68.8885590  89.4302690  13.4044110
  70.1654530  90.2020740  13.6608070  66.0575070  88.9549900  11.3393570
  65.2746860  89.4295400  11.6190330  65.7638000  88.0504730  11.2306750
  70.6096140  89.6573000   9.3842660  71.0504230  89.6018100   8.5364260
  70.3403730  90.5731010   9.4552840  72.4734710  89.2888240   7.3951480
  72.4123110  88.3449460   7.2482500  73.2526740  89.3968330   7.9404940
  57.4015480  89.2597380   3.8607290  58.1594840  89.3726260   3.2871320
  56.9392650  90.0966580   3.8150720  63.9429290  91.3736650   6.8509600
  63.1303800  90.9993540   6.5105480  64.4470930  90.6181730   7.1530790
  68.4454270  88.0379100   8.0892670  69.0483640  88.6099310   8.5641190
  67.7047260  88.6018540   7.8666570  71.5888870  88.4400660   3.3632950
  71.7839500  89.3384110   3.6300380  70.8018740  88.2087740   3.8565900
  59.7740630  89.7861430   2.4009260  60.3033390  88.9991230   2.2717210
  60.4068950  90.4652620   2.6344790  61.9678470  89.5236570   5.4554650
  61.3381210  88.8223880   5.6224780  61.4283610  90.2840700   5.2387810
  62.0934030  88.8020550  17.8907140  61.8118300  89.3054150  17.1267960
  62.4753730  88.0042300  17.5249270  68.6949490  88.2174130  18.4687610
  68.5814940  88.5368740  19.3639130  69.5119230  88.6186640  18.1724890
  67.6007640  77.4623110  45.1552820  67.5201690  76.5477720  44.8844530
  67.1872060  77.9590180  44.4492530  65.7325680  79.2402130  47.0362090
  64.9567780  78.7602570  47.3260660  66.3838610  78.5607780  46.8618250
  59.7491510  79.5521940  47.9137850  58.9176390  79.2970650  48.3134360
  60.3572490  79.6232710  48.6495770  69.7533110  83.6462320  45.8161220
  69.2914640  82.8749560  46.1448390  70.5658660  83.6728390  46.3213670
  59.7292770  83.5862030  48.1095870  60.0320810  82.6959770  47.9306090
  60.4736360  84.1432250  47.8818120  58.1583460  74.5123830  41.6980240
  57.2700160  74.8539800  41.5960120  58.4424650  74.3124150  40.8061070
  56.1216470  77.1129480  47.5819940  56.6932580  76.3451680  47.5823580
  56.1218010  77.4118240  46.6726550  65.9796420  85.9320330  45.4365210
  65.3607860  86.3877830  44.8659650  66.8348200  86.0871790  45.0354910
  65.1734670  81.9159320  47.0432250  65.1042950  80.9749260  46.8821380
  65.9354530  82.0060730  47.6154820  57.3641340  72.5213840  49.3688870
  57.1844180  71.6239590  49.6491630  56.9621420  73.0685710  50.0435820
  66.2039840  74.7229700  47.2701180  66.5804660  73.8501580  47.1574850
  66.1059350  75.0588400  46.3791620  60.3344850  73.0955330  42.7318620
  60.4411600  73.9959060  43.0387380  59.4237210  73.0473300  42.4413270
  69.9863960  72.2180140  44.2029520  70.8073580  71.7276710  44.2455000
  70.0198040  72.8077800  44.9561360  57.9828010  75.0174340  47.9771210
  58.6638120  75.2812710  48.5958610  57.6676060  74.1775210  48.3109220
  62.1752580  76.0641700  47.0643800  62.6830800  76.5622670  47.7048820
  62.7065820  75.2876900  46.8883160  74.2763510  74.2346890  50.7673150
  73.5715680  74.6228600  50.2488260  74.5421430  74.9297180  51.3694080
  60.4588680  70.7040260  51.3307220  60.4607120  71.2212650  50.5253120
  59.6292990  70.2270440  51.3077150  66.8459770  80.8159570  42.8297120
  66.2277040  81.2809020  42.2659840  67.3583020  81.5087050  43.2466630
  61.7091530  80.3435440  49.5080720  61.3760910  80.9704360  50.1501790
  61.8858210  80.8697320  48.7282390  70.2225440  74.1580520  46.9757060
  69.5181010  74.4465410  47.5560170  70.5837600  74.9680630  46.6156620
  60.1404010  72.4150220  49.3377670  60.4820820  73.2592270  49.0431540
  59.2019820  72.5633960  49.4543010  60.9210630  82.3116240  51.3229900
  61.5384630  82.9867320  51.0414350  60.0603750  82.7204220  51.2317400
  56.2142970  81.5016100  40.2036750  55.8370950  81.9903200  39.4721650
  56.4716040  82.1741380  40.8343280  71.8388220  83.7755650  49.2384540
  71.1551740  84.4454760  49.2301210  72.3782510  83.9736300  48.4729400
  73.2912360  73.6035310  47.3666270  72.3437270  73.6374290  47.4981700
  73.6162350  74.4174260  47.7515630  63.8231900  69.9032490  45.6622260
  64.1306880  69.3479380  44.9457760  62.8932600  70.0376950  45.4795250
  69.3746960  85.6199780  47.9529720  69.3874120  85.2162070  47.0851980
  68.8222180  86.3947070  47.8491150  70.6692380  82.3416000  43.0419890
  70.5588710  81.3990330  43.1669310  70.6660630  82.7031640  43.9282650
  68.7732400  80.5229620  49.2812330  69.1901190  80.3089730  48.4465790
  69.4972220  80.7802410  49.8520950  66.2112660  77.9681320  42.3982380
  65.2841940  77.9018700  42.6270850  66.3637480  78.9061450  42.2837620
  66.1981740  74.2398320  39.3949540  65.2585410  74.4012280  39.4802000
  66.5165000  74.9584000  38.8485530  72.7194500  78.9216840  49.3728570
  71.8913130  78.9909930  48.8978700  73.3144980  79.5071150  48.9044400
  70.2409950  79.5301620  42.9017630  69.6222370  79.1921170  42.2543930
  70.2234400  78.8861380  43.6096820  69.6836510  75.7086160  50.3183440
  69.2707690  76.5339870  50.5723430  68.9512460  75.1231200  50.1259800
  61.8169300  78.4946060  45.1802110  61.4126300  77.7823310  44.6848010
  61.9032420  78.1499300  46.0690150  62.2851000  82.1813620  47.3441320
  61.9879290  81.5759090  46.6649100  63.2350820  82.2190930  47.2330680
  60.5297920  75.2689270  48.9601150  61.0812510  75.3784610  48.1854400
  61.0441430  75.6426870  49.6756380  70.3736610  85.7545490  51.0064420
  69.8967170  86.5617680  50.8137030  69.6898400  85.1023820  51.1590630
  68.4174650  78.7688430  39.9090380  68.8567930  77.9310860  39.7628200
  69.1303070  79.4017830  39.9954520  60.2040650  78.7908630  52.5706490
  60.0648420  79.6631430  52.9393890  59.3222010  78.4481440  52.4254430
  66.5270030  83.7084500  43.8771620  66.9665940  84.4508830  43.4627010
  66.4656920  83.9511070  44.8010580  71.9991790  70.0231240  38.2231420
  71.6864450  70.1158070  39.1230490  72.7604260  70.6012270  38.1728850
  58.5173930  77.3891040  42.6808760  58.3971530  78.1153130  42.0690030
  58.2074820  76.6193950  42.2036670  56.1559300  80.5606180  48.4877400
  56.2339720  80.6954950  47.5433120  56.7700980  79.8522070  48.6805520
  57.4006930  82.2606370  44.8983580  56.9935010  82.4020960  44.0437180
  58.2919940  81.9766530  44.6954790  73.3569070  82.7070280  53.2355820
  73.4832130  82.4682160  52.3173000  73.3990450  81.8754820  53.7077900
  67.2185810  86.4098280  51.8050630  67.7330480  86.3206290  52.6073060
  66.3754890  86.7557980  52.0978540  69.1940210  86.6953620  41.2334630
  69.0341350  86.4056560  42.1316460  69.0286920  85.9193750  40.6979860
  61.6728590  86.4752150  43.0106250  61.4971070  85.5587690  42.7974050
  60.8184330  86.8339440  43.2504050  68.8966340  84.2041180  39.7932630
  68.2031500  84.2018470  39.1334910  69.6389200  83.7800500  39.3626800
  68.4616270  85.8303890  43.8681120  68.9173220  85.0493270  44.1819740
  68.8008790  86.5410710  44.4122300  73.2093080  74.7602740  54.2005560
  72.5937350  75.2682410  53.6721020  72.8889500  73.8601070  54.1431500
  56.2118820  81.6020350  51.0271860  56.3749860  81.1325710  50.2091230
  56.6771270  81.0943910  51.6920700  60.9837590  70.7326110  46.0632430
  60.5405740  71.5135650  45.7316950  61.5422580  71.0556000  46.7703370
  65.2707400  73.5994630  51.6667750  64.8086770  73.8077650  52.4787690
  64.8685510  72.7853980  51.3638420  70.2711910  74.8203580  52.7964410
  69.4205500  74.5209330  53.1173480  70.1113700  75.0645590  51.8848230
  64.0996410  70.3536810  40.9438260  63.4750590  70.3496680  41.6691570
  64.0126530  69.4867770  40.5474230  63.0213490  71.2773440  47.9222030
  63.3185820  72.1836270  47.8414050  63.5699050  70.7892220  47.3081600
  60.7751810  75.8559680  43.7913680  60.5492730  75.6396850  44.6960300
  59.9944340  76.2888140  43.4459650  68.0049570  75.8623050  42.3904330
  67.4058460  76.5858850  42.2067950  68.5529180  75.7999830  41.6080780
  66.6114440  74.4986590  44.4207610  67.0044010  74.8158790  43.6076300
  66.9731290  73.6198470  44.5352130  58.3461560  73.1658930  52.6107730
  57.9524950  74.0134140  52.8180510  57.6579960  72.5285300  52.8016370
  55.6478610  71.0887390  46.6437810  55.3591660  71.6590250  47.3562790
  56.3924370  70.6091840  47.0069040  55.8348840  75.0307510  37.8540530
  55.7523510  75.9738270  37.9955520  55.4831900  74.8882420  36.9752880
  67.1969580  77.0892340  48.5158390  66.4650700  77.5979150  48.8648490
  66.7993920  76.2722320  48.2147170  63.6346970  73.7646540  46.9210880
  63.6383030  73.3236490  46.0715420  64.5298090  74.0863870  47.0282700
  59.4849350  73.6473030  45.8805090  59.1449400  74.1248260  46.6372140
  58.7226670  73.1938150  45.5206190  63.6967120  74.7658620  39.9117640
  63.8179940  74.7245100  40.8603460  63.3115630  75.6282770  39.7564370
  67.6595490  72.5426020  47.9281330  67.6768230  72.9934670  48.7723180
  67.4111070  71.6431660  48.1414770  62.7088620  77.0759760  39.3100940
  62.1405520  76.6278010  38.6836850  63.4177620  77.4352540  38.7766090
  57.7857800  80.9771780  53.1867670  57.4012590  80.3365450  53.7850630
  58.0969990  81.6807900  53.7562400  63.9354940  77.8248320  48.6676290
  64.3025070  77.3506890  49.4137630  63.7460000  78.6989890  49.0084630
  56.7995430  72.5692010  44.7969760  56.5142350  72.2047680  45.6348380
  56.7374290  71.8372470  44.1832900  61.7254310  76.8656960  50.9860500
  61.4211380  77.7448940  51.2110860  62.6800770  76.9256750  51.0217940
  60.2536100  81.0717950  41.5827350  59.4798360  80.5315570  41.4226070
  60.9830730  80.5524560  41.2445110  71.0124080  80.0683310  47.3753740
  71.7323200  80.5638600  46.9849850  70.8105900  79.3901200  46.7307610
  66.4734020  71.4621270  41.5183130  65.6598630  70.9634440  41.4428440
  66.2795970  72.3019520  41.1019480  66.3942880  80.1392370  53.2622740
  66.3280190  79.2188040  53.0080330  65.7648020  80.2367810  53.9767380
  69.1882410  75.8340920  39.8145290  70.0762030  76.1458150  39.6396630
  69.1587500  74.9613170  39.4225870  60.2973500  80.7398330  45.2206160
  60.8152170  79.9366590  45.1663050  59.8457520  80.6777470  46.0622990
  65.1843000  82.0064610  40.4933460  65.5258700  82.7506840  39.9976780
  64.3555710  82.3195730  40.8558290  57.7818040  77.7059700  52.1331860
  57.4232980  78.3713550  52.7205200  57.4872600  76.8743250  52.5044480
  66.3259610  82.9612940  53.0126540  66.3404150  82.0293900  52.7945450
  65.6184710  83.0472700  53.6516310  71.4596680  77.1452760  39.2825150
  71.3760400  77.5766980  38.4321590  72.1790870  77.6051110  39.7151970
  72.5370820  79.6020280  52.3595120  71.8119010  80.1949060  52.1624510
  73.0646280  79.5943820  51.5608490  72.4883930  83.9995020  42.0107280
  71.8460090  83.3450640  42.2851000  72.1014590  84.4050110  41.2347950
  68.0670410  81.3280450  45.8578970  68.4194230  80.7308580  45.1980340
  67.1832740  81.0024680  46.0287220  64.1533690  82.0878140  43.2649380
  64.8404820  82.6347350  43.6456970  63.3666110  82.6318870  43.2998990
  56.2926090  77.7050960  38.7566460  57.1620940  77.9875760  39.0402380
  55.8016410  78.5186830  38.6415270  63.4560900  79.0924170  42.8774740
  63.9123680  79.9029420  43.1034930  63.1049110  78.7747310  43.7093230
  65.7593510  84.6030510  50.1067040  66.4035730  84.8089890  50.7840460
  66.1222950  83.8418910  49.6537890  59.3572680  69.4361820  43.3497260
  59.2287310  69.4279720  44.2982180  58.5334700  69.7744910  42.9988270
  67.0325590  82.6062860  48.8244490  67.6747820  81.9056020  48.9376660
  67.5574940  83.3861300  48.6441380  70.8781310  82.8911480  38.5483630
  70.6518890  82.1741920  39.1408270  70.4877510  82.6423920  37.7105380
  68.8063210  83.4057760  52.0280550  69.1419450  83.9924450  52.7058470
  67.8863550  83.2750470  52.2578340  56.6597340  86.9178340  39.3228090
  57.0194980  87.5167680  38.6685360  56.5189680  87.4638230  40.0963120
  56.3566610  71.1952940  52.8103960  55.6425130  71.3949860  53.4156570
  56.7761650  70.4192510  53.1818760  70.4597560  80.8083420  40.2097790
  70.1719260  81.2696110  40.9975670  71.2549730  80.3481190  40.4782010
  56.6439200  85.1833200  53.7970490  56.7530320  84.2427940  53.6565880
  55.9919760  85.4487950  53.1484220  62.6765960  84.3009540  40.1401760
  62.6676060  85.0339230  39.5246270  61.7564320  84.0541120  40.2328720
  58.2772600  79.5224430  40.8848520  57.6700550  80.2623330  40.8943820
  58.7521950  79.6123790  40.0586720  67.8505390  73.6875250  50.5605410
  68.2186210  72.8670460  50.8884980  66.9903590  73.7477140  50.9761060
  71.2167420  72.6432190  41.3692970  70.5880580  72.7477860  40.6551200
  70.7219340  72.8628970  42.1586850  65.6625560  84.3637780  38.8026950
  65.7637540  84.1601770  37.8728930  64.7627300  84.1096060  39.0074730
  63.1851450  74.9218140  42.7850850  62.4767600  75.3904480  43.2264460
  63.4695930  74.2640150  43.4196040  64.8107380  76.3414840  50.7843380
  65.3092630  76.8160660  51.4495230  64.9530330  75.4178360  50.9913410
  67.2166880  71.6468800  44.2246640  67.0934660  71.6654930  43.2756150
  68.1651440  71.6947740  44.3445040  64.3043670  86.8824100  43.4974620
  64.5585170  86.8445490  42.5753990  63.3556150  86.7557430  43.4902870
  61.3886470  73.2303220  40.1601560  62.2377000  73.6673370  40.0941750
  61.0217740  73.5423480  40.9873620  72.0174240  72.5582800  51.6271770
  71.5147840  73.2988200  51.9665580  72.8330900  72.9466800  51.3108560
  70.3096250  77.8015980  45.0733130  69.3686390  77.8166210  45.2480820
  70.6240320  77.0151940  45.5193430  60.2877890  79.4835580  38.6337090
  61.0541160  79.3716940  39.1962520  60.3652580  78.7873550  37.9813860
  58.9824650  76.9160650  39.3169980  59.0628240  75.9688160  39.4287380
  59.8744400  77.2467530  39.4230640  72.3121830  84.9724830  46.7487390
  72.4369250  85.7956000  47.2211200  73.1787390  84.7615560  46.4011540
  59.7839360  87.0656040  46.4204520  60.5201840  86.5171500  46.6913090
  60.1680280  87.9312050  46.2810510  56.6684840  83.1329610  42.2946030
  55.7424620  83.3750750  42.2851440  57.1341270  83.9603870  42.1730780
  62.8941670  86.2386350  38.2430090  63.6870280  86.5275180  37.7911880
  62.3746020  85.8078520  37.5642570  71.9471840  85.4656480  39.6666830
  71.6613350  85.0521620  38.8521010  71.7491390  86.3944190  39.5467350
  63.4119070  81.4589760  38.1072440  63.3069710  80.8442110  38.8333820
  63.2443290  80.9355650  37.3235450  63.5633390  80.1446560  54.0861670
  62.7979060  80.7131560  54.0016340  63.7449350  79.8522770  53.1929900
  66.6521800  80.5209790  38.7114430  66.1031900  80.9679090  39.3557170
  67.2741060  80.0159040  39.2352100  62.3196920  79.4800710  40.6079730
  62.7413340  79.3140580  41.4511120  62.4447760  78.6700940  40.1134870
  60.4824340  75.4597260  53.4150710  59.9520800  74.9688210  52.7874050
  61.1512410  75.8881460  52.8808640  64.8324560  78.5038320  37.8556830
  65.3530220  77.7887340  37.4897980  65.4792960  79.1424190  38.1557340
  69.3802400  79.9266720  53.1791900  69.7943420  80.0811800  54.0282320
  68.4453400  80.0521940  53.3417680  60.9696640  72.4259630  53.4948000
  60.8753510  71.8080380  52.7698870  60.3894030  73.1525920  53.2677910
  63.7358080  70.9832870  50.5275390  63.2875380  71.0057130  49.6820940
  63.1023280  70.5851890  51.1245690  64.1417630  79.8787200  51.1487830
  64.5605740  80.7219930  50.9764070  63.2226260  80.0159240  50.9194610
  66.4781530  77.6103380  52.5325670  66.5977740  77.0144520  53.2720510
  67.3375530  77.6473070  52.1126970  68.8169430  78.1640570  51.1088180
  68.2904650  78.6883190  50.5053320  69.1600770  78.7967960  51.7397910
  61.2155820  75.5533940  37.5537890  61.0144880  74.6901300  37.9151230
  61.0447870  75.4667300  36.6159490  61.9925050  86.1840210  52.2645560
  61.4546140  86.9086270  51.9454260  62.2459010  85.7070550  51.4742900
  68.6944130  70.3642170  40.0824770  68.9746420  69.5210070  40.4384190
  67.9209860  70.5965280  40.5963520  60.0138620  72.6534560  37.5415770
  60.3164520  72.6601990  36.6334920  60.7533210  72.3032420  38.0383430
  64.8487260  87.4191420  52.5232210  64.7745960  88.3226560  52.8304580
  63.9466100  87.1003320  52.4954280  63.2323550  71.5969180  38.5271970
  62.8845550  70.9193170  37.9474420  63.4336320  71.1358690  39.3415360
  65.3972590  86.5849930  40.1458570  66.2923380  86.9234900  40.1677330
  65.4290220  85.8629340  39.5182850  59.0368750  81.9576980  38.3745570
  59.4743620  82.5006650  39.0303150  59.5216480  81.1323930  38.3841910
  56.2514550  84.7466010  45.8265830  56.5817560  83.8787070  45.5944470
  56.6805550  84.9524530  46.6570790  60.8476470  83.0775020  43.4867800
  60.5472010  82.9539990  44.3871710  60.7413960  82.2183610  43.0783530
  56.7404760  85.6136600  48.5647460  56.3035750  85.7937400  49.3971610
  57.3082440  86.3711220  48.4229180  72.3766940  85.1153600  52.8524770
  71.7768930  85.1746160  52.1088690  72.5060840  84.1758580  52.9821620
  73.6168390  82.8571420  38.1894480  72.7861350  82.9248070  38.6601710
  73.7940220  83.7475540  37.8861340  73.0724850  79.6018900  40.6928680
  73.8343760  80.1715550  40.7988370  73.0879220  79.0346100  41.4636990
  56.5729190  78.1256830  44.9236340  55.9178030  77.8568470  44.2796040
  57.4107140  78.0161310  44.4738320  74.0784820  80.4569000  45.5370610
  74.4493650  79.6736320  45.1306580  74.7186750  81.1458100  45.3587910
  71.0618580  81.8405580  50.9500930  70.2478420  82.2702740  51.2126720
  71.4692780  82.4523990  50.3369980  73.1244020  79.8953270  37.8501200
  73.3992860  80.8032150  37.7220420  72.9354760  79.8315800  38.7863190
  69.5219630  72.9198120  39.1454830  69.9404510  72.7329100  38.3051490
  69.2155690  72.0677170  39.4557760  73.0209360  77.8322260  42.8430630
  72.6452960  77.0650190  42.4111920  72.2912480  78.2144960  43.3305560
  57.6105120  78.5109400  49.4639680  57.9778160  78.4236800  50.3435700
  57.0415940  77.7475950  49.3646540  72.4108980  76.9793780  52.4770150
  72.1795070  76.7506530  51.5768100  72.6713530  77.8993330  52.4315040
  57.1621120  75.4218490  53.3698100  56.2677170  75.3885250  53.7091810
  57.7018670  75.6205280  54.1349350  55.7867270  75.3355760  40.8661670
  54.8831350  75.5985960  40.6913330  56.2707890  75.6066930  40.0861630
  72.2960320  76.0579750  46.1437870  72.8197800  75.5642400  45.5128040
  72.8819740  76.1930110  46.8885440  72.4750040  76.1419620  49.6657420
  71.5252750  76.1083160  49.7802410  72.6563050  77.0519730  49.4307190
  58.3294480  74.3921300  38.7756050  59.0386180  73.9704520  38.2903330
  57.6134420  74.4596530  38.1439400  57.9768640  70.4460630  37.8158700
  58.6996770  70.9869570  38.1339920  58.2493160  70.1724050  36.9400240
  71.7860290  75.3153100  42.0830280  72.2819410  75.0823970  42.8679160
  71.5876360  74.4764940  41.6667920  57.6660830  69.6966820  47.7181320
  58.3137020  69.1464200  47.2776480  58.0862670  69.9509970  48.5397130
  73.2147450  73.9514050  44.6167960  73.1046730  73.7970090  45.5550230
  73.9755040  73.4234990  44.3743370  71.5613170  69.8908180  51.0750960
  72.1985390  70.5042320  51.4410150  71.7088060  69.9268840  50.1300190
  74.1037720  71.7821970  37.8574100  75.0287030  71.6503150  37.6492390
  74.0813510  71.8614790  38.8110550  74.1776210  72.5532630  40.4830810
  73.3827710  72.4877750  41.0123720  74.3819490  73.4883270  40.4716160
  71.1194630  86.5924180  44.4769200  71.7153700  86.2708750  43.8003620
  71.3772780  86.1196000  45.2682470  57.4192830  69.8522490  50.4606640
  57.0707650  70.3086310  51.2264820  57.0880530  68.9579620  50.5429070
  62.7263230  84.5801680  50.2269550  62.4854590  84.8476240  49.3400070
  63.6665870  84.7507410  50.2820410  73.9867390  86.5996060  51.0280190
  73.4925670  86.9964930  50.3107320  73.3780680  85.9745270  51.4217470
  58.8645230  85.9704340  51.7457610  58.2705550  85.8389040  52.4847650
  58.8569070  85.1342480  51.2799710  68.3100250  69.2636570  49.9487640
  67.4360090  69.5971680  49.7460570  68.2011000  68.7909750  50.7739510
  69.2172230  71.4707440  51.3329360  68.8885590  70.6559200  50.9531090
  70.1654530  71.4277250  51.2095050  71.6706840  87.2419480  48.3066930
  71.2109810  87.9935290  47.9324950  71.0419300  86.5225950  48.2481730
  58.4957460  83.3362720  50.6965650  57.7691520  82.7168010  50.6291600
  58.5566610  83.7303330  49.8263730  62.1002560  85.5507720  47.4815060
  62.6167580  84.9395080  46.9563320  62.7499940  86.0536500  47.9726070
  64.8398060  86.4416210  48.3084040  65.1275870  86.1870510  47.4317050
  65.3521280  85.8893570  48.8989610  66.0575070  70.1806410  48.8880550
  65.2746860  70.6551910  49.1677310  65.7638000  69.2761240  48.7793730
  70.6096140  70.8829510  46.9329640  71.0504230  70.8274610  46.0851240
  70.3403730  71.7987520  47.0039820  72.4734710  70.5144750  44.9438460
  72.4123110  69.5705970  44.7969480  73.2526740  70.6224840  45.4891920
  56.7787460  86.6537110  43.9062410  56.6109500  86.0207790  44.6044300
  55.9121970  86.8596510  43.5556600  57.4015480  70.4853890  41.4094270
  58.1594840  70.5982770  40.8358300  56.9392650  71.3223090  41.3637700
  63.9429290  72.5993160  44.3996580  63.1303800  72.2250050  44.0592460
  64.4470930  71.8438240  44.7017770  68.4454270  69.2635610  45.6379650
  69.0483640  69.8355820  46.1128170  67.7047260  69.8275050  45.4153550
  71.5888870  69.6657170  40.9119930  71.7839500  70.5640620  41.1787360
  70.8018740  69.4344250  41.4052880  58.3850160  85.3470340  41.3512550
  57.8597780  85.7278370  40.6474510  58.3094740  85.9721110  42.0722260
  59.7740630  71.0117940  39.9496240  60.3033390  70.2247740  39.8204190
  60.4068950  71.6909130  40.1831770  61.9678470  70.7493080  43.0041630
  61.3381210  70.0480390  43.1711760  61.4283610  71.5097210  42.7874790
  73.1415480  86.9057880  42.6726490  73.3167670  86.2195620  42.0287410
  72.4437050  87.4304930  42.2803160  60.9843130  87.2952720  40.2261800
  61.7161950  87.0112000  39.6785690  61.2436800  87.0566000  41.1161180
  60.1457920  83.4117450  40.2308130  59.5166800  83.8802550  40.7793960
  60.2605750  82.5666670  40.6654320  67.6007640  77.4623110  26.3809330
  67.5201690  76.5477720  26.1101040  67.1872060  77.9590180  25.6749040
  65.7325680  79.2402130  28.2618600  64.9567780  78.7602570  28.5517170
  66.3838610  78.5607780  28.0874760  59.7491510  79.5521940  29.1394360
  58.9176390  79.2970650  29.5390870  60.3572490  79.6232710  29.8752280
  69.7533110  83.6462320  27.0417730  69.2914640  82.8749560  27.3704900
  70.5658660  83.6728390  27.5470180  59.7292770  83.5862030  29.3352380
  60.0320810  82.6959770  29.1562600  60.4736360  84.1432250  29.1074630
  58.1583460  74.5123830  22.9236750  57.2700160  74.8539800  22.8216630
  58.4424650  74.3124150  22.0317580  65.9796420  85.9320330  26.6621720
  65.3607860  86.3877830  26.0916160  66.8348200  86.0871790  26.2611420
  65.1734670  81.9159320  28.2688760  65.1042950  80.9749260  28.1077890
  65.9354530  82.0060730  28.8411330  60.3344850  73.0955330  23.9575130
  60.4411600  73.9959060  24.2643890  59.4237210  73.0473300  23.6669780
  69.9863960  72.2180140  25.4286030  70.8073580  71.7276710  25.4711510
  70.0198040  72.8077800  26.1817870  74.2763510  74.2346890  31.9929660
  73.5715680  74.6228600  31.4744770  74.5421430  74.9297180  32.5950590
  66.8459770  80.8159570  24.0553630  66.2277040  81.2809020  23.4916350
  67.3583020  81.5087050  24.4723140  61.7091530  80.3435440  30.7337230
  61.3760910  80.9704360  31.3758300  61.8858210  80.8697320  29.9538900
  70.2225440  74.1580520  28.2013570  69.5181010  74.4465410  28.7816680
  70.5837600  74.9680630  27.8413130  60.9210630  82.3116240  32.5486410
  61.5384630  82.9867320  32.2670860  60.0603750  82.7204220  32.4573910
  56.2142970  81.5016100  21.4293260  55.8370950  81.9903200  20.6978160
  56.4716040  82.1741380  22.0599790  71.8388220  83.7755650  30.4641050
  71.1551740  84.4454760  30.4557720  72.3782510  83.9736300  29.6985910
  73.2912360  73.6035310  28.5922780  72.3437270  73.6374290  28.7238210
  73.6162350  74.4174260  28.9772140  69.3746960  85.6199780  29.1786230
  69.3874120  85.2162070  28.3108490  68.8222180  86.3947070  29.0747660
  70.6692380  82.3416000  24.2676400  70.5588710  81.3990330  24.3925820
  70.6660630  82.7031640  25.1539160  68.7732400  80.5229620  30.5068840
  69.1901190  80.3089730  29.6722300  69.4972220  80.7802410  31.0777460
  66.2112660  77.9681320  23.6238890  65.2841940  77.9018700  23.8527360
  66.3637480  78.9061450  23.5094130  66.1981740  74.2398320  20.6206050
  65.2585410  74.4012280  20.7058510  66.5165000  74.9584000  20.0742040
  72.7194500  78.9216840  30.5985080  71.8913130  78.9909930  30.1235210
  73.3144980  79.5071150  30.1300910  70.2409950  79.5301620  24.1274140
  69.6222370  79.1921170  23.4800440  70.2234400  78.8861380  24.8353330
  69.6836510  75.7086160  31.5439950  69.2707690  76.5339870  31.7979940
  68.9512460  75.1231200  31.3516310  62.2851000  82.1813620  28.5697830
  61.9879290  81.5759090  27.8905610  63.2350820  82.2190930  28.4587190
  70.3736610  85.7545490  32.2320930  69.8967170  86.5617680  32.0393540
  69.6898400  85.1023820  32.3847140  61.3769430  81.9195310  35.2205630
  60.4797960  82.1435280  35.4679030  61.4022300  82.0430250  34.2717030
  68.4174650  78.7688430  21.1346890  68.8567930  77.9310860  20.9884710
  69.1303070  79.4017830  21.2211030  60.2040650  78.7908630  33.7963000
  60.0648420  79.6631430  34.1650400  59.3222010  78.4481440  33.6510940
  66.5270030  83.7084500  25.1028130  66.9665940  84.4508830  24.6883520
  66.4656920  83.9511070  26.0267090  62.0021000  84.7330330  36.0048150
  61.9736430  85.1373280  35.1376580  61.8385970  83.8040690  35.8419750
  71.9991790  70.0231240  19.4487930  71.6864450  70.1158070  20.3487000
  72.7604260  70.6012270  19.3985360  58.5173930  77.3891040  23.9065270
  58.3971530  78.1153130  23.2946540  58.2074820  76.6193950  23.4293180
  73.9535820  85.5157430  37.3012320  74.4295540  85.9940320  37.9801400
  74.5742980  85.4474920  36.5757820  56.1559300  80.5606180  29.7133910
  56.2339720  80.6954950  28.7689630  56.7700980  79.8522070  29.9062030
  57.4006930  82.2606370  26.1240090  56.9935010  82.4020960  25.2693690
  58.2919940  81.9766530  25.9211300  73.3569070  82.7070280  34.4612330
  73.4832130  82.4682160  33.5429510  73.3990450  81.8754820  34.9334410
  67.2185810  86.4098280  33.0307140  67.7330480  86.3206290  33.8329570
  66.3754890  86.7557980  33.3235050  69.1940210  86.6953620  22.4591140
  69.0341350  86.4056560  23.3572970  69.0286920  85.9193750  21.9236370
  61.6728590  86.4752150  24.2362760  61.4971070  85.5587690  24.0230560
  60.8184330  86.8339440  24.4760560  68.8966340  84.2041180  21.0189140
  68.2031500  84.2018470  20.3591420  69.6389200  83.7800500  20.5883310
  68.4616270  85.8303890  25.0937630  68.9173220  85.0493270  25.4076250
  68.8008790  86.5410710  25.6378810  73.2093080  74.7602740  35.4262070
  72.5937350  75.2682410  34.8977530  72.8889500  73.8601070  35.3688010
  56.2118820  81.6020350  32.2528370  56.3749860  81.1325710  31.4347740
  56.6771270  81.0943910  32.9177210  65.2707400  73.5994630  32.8924260
  64.8086770  73.8077650  33.7044200  64.8685510  72.7853980  32.5894930
  70.2711910  74.8203580  34.0220920  69.4205500  74.5209330  34.3429990
  70.1113700  75.0645590  33.1104740  67.3661620  76.3205330  36.1219710
  67.6915030  75.4869080  35.7821940  68.1541950  76.8433850  36.2698040
  64.0996410  70.3536810  22.1694770  63.4750590  70.3496680  22.8948080
  64.0126530  69.4867770  21.7730740  68.0049570  75.8623050  23.6160840
  67.4058460  76.5858850  23.4324460  68.5529180  75.7999830  22.8337290
  63.2151020  76.7545260  35.6830460  63.1194620  75.8139990  35.5330860
  64.0583000  76.9760330  35.2878530  66.6114440  74.4986590  25.6464120
  67.0044010  74.8158790  24.8332810  66.9731290  73.6198470  25.7608640
  58.3461560  73.1658930  33.8364240  57.9524950  74.0134140  34.0437020
  57.6579960  72.5285300  34.0272880  64.9206610  73.2493900  36.9060980
  64.2304930  73.0566100  37.5407070  65.6638910  73.5328540  37.4385280
  55.8348840  75.0307510  19.0797040  55.7523510  75.9738270  19.2212030
  55.4831900  74.8882420  18.2009390  67.1969580  77.0892340  29.7414900
  66.4650700  77.5979150  30.0905000  66.7993920  76.2722320  29.4403680
  63.6967120  74.7658620  21.1374150  63.8179940  74.7245100  22.0859970
  63.3115630  75.6282770  20.9820880  67.6595490  72.5426020  29.1537840
  67.6768230  72.9934670  29.9979690  67.4111070  71.6431660  29.3671280
  62.7088620  77.0759760  20.5357450  62.1405520  76.6278010  19.9093360
  63.4177620  77.4352540  20.0022600  71.0866240  69.9558200  34.9924220
  71.4112010  69.2247860  35.5182200  71.1222750  69.6371840  34.0905210
  57.7857800  80.9771780  34.4124180  57.4012590  80.3365450  35.0107140
  58.0969990  81.6807900  34.9818910  63.9354940  77.8248320  29.8932800
  64.3025070  77.3506890  30.6394140  63.7460000  78.6989890  30.2341140
  61.7254310  76.8656960  32.2117010  61.4211380  77.7448940  32.4367370
  62.6800770  76.9256750  32.2474450  60.2536100  81.0717950  22.8083860
  59.4798360  80.5315570  22.6482580  60.9830730  80.5524560  22.4701620
  71.0124080  80.0683310  28.6010250  71.7323200  80.5638600  28.2106360
  70.8105900  79.3901200  27.9564120  66.4734020  71.4621270  22.7439640
  65.6598630  70.9634440  22.6684950  66.2795970  72.3019520  22.3275990
  66.3942880  80.1392370  34.4879250  66.3280190  79.2188040  34.2336840
  65.7648020  80.2367810  35.2023890  69.1882410  75.8340920  21.0401800
  70.0762030  76.1458150  20.8653140  69.1587500  74.9613170  20.6482380
  60.2973500  80.7398330  26.4462670  60.8152170  79.9366590  26.3919560
  59.8457520  80.6777470  27.2879500  65.1843000  82.0064610  21.7189970
  65.5258700  82.7506840  21.2233290  64.3555710  82.3195730  22.0814800
  57.7818040  77.7059700  33.3588370  57.4232980  78.3713550  33.9461710
  57.4872600  76.8743250  33.7300990  60.9831160  78.1643940  36.2427920
  60.6831300  78.3101120  35.3455740  61.7542400  77.6049230  36.1501310
  66.3259610  82.9612940  34.2383050  66.3404150  82.0293900  34.0201960
  65.6184710  83.0472700  34.8772820  71.4596680  77.1452760  20.5081660
  71.3760400  77.5766980  19.6578100  72.1790870  77.6051110  20.9408480
  72.5370820  79.6020280  33.5851630  71.8119010  80.1949060  33.3881020
  73.0646280  79.5943820  32.7865000  72.4883930  83.9995020  23.2363790
  71.8460090  83.3450640  23.5107510  72.1014590  84.4050110  22.4604460
  68.0670410  81.3280450  27.0835480  68.4194230  80.7308580  26.4236850
  67.1832740  81.0024680  27.2543730  64.1533690  82.0878140  24.4905890
  64.8404820  82.6347350  24.8713480  63.3666110  82.6318870  24.5255500
  56.2926090  77.7050960  19.9822970  57.1620940  77.9875760  20.2658890
  55.8016410  78.5186830  19.8671780  63.4560900  79.0924170  24.1031250
  63.9123680  79.9029420  24.3291440  63.1049110  78.7747310  24.9349740
  65.7593510  84.6030510  31.3323550  66.4035730  84.8089890  32.0096970
  66.1222950  83.8418910  30.8794400  67.0325590  82.6062860  30.0501000
  67.6747820  81.9056020  30.1633170  67.5574940  83.3861300  29.8697890
  70.8781310  82.8911480  19.7740140  70.6518890  82.1741920  20.3664780
  70.4877510  82.6423920  18.9361890  68.8063210  83.4057760  33.2537060
  69.1419450  83.9924450  33.9314980  67.8863550  83.2750470  33.4834850
  56.6597340  86.9178340  20.5484600  57.0194980  87.5167680  19.8941870
  56.5189680  87.4638230  21.3219630  56.3566610  71.1952940  34.0360470
  55.6425130  71.3949860  34.6413080  56.7761650  70.4192510  34.4075270
  70.4597560  80.8083420  21.4354300  70.1719260  81.2696110  22.2232180
  71.2549730  80.3481190  21.7038520  56.6439200  85.1833200  35.0227000
  56.7530320  84.2427940  34.8822390  55.9919760  85.4487950  34.3740730
  64.6351790  83.4549090  36.4225120  64.3148660  82.7358330  36.9670810
  63.9610150  84.1304160  36.4961180  62.6765960  84.3009540  21.3658270
  62.6676060  85.0339230  20.7502780  61.7564320  84.0541120  21.4585230
  58.2772600  79.5224430  22.1105030  57.6700550  80.2623330  22.1200330
  58.7521950  79.6123790  21.2843230  67.8505390  73.6875250  31.7861920
  68.2186210  72.8670460  32.1141490  66.9903590  73.7477140  32.2017570
  71.2167420  72.6432190  22.5949480  70.5880580  72.7477860  21.8807710
  70.7219340  72.8628970  23.3843360  65.6625560  84.3637780  20.0283460
  65.7637540  84.1601770  19.0985440  64.7627300  84.1096060  20.2331240
  63.1851450  74.9218140  24.0107360  62.4767600  75.3904480  24.4520970
  63.4695930  74.2640150  24.6452550  64.8107380  76.3414840  32.0099890
  65.3092630  76.8160660  32.6751740  64.9530330  75.4178360  32.2169920
  67.2166880  71.6468800  25.4503150  67.0934660  71.6654930  24.5012660
  68.1651440  71.6947740  25.5701550  64.3043670  86.8824100  24.7231130
  64.5585170  86.8445490  23.8010500  63.3556150  86.7557430  24.7159380
  61.3886470  73.2303220  21.3858070  62.2377000  73.6673370  21.3198260
  61.0217740  73.5423480  22.2130130  72.0174240  72.5582800  32.8528280
  71.5147840  73.2988200  33.1922090  72.8330900  72.9466800  32.5365070
  70.3096250  77.8015980  26.2989640  69.3686390  77.8166210  26.4737330
  70.6240320  77.0151940  26.7449940  60.2877890  79.4835580  19.8593600
  61.0541160  79.3716940  20.4219030  60.3652580  78.7873550  19.2070370
  58.9824650  76.9160650  20.5426490  59.0628240  75.9688160  20.6543890
  59.8744400  77.2467530  20.6487150  72.3121830  84.9724830  27.9743900
  72.4369250  85.7956000  28.4467710  73.1787390  84.7615560  27.6268050
  59.7839360  87.0656040  27.6461030  60.5201840  86.5171500  27.9169600
  60.1680280  87.9312050  27.5067020  56.6684840  83.1329610  23.5202540
  55.7424620  83.3750750  23.5107950  57.1341270  83.9603870  23.3987290
  58.7897640  86.2502110  36.8346610  59.5910370  86.5714160  37.2482010
  58.2749460  85.8897690  37.5566520  62.8941670  86.2386350  19.4686600
  63.6870280  86.5275180  19.0168390  62.3746020  85.8078520  18.7899080
  67.6262270  82.3581980  36.7822020  67.0200430  82.3813580  36.0417770
  67.3216380  81.6265020  37.3189270  69.0562640  86.0862270  35.3931430
  70.0084390  86.0020290  35.3431670  68.9090860  86.7503980  36.0665220
  71.9471840  85.4656480  20.8923340  71.6613350  85.0521620  20.0777520
  71.7491390  86.3944190  20.7723860  56.5095450  78.7375570  35.7782660
  57.0134470  78.1582850  36.3498890  55.7702870  79.0215800  36.3159030
  63.4119070  81.4589760  19.3328950  63.3069710  80.8442110  20.0590330
  63.2443290  80.9355650  18.5491960  63.5633390  80.1446560  35.3118180
  62.7979060  80.7131560  35.2272850  63.7449350  79.8522770  34.4186410
  66.6521800  80.5209790  19.9370940  66.1031900  80.9679090  20.5813680
  67.2741060  80.0159040  20.4608610  70.7056740  81.8751890  35.8693200
  71.4466210  82.2127650  35.3660660  69.9429420  82.0443950  35.3162970
  58.5418530  76.8805160  36.6732730  58.5823870  76.5819030  37.5817960
  59.3964030  77.2812770  36.5140250  62.3196920  79.4800710  21.8336240
  62.7413340  79.3140580  22.6767630  62.4447760  78.6700940  21.3391380
  60.4824340  75.4597260  34.6407220  59.9520800  74.9688210  34.0130560
  61.1512410  75.8881460  34.1065150  64.8324560  78.5038320  19.0813340
  65.3530220  77.7887340  18.7154490  65.4792960  79.1424190  19.3813850
  69.3802400  79.9266720  34.4048410  69.7943420  80.0811800  35.2538830
  68.4453400  80.0521940  34.5674190  69.8524570  77.2662880  36.4087560
  70.4345340  76.5115200  36.3208040  70.0286340  77.7970320  35.6319040
  60.9696640  72.4259630  34.7204510  60.8753510  71.8080380  33.9955380
  60.3894030  73.1525920  34.4934420  64.1417630  79.8787200  32.3744340
  64.5605740  80.7219930  32.2020580  63.2226260  80.0159240  32.1451120
  66.4781530  77.6103380  33.7582180  66.5977740  77.0144520  34.4977020
  67.3375530  77.6473070  33.3383480  68.8169430  78.1640570  32.3344690
  68.2904650  78.6883190  31.7309830  69.1600770  78.7967960  32.9654420
  61.2155820  75.5533940  18.7794400  61.0144880  74.6901300  19.1407740
  61.0447870  75.4667300  17.8416000  61.9925050  86.1840210  33.4902070
  61.4546140  86.9086270  33.1710770  62.2459010  85.7070550  32.6999410
  63.2450300  74.1524730  35.0158000  63.8349990  73.8440580  35.7035820
  62.4270540  73.6804480  35.1717900  68.0643730  73.7690540  35.2491020
  67.3759250  73.1072080  35.1841010  68.7849750  73.3228810  35.6939480
  68.6944130  70.3642170  21.3081280  68.9746420  69.5210070  21.6640700
  67.9209860  70.5965280  21.8220030  60.0138620  72.6534560  18.7672280
  60.3164520  72.6601990  17.8591430  60.7533210  72.3032420  19.2639940
  64.8487260  87.4191420  33.7488720  64.7745960  88.3226560  34.0561090
  63.9466100  87.1003320  33.7210790  63.2323550  71.5969180  19.7528480
  62.8845550  70.9193170  19.1730930  63.4336320  71.1358690  20.5671870
  65.3972590  86.5849930  21.3715080  66.2923380  86.9234900  21.3933840
  65.4290220  85.8629340  20.7439360  59.0368750  81.9576980  19.6002080
  59.4743620  82.5006650  20.2559660  59.5216480  81.1323930  19.6098420
  56.2514550  84.7466010  27.0522340  56.5817560  83.8787070  26.8200980
  56.6805550  84.9524530  27.8827300  60.8476470  83.0775020  24.7124310
  60.5472010  82.9539990  25.6128220  60.7413960  82.2183610  24.3040040
  56.7404760  85.6136600  29.7903970  56.3035750  85.7937400  30.6228120
  57.3082440  86.3711220  29.6485690  72.3766940  85.1153600  34.0781280
  71.7768930  85.1746160  33.3345200  72.5060840  84.1758580  34.2078130
  73.6168390  82.8571420  19.4150990  72.7861350  82.9248070  19.8858220
  73.7940220  83.7475540  19.1117850  73.0724850  79.6018900  21.9185190
  73.8343760  80.1715550  22.0244880  73.0879220  79.0346100  22.6893500
  74.0784820  80.4569000  26.7627120  74.4493650  79.6736320  26.3563090
  74.7186750  81.1458100  26.5844420  71.0618580  81.8405580  32.1757440
  70.2478420  82.2702740  32.4383230  71.4692780  82.4523990  31.5626490
  73.1244020  79.8953270  19.0757710  73.3992860  80.8032150  18.9476930
  72.9354760  79.8315800  20.0119700  69.5219630  72.9198120  20.3711340
  69.9404510  72.7329100  19.5308000  69.2155690  72.0677170  20.6814270
  73.0209360  77.8322260  24.0687140  72.6452960  77.0650190  23.6368430
  72.2912480  78.2144960  24.5562070  57.6105120  78.5109400  30.6896190
  57.9778160  78.4236800  31.5692210  57.0415940  77.7475950  30.5903050
  72.4108980  76.9793780  33.7026660  72.1795070  76.7506530  32.8024610
  72.6713530  77.8993330  33.6571550  57.1621120  75.4218490  34.5954610
  56.2677170  75.3885250  34.9348320  57.7018670  75.6205280  35.3605860
  70.8497050  72.2050210  36.4806360  71.7267230  72.2133610  36.8640360
  70.8617890  71.4681050  35.8698710  55.7867270  75.3355760  22.0918180
  54.8831350  75.5985960  21.9169840  56.2707890  75.6066930  21.3118140
  72.2960320  76.0579750  27.3694380  72.8197800  75.5642400  26.7384550
  72.8819740  76.1930110  28.1141950  72.4750040  76.1419620  30.8913930
  71.5252750  76.1083160  31.0058920  72.6563050  77.0519730  30.6563700
  58.3294480  74.3921300  20.0012560  59.0386180  73.9704520  19.5159840
  57.6134420  74.4596530  19.3695910  57.9768640  70.4460630  19.0415210
  58.6996770  70.9869570  19.3596430  58.2493160  70.1724050  18.1656750
  71.7860290  75.3153100  23.3086790  72.2819410  75.0823970  24.0935670
  71.5876360  74.4764940  22.8924430  73.2147450  73.9514050  25.8424470
  73.1046730  73.7970090  26.7806740  73.9755040  73.4234990  25.5999880
  71.5613170  69.8908180  32.3007470  72.1985390  70.5042320  32.6666660
  71.7088060  69.9268840  31.3556700  74.1037720  71.7821970  19.0830610
  75.0287030  71.6503150  18.8748900  74.0813510  71.8614790  20.0367060
  74.1776210  72.5532630  21.7087320  73.3827710  72.4877750  22.2380230
  74.3819490  73.4883270  21.6972670  71.1194630  86.5924180  25.7025710
  71.7153700  86.2708750  25.0260130  71.3772780  86.1196000  26.4938980
  59.0257200  83.0242090  35.8516340  58.9826830  82.6535000  36.7330800
  59.1568210  83.9619660  35.9918160  62.7263230  84.5801680  31.4526060
  62.4854590  84.8476240  30.5656580  63.6665870  84.7507410  31.5076920
  64.9317650  71.0434370  35.2082570  64.8706540  71.6356200  35.9577980
  65.8718030  70.9360330  35.0632830  67.5692210  70.7004430  34.8474860
  68.1832620  71.0183720  34.1855940  68.1141770  70.2153020  35.4670720
  73.9867390  86.5996060  32.2536700  73.4925670  86.9964930  31.5363830
  73.3780680  85.9745270  32.6473980  58.0913470  69.3798690  34.9613920
  58.6396460  69.1986740  34.1980030  58.1568780  68.5892800  35.4970230
  58.8645230  85.9704340  32.9714120  58.2705550  85.8389040  33.7104160
  58.8569070  85.1342480  32.5056220  69.2172230  71.4707440  32.5585870
  68.8885590  70.6559200  32.1787600  70.1654530  71.4277250  32.4351560
  71.6706840  87.2419480  29.5323440  71.2109810  87.9935290  29.1581460
  71.0419300  86.5225950  29.4738240  58.4957460  83.3362720  31.9222160
  57.7691520  82.7168010  31.8548110  58.5566610  83.7303330  31.0520240
  62.1002560  85.5507720  28.7071570  62.6167580  84.9395080  28.1819830
  62.7499940  86.0536500  29.1982580  64.8398060  86.4416210  29.5340550
  65.1275870  86.1870510  28.6573560  65.3521280  85.8893570  30.1246120
  72.4734710  70.5144750  26.1694970  72.4123110  69.5705970  26.0225990
  73.2526740  70.6224840  26.7148430  56.7787460  86.6537110  25.1318920
  56.6109500  86.0207790  25.8300810  55.9121970  86.8596510  24.7813110
  57.4015480  70.4853890  22.6350780  58.1594840  70.5982770  22.0614810
  56.9392650  71.3223090  22.5894210  71.5888870  69.6657170  22.1376440
  71.7839500  70.5640620  22.4043870  70.8018740  69.4344250  22.6309390
  58.3850160  85.3470340  22.5769060  57.8597780  85.7278370  21.8731020
  58.3094740  85.9721110  23.2978770  59.7740630  71.0117940  21.1752750
  60.3033390  70.2247740  21.0460700  60.4068950  71.6909130  21.4088280
  64.9070420  87.3632310  36.9008750  65.8337730  87.1276580  36.9444710
  64.8920850  88.1904310  36.4194780  73.1415480  86.9057880  23.8983000
  73.3167670  86.2195620  23.2543920  72.4437050  87.4304930  23.5059670
  62.0934030  70.0277060  36.6650630  61.8118300  70.5310660  35.9011450
  62.4753730  69.2298810  36.2992760  60.9843130  87.2952720  21.4518310
  61.7161950  87.0112000  20.9042200  61.2436800  87.0566000  22.3417690
  60.1457920  83.4117450  21.4564640  59.5166800  83.8802550  22.0050470
  60.2605750  82.5666670  21.8910830  68.6949490  69.4430640  37.2431100
  68.5814940  69.7625250  38.1382620  69.5119230  69.8443150  36.9468380
  71.4747980  86.5902170  36.7249790  72.2673300  86.0951400  36.5175750
  71.7681130  87.2692310  37.3325400  67.6007640  77.4623110   7.6065840
  67.5201690  76.5477720   7.3357550  67.1872060  77.9590180   6.9005550
  65.7325680  79.2402130   9.4875110  64.9567780  78.7602570   9.7773680
  66.3838610  78.5607780   9.3131270  59.7491510  79.5521940  10.3650870
  58.9176390  79.2970650  10.7647380  60.3572490  79.6232710  11.1008790
  69.7533110  83.6462320   8.2674240  69.2914640  82.8749560   8.5961410
  70.5658660  83.6728390   8.7726690  59.7292770  83.5862030  10.5608890
  60.0320810  82.6959770  10.3819110  60.4736360  84.1432250  10.3331140
  58.1583460  74.5123830   4.1493260  57.2700160  74.8539800   4.0473140
  58.4424650  74.3124150   3.2574090  56.1216470  77.1129480  10.0332960
  56.6932580  76.3451680  10.0336600  56.1218010  77.4118240   9.1239570
  65.9796420  85.9320330   7.8878230  65.3607860  86.3877830   7.3172670
  66.8348200  86.0871790   7.4867930  65.1734670  81.9159320   9.4945270
  65.1042950  80.9749260   9.3334400  65.9354530  82.0060730  10.0667840
  57.3641340  72.5213840  11.8201890  57.1844180  71.6239590  12.1004650
  56.9621420  73.0685710  12.4948840  66.2039840  74.7229700   9.7214200
  66.5804660  73.8501580   9.6087870  66.1059350  75.0588400   8.8304640
  60.3344850  73.0955330   5.1831640  60.4411600  73.9959060   5.4900400
  59.4237210  73.0473300   4.8926290  69.9863960  72.2180140   6.6542540
  70.8073580  71.7276710   6.6968020  70.0198040  72.8077800   7.4074380
  57.9828010  75.0174340  10.4284230  58.6638120  75.2812710  11.0471630
  57.6676060  74.1775210  10.7622240  62.1752580  76.0641700   9.5156820
  62.6830800  76.5622670  10.1561840  62.7065820  75.2876900   9.3396180
  74.2763510  74.2346890  13.2186170  73.5715680  74.6228600  12.7001280
  74.5421430  74.9297180  13.8207100  60.4588680  70.7040260  13.7820240
  60.4607120  71.2212650  12.9766140  59.6292990  70.2270440  13.7590170
  66.8459770  80.8159570   5.2810140  66.2277040  81.2809020   4.7172860
  67.3583020  81.5087050   5.6979650  61.7091530  80.3435440  11.9593740
  61.3760910  80.9704360  12.6014810  61.8858210  80.8697320  11.1795410
  70.2225440  74.1580520   9.4270080  69.5181010  74.4465410  10.0073190
  70.5837600  74.9680630   9.0669640  60.1404010  72.4150220  11.7890690
  60.4820820  73.2592270  11.4944560  59.2019820  72.5633960  11.9056030
  60.9210630  82.3116240  13.7742920  61.5384630  82.9867320  13.4927370
  60.0603750  82.7204220  13.6830420  56.2142970  81.5016100   2.6549770
  55.8370950  81.9903200   1.9234670  56.4716040  82.1741380   3.2856300
  71.8388220  83.7755650  11.6897560  71.1551740  84.4454760  11.6814230
  72.3782510  83.9736300  10.9242420  73.2912360  73.6035310   9.8179290
  72.3437270  73.6374290   9.9494720  73.6162350  74.4174260  10.2028650
  63.8231900  69.9032490   8.1135280  64.1306880  69.3479380   7.3970780
  62.8932600  70.0376950   7.9308270  69.3746960  85.6199780  10.4042740
  69.3874120  85.2162070   9.5365000  68.8222180  86.3947070  10.3004170
  70.6692380  82.3416000   5.4932910  70.5588710  81.3990330   5.6182330
  70.6660630  82.7031640   6.3795670  68.7732400  80.5229620  11.7325350
  69.1901190  80.3089730  10.8978810  69.4972220  80.7802410  12.3033970
  66.2112660  77.9681320   4.8495400  65.2841940  77.9018700   5.0783870
  66.3637480  78.9061450   4.7350640  72.7194500  78.9216840  11.8241590
  71.8913130  78.9909930  11.3491720  73.3144980  79.5071150  11.3557420
  70.2409950  79.5301620   5.3530650  69.6222370  79.1921170   4.7056950
  70.2234400  78.8861380   6.0609840  69.6836510  75.7086160  12.7696460
  69.2707690  76.5339870  13.0236450  68.9512460  75.1231200  12.5772820
  61.8169300  78.4946060   7.6315130  61.4126300  77.7823310   7.1361030
  61.9032420  78.1499300   8.5203170  62.2851000  82.1813620   9.7954340
  61.9879290  81.5759090   9.1162120  63.2350820  82.2190930   9.6843700
  60.5297920  75.2689270  11.4114170  61.0812510  75.3784610  10.6367420
  61.0441430  75.6426870  12.1269400  70.3736610  85.7545490  13.4577440
  69.8967170  86.5617680  13.2650050  69.6898400  85.1023820  13.6103650
  61.3769430  81.9195310  16.4462140  60.4797960  82.1435280  16.6935540
  61.4022300  82.0430250  15.4973540  68.4174650  78.7688430   2.3603400
  68.8567930  77.9310860   2.2141220  69.1303070  79.4017830   2.4467540
  60.2040650  78.7908630  15.0219510  60.0648420  79.6631430  15.3906910
  59.3222010  78.4481440  14.8767450  66.5270030  83.7084500   6.3284640
  66.9665940  84.4508830   5.9140030  66.4656920  83.9511070   7.2523600
  62.0021000  84.7330330  17.2304660  61.9736430  85.1373280  16.3633090
  61.8385970  83.8040690  17.0676260  58.5173930  77.3891040   5.1321780
  58.3971530  78.1153130   4.5203050  58.2074820  76.6193950   4.6549690
  73.9535820  85.5157430  18.5268830  74.4295540  85.9940320  19.2057910
  74.5742980  85.4474920  17.8014330  56.1559300  80.5606180  10.9390420
  56.2339720  80.6954950   9.9946140  56.7700980  79.8522070  11.1318540
  57.4006930  82.2606370   7.3496600  56.9935010  82.4020960   6.4950200
  58.2919940  81.9766530   7.1467810  73.3569070  82.7070280  15.6868840
  73.4832130  82.4682160  14.7686020  73.3990450  81.8754820  16.1590920
  67.2185810  86.4098280  14.2563650  67.7330480  86.3206290  15.0586080
  66.3754890  86.7557980  14.5491560  69.1940210  86.6953620   3.6847650
  69.0341350  86.4056560   4.5829480  69.0286920  85.9193750   3.1492880
  61.6728590  86.4752150   5.4619270  61.4971070  85.5587690   5.2487070
  60.8184330  86.8339440   5.7017070  68.4616270  85.8303890   6.3194140
  68.9173220  85.0493270   6.6332760  68.8008790  86.5410710   6.8635320
  73.2093080  74.7602740  16.6518580  72.5937350  75.2682410  16.1234040
  72.8889500  73.8601070  16.5944520  56.2118820  81.6020350  13.4784880
  56.3749860  81.1325710  12.6604250  56.6771270  81.0943910  14.1433720
  60.9837590  70.7326110   8.5145450  60.5405740  71.5135650   8.1829970
  61.5422580  71.0556000   9.2216390  65.2707400  73.5994630  14.1180770
  64.8086770  73.8077650  14.9300710  64.8685510  72.7853980  13.8151440
  70.2711910  74.8203580  15.2477430  69.4205500  74.5209330  15.5686500
  70.1113700  75.0645590  14.3361250  67.3661620  76.3205330  17.3476220
  67.6915030  75.4869080  17.0078450  68.1541950  76.8433850  17.4954550
  64.0996410  70.3536810   3.3951280  63.4750590  70.3496680   4.1204590
  64.0126530  69.4867770   2.9987250  63.0213490  71.2773440  10.3735050
  63.3185820  72.1836270  10.2927070  63.5699050  70.7892220   9.7594620
  60.7751810  75.8559680   6.2426700  60.5492730  75.6396850   7.1473320
  59.9944340  76.2888140   5.8972670  68.0049570  75.8623050   4.8417350
  67.4058460  76.5858850   4.6580970  68.5529180  75.7999830   4.0593800
  63.2151020  76.7545260  16.9086970  63.1194620  75.8139990  16.7587370
  64.0583000  76.9760330  16.5135040  66.6114440  74.4986590   6.8720630
  67.0044010  74.8158790   6.0589320  66.9731290  73.6198470   6.9865150
  58.3461560  73.1658930  15.0620750  57.9524950  74.0134140  15.2693530
  57.6579960  72.5285300  15.2529390  64.9206610  73.2493900  18.1317490
  64.2304930  73.0566100  18.7663580  65.6638910  73.5328540  18.6641790
  55.6478610  71.0887390   9.0950830  55.3591660  71.6590250   9.8075810
  56.3924370  70.6091840   9.4582060  67.1969580  77.0892340  10.9671410
  66.4650700  77.5979150  11.3161510  66.7993920  76.2722320  10.6660190
  63.6346970  73.7646540   9.3723900  63.6383030  73.3236490   8.5228440
  64.5298090  74.0863870   9.4795720  59.4849350  73.6473030   8.3318110
  59.1449400  74.1248260   9.0885160  58.7226670  73.1938150   7.9719210
  63.6967120  74.7658620   2.3630660  63.8179940  74.7245100   3.3116480
  63.3115630  75.6282770   2.2077390  67.6595490  72.5426020  10.3794350
  67.6768230  72.9934670  11.2236200  67.4111070  71.6431660  10.5927790
  71.0866240  69.9558200  16.2180730  71.4112010  69.2247860  16.7438710
  71.1222750  69.6371840  15.3161720  57.7857800  80.9771780  15.6380690
  57.4012590  80.3365450  16.2363650  58.0969990  81.6807900  16.2075420
  63.9354940  77.8248320  11.1189310  64.3025070  77.3506890  11.8650650
  63.7460000  78.6989890  11.4597650  56.7995430  72.5692010   7.2482780
  56.5142350  72.2047680   8.0861400  56.7374290  71.8372470   6.6345920
  61.7254310  76.8656960  13.4373520  61.4211380  77.7448940  13.6623880
  62.6800770  76.9256750  13.4730960  60.2536100  81.0717950   4.0340370
  59.4798360  80.5315570   3.8739090  60.9830730  80.5524560   3.6958130
  71.0124080  80.0683310   9.8266760  71.7323200  80.5638600   9.4362870
  70.8105900  79.3901200   9.1820630  66.4734020  71.4621270   3.9696150
  65.6598630  70.9634440   3.8941460  66.2795970  72.3019520   3.5532500
  66.3942880  80.1392370  15.7135760  66.3280190  79.2188040  15.4593350
  65.7648020  80.2367810  16.4280400  69.1882410  75.8340920   2.2658310
  70.0762030  76.1458150   2.0909650  69.1587500  74.9613170   1.8738890
  60.2973500  80.7398330   7.6719180  60.8152170  79.9366590   7.6176070
  59.8457520  80.6777470   8.5136010  65.1843000  82.0064610   2.9446480
  65.5258700  82.7506840   2.4489800  64.3555710  82.3195730   3.3071310
  57.7818040  77.7059700  14.5844880  57.4232980  78.3713550  15.1718220
  57.4872600  76.8743250  14.9557500  60.9831160  78.1643940  17.4684430
  60.6831300  78.3101120  16.5712250  61.7542400  77.6049230  17.3757820
  66.3259610  82.9612940  15.4639560  66.3404150  82.0293900  15.2458470
  65.6184710  83.0472700  16.1029330  72.5370820  79.6020280  14.8108140
  71.8119010  80.1949060  14.6137530  73.0646280  79.5943820  14.0121510
  72.4883930  83.9995020   4.4620300  71.8460090  83.3450640   4.7364020
  72.1014590  84.4050110   3.6860970  68.0670410  81.3280450   8.3091990
  68.4194230  80.7308580   7.6493360  67.1832740  81.0024680   8.4800240
  64.1533690  82.0878140   5.7162400  64.8404820  82.6347350   6.0969990
  63.3666110  82.6318870   5.7512010  63.4560900  79.0924170   5.3287760
  63.9123680  79.9029420   5.5547950  63.1049110  78.7747310   6.1606250
  65.7593510  84.6030510  12.5580060  66.4035730  84.8089890  13.2353480
  66.1222950  83.8418910  12.1050910  59.3572680  69.4361820   5.8010280
  59.2287310  69.4279720   6.7495200  58.5334700  69.7744910   5.4501290
  67.0325590  82.6062860  11.2757510  67.6747820  81.9056020  11.3889680
  67.5574940  83.3861300  11.0954400  68.8063210  83.4057760  14.4793570
  69.1419450  83.9924450  15.1571490  67.8863550  83.2750470  14.7091360
  56.3566610  71.1952940  15.2616980  55.6425130  71.3949860  15.8669590
  56.7761650  70.4192510  15.6331780  70.4597560  80.8083420   2.6610810
  70.1719260  81.2696110   3.4488690  71.2549730  80.3481190   2.9295030
  56.6439200  85.1833200  16.2483510  56.7530320  84.2427940  16.1078900
  55.9919760  85.4487950  15.5997240  64.6351790  83.4549090  17.6481630
  64.3148660  82.7358330  18.1927320  63.9610150  84.1304160  17.7217690
  62.6765960  84.3009540   2.5914780  62.6676060  85.0339230   1.9759290
  61.7564320  84.0541120   2.6841740  58.2772600  79.5224430   3.3361540
  57.6700550  80.2623330   3.3456840  58.7521950  79.6123790   2.5099740
  67.8505390  73.6875250  13.0118430  68.2186210  72.8670460  13.3398000
  66.9903590  73.7477140  13.4274080  71.2167420  72.6432190   3.8205990
  70.5880580  72.7477860   3.1064220  70.7219340  72.8628970   4.6099870
  63.1851450  74.9218140   5.2363870  62.4767600  75.3904480   5.6777480
  63.4695930  74.2640150   5.8709060  64.8107380  76.3414840  13.2356400
  65.3092630  76.8160660  13.9008250  64.9530330  75.4178360  13.4426430
  67.2166880  71.6468800   6.6759660  67.0934660  71.6654930   5.7269170
  68.1651440  71.6947740   6.7958060  64.3043670  86.8824100   5.9487640
  64.5585170  86.8445490   5.0267010  63.3556150  86.7557430   5.9415890
  61.3886470  73.2303220   2.6114580  62.2377000  73.6673370   2.5454770
  61.0217740  73.5423480   3.4386640  72.0174240  72.5582800  14.0784790
  71.5147840  73.2988200  14.4178600  72.8330900  72.9466800  13.7621580
  70.3096250  77.8015980   7.5246150  69.3686390  77.8166210   7.6993840
  70.6240320  77.0151940   7.9706450  58.9824650  76.9160650   1.7683000
  59.0628240  75.9688160   1.8800400  59.8744400  77.2467530   1.8743660
  72.3121830  84.9724830   9.2000410  72.4369250  85.7956000   9.6724220
  73.1787390  84.7615560   8.8524560  59.7839360  87.0656040   8.8717540
  60.5201840  86.5171500   9.1426110  60.1680280  87.9312050   8.7323530
  56.6684840  83.1329610   4.7459050  55.7424620  83.3750750   4.7364460
  57.1341270  83.9603870   4.6243800  58.7897640  86.2502110  18.0603120
  59.5910370  86.5714160  18.4738520  58.2749460  85.8897690  18.7823030
  67.6262270  82.3581980  18.0078530  67.0200430  82.3813580  17.2674280
  67.3216380  81.6265020  18.5445780  69.0562640  86.0862270  16.6187940
  70.0084390  86.0020290  16.5688180  68.9090860  86.7503980  17.2921730
  56.5095450  78.7375570  17.0039170  57.0134470  78.1582850  17.5755400
  55.7702870  79.0215800  17.5415540  63.5633390  80.1446560  16.5374690
  62.7979060  80.7131560  16.4529360  63.7449350  79.8522770  15.6442920
  70.7056740  81.8751890  17.0949710  71.4466210  82.2127650  16.5917170
  69.9429420  82.0443950  16.5419480  58.5418530  76.8805160  17.8989240
  58.5823870  76.5819030  18.8074470  59.3964030  77.2812770  17.7396760
  62.3196920  79.4800710   3.0592750  62.7413340  79.3140580   3.9024140
  62.4447760  78.6700940   2.5647890  60.4824340  75.4597260  15.8663730
  59.9520800  74.9688210  15.2387070  61.1512410  75.8881460  15.3321660
  69.3802400  79.9266720  15.6304920  69.7943420  80.0811800  16.4795340
  68.4453400  80.0521940  15.7930700  69.8524570  77.2662880  17.6344070
  70.4345340  76.5115200  17.5464550  70.0286340  77.7970320  16.8575550
  60.9696640  72.4259630  15.9461020  60.8753510  71.8080380  15.2211890
  60.3894030  73.1525920  15.7190930  63.7358080  70.9832870  12.9788410
  63.2875380  71.0057130  12.1333960  63.1023280  70.5851890  13.5758710
  64.1417630  79.8787200  13.6000850  64.5605740  80.7219930  13.4277090
  63.2226260  80.0159240  13.3707630  66.4781530  77.6103380  14.9838690
  66.5977740  77.0144520  15.7233530  67.3375530  77.6473070  14.5639990
  68.8169430  78.1640570  13.5601200  68.2904650  78.6883190  12.9566340
  69.1600770  78.7967960  14.1910930  61.9925050  86.1840210  14.7158580
  61.4546140  86.9086270  14.3967280  62.2459010  85.7070550  13.9255920
  63.2450300  74.1524730  16.2414510  63.8349990  73.8440580  16.9292330
  62.4270540  73.6804480  16.3974410  68.0643730  73.7690540  16.4747530
  67.3759250  73.1072080  16.4097520  68.7849750  73.3228810  16.9195990
  68.6944130  70.3642170   2.5337790  68.9746420  69.5210070   2.8897210
  67.9209860  70.5965280   3.0476540  64.8487260  87.4191420  14.9745230
  64.7745960  88.3226560  15.2817600  63.9466100  87.1003320  14.9467300
  65.3972590  86.5849930   2.5971590  66.2923380  86.9234900   2.6190350
  65.4290220  85.8629340   1.9695870  56.2514550  84.7466010   8.2778850
  56.5817560  83.8787070   8.0457490  56.6805550  84.9524530   9.1083810
  60.8476470  83.0775020   5.9380820  60.5472010  82.9539990   6.8384730
  60.7413960  82.2183610   5.5296550  56.7404760  85.6136600  11.0160480
  56.3035750  85.7937400  11.8484630  57.3082440  86.3711220  10.8742200
  72.3766940  85.1153600  15.3037790  71.7768930  85.1746160  14.5601710
  72.5060840  84.1758580  15.4334640  73.0724850  79.6018900   3.1441700
  73.8343760  80.1715550   3.2501390  73.0879220  79.0346100   3.9150010
  56.5729190  78.1256830   7.3749360  55.9178030  77.8568470   6.7309060
  57.4107140  78.0161310   6.9251340  74.0784820  80.4569000   7.9883630
  74.4493650  79.6736320   7.5819600  74.7186750  81.1458100   7.8100930
  71.0618580  81.8405580  13.4013950  70.2478420  82.2702740  13.6639740
  71.4692780  82.4523990  12.7883000  73.0209360  77.8322260   5.2943650
  72.6452960  77.0650190   4.8624940  72.2912480  78.2144960   5.7818580
  57.6105120  78.5109400  11.9152700  57.9778160  78.4236800  12.7948720
  57.0415940  77.7475950  11.8159560  72.4108980  76.9793780  14.9283170
  72.1795070  76.7506530  14.0281120  72.6713530  77.8993330  14.8828060
  57.1621120  75.4218490  15.8211120  56.2677170  75.3885250  16.1604830
  57.7018670  75.6205280  16.5862370  70.8497050  72.2050210  17.7062870
  71.7267230  72.2133610  18.0896870  70.8617890  71.4681050  17.0955220
  55.7867270  75.3355760   3.3174690  54.8831350  75.5985960   3.1426350
  56.2707890  75.6066930   2.5374650  72.2960320  76.0579750   8.5950890
  72.8197800  75.5642400   7.9641060  72.8819740  76.1930110   9.3398460
  72.4750040  76.1419620  12.1170440  71.5252750  76.1083160  12.2315430
  72.6563050  77.0519730  11.8820210  71.7860290  75.3153100   4.5343300
  72.2819410  75.0823970   5.3192180  71.5876360  74.4764940   4.1180940
  57.6660830  69.6966820  10.1694340  58.3137020  69.1464200   9.7289500
  58.0862670  69.9509970  10.9910150  73.2147450  73.9514050   7.0680980
  73.1046730  73.7970090   8.0063250  73.9755040  73.4234990   6.8256390
  71.5613170  69.8908180  13.5263980  72.1985390  70.5042320  13.8923170
  71.7088060  69.9268840  12.5813210  74.1776210  72.5532630   2.9343830
  73.3827710  72.4877750   3.4636740  74.3819490  73.4883270   2.9229180
  71.1194630  86.5924180   6.9282220  71.7153700  86.2708750   6.2516640
  71.3772780  86.1196000   7.7195490  57.4192830  69.8522490  12.9119660
  57.0707650  70.3086310  13.6777840  57.0880530  68.9579620  12.9942090
  59.0257200  83.0242090  17.0772850  58.9826830  82.6535000  17.9587310
  59.1568210  83.9619660  17.2174670  62.7263230  84.5801680  12.6782570
  62.4854590  84.8476240  11.7913090  63.6665870  84.7507410  12.7333430
  64.9317650  71.0434370  16.4339080  64.8706540  71.6356200  17.1834490
  65.8718030  70.9360330  16.2889340  67.5692210  70.7004430  16.0731370
  68.1832620  71.0183720  15.4112450  68.1141770  70.2153020  16.6927230
  73.9867390  86.5996060  13.4793210  73.4925670  86.9964930  12.7620340
  73.3780680  85.9745270  13.8730490  58.0913470  69.3798690  16.1870430
  58.6396460  69.1986740  15.4236540  58.1568780  68.5892800  16.7226740
  58.8645230  85.9704340  14.1970630  58.2705550  85.8389040  14.9360670
  58.8569070  85.1342480  13.7312730  68.3100250  69.2636570  12.4000660
  67.4360090  69.5971680  12.1973590  68.2011000  68.7909750  13.2252530
  69.2172230  71.4707440  13.7842380  68.8885590  70.6559200  13.4044110
  70.1654530  71.4277250  13.6608070  71.6706840  87.2419480  10.7579950
  71.2109810  87.9935290  10.3837970  71.0419300  86.5225950  10.6994750
  58.4957460  83.3362720  13.1478670  57.7691520  82.7168010  13.0804620
  58.5566610  83.7303330  12.2776750  62.1002560  85.5507720   9.9328080
  62.6167580  84.9395080   9.4076340  62.7499940  86.0536500  10.4239090
  64.8398060  86.4416210  10.7597060  65.1275870  86.1870510   9.8830070
  65.3521280  85.8893570  11.3502630  66.0575070  70.1806410  11.3393570
  65.2746860  70.6551910  11.6190330  65.7638000  69.2761240  11.2306750
  70.6096140  70.8829510   9.3842660  71.0504230  70.8274610   8.5364260
  70.3403730  71.7987520   9.4552840  72.4734710  70.5144750   7.3951480
  72.4123110  69.5705970   7.2482500  73.2526740  70.6224840   7.9404940
  56.7787460  86.6537110   6.3575430  56.6109500  86.0207790   7.0557320
  55.9121970  86.8596510   6.0069620  57.4015480  70.4853890   3.8607290
  58.1594840  70.5982770   3.2871320  56.9392650  71.3223090   3.8150720
  63.9429290  72.5993160   6.8509600  63.1303800  72.2250050   6.5105480
  64.4470930  71.8438240   7.1530790  68.4454270  69.2635610   8.0892670
  69.0483640  69.8355820   8.5641190  67.7047260  69.8275050   7.8666570
  71.5888870  69.6657170   3.3632950  71.7839500  70.5640620   3.6300380
  70.8018740  69.4344250   3.8565900  58.3850160  85.3470340   3.8025570
  57.8597780  85.7278370   3.0987530  58.3094740  85.9721110   4.5235280
  59.7740630  71.0117940   2.4009260  60.3033390  70.2247740   2.2717210
  60.4068950  71.6909130   2.6344790  61.9678470  70.7493080   5.4554650
  61.3381210  70.0480390   5.6224780  61.4283610  71.5097210   5.2387810
  64.9070420  87.3632310  18.1265260  65.8337730  87.1276580  18.1701220
  64.8920850  88.1904310  17.6451290  73.1415480  86.9057880   5.1239510
  73.3167670  86.2195620   4.4800430  72.4437050  87.4304930   4.7316180
  62.0934030  70.0277060  17.8907140  61.8118300  70.5310660  17.1267960
  62.4753730  69.2298810  17.5249270  60.9843130  87.2952720   2.6774820
  61.7161950  87.0112000   2.1298710  61.2436800  87.0566000   3.5674200
  60.1457920  83.4117450   2.6821150  59.5166800  83.8802550   3.2306980
  60.2605750  82.5666670   3.1167340  68.6949490  69.4430640  18.4687610
  68.5814940  69.7625250  19.3639130  69.5119230  69.8443150  18.1724890
  71.4747980  86.5902170  17.9506300  72.2673300  86.0951400  17.7432260
  71.7681130  87.2692310  18.5581910  67.6007640  58.6879620  45.1552820
  67.5201690  57.7734230  44.8844530  67.1872060  59.1846690  44.4492530
  65.7325680  60.4658640  47.0362090  64.9567780  59.9859080  47.3260660
  66.3838610  59.7864290  46.8618250  59.7491510  60.7778450  47.9137850
  58.9176390  60.5227160  48.3134360  60.3572490  60.8489220  48.6495770
  69.7533110  64.8718830  45.8161220  69.2914640  64.1006070  46.1448390
  70.5658660  64.8984900  46.3213670  59.7292770  64.8118540  48.1095870
  60.0320810  63.9216280  47.9306090  60.4736360  65.3688760  47.8818120
  58.1583460  55.7380340  41.6980240  57.2700160  56.0796310  41.5960120
  58.4424650  55.5380660  40.8061070  56.1216470  58.3385990  47.5819940
  56.6932580  57.5708190  47.5823580  56.1218010  58.6374750  46.6726550
  65.9796420  67.1576840  45.4365210  65.3607860  67.6134340  44.8659650
  66.8348200  67.3128300  45.0354910  65.1734670  63.1415830  47.0432250
  65.1042950  62.2005770  46.8821380  65.9354530  63.2317240  47.6154820
  57.3641340  53.7470350  49.3688870  57.1844180  52.8496100  49.6491630
  56.9621420  54.2942220  50.0435820  66.2039840  55.9486210  47.2701180
  66.5804660  55.0758090  47.1574850  66.1059350  56.2844910  46.3791620
  60.3344850  54.3211840  42.7318620  60.4411600  55.2215570  43.0387380
  59.4237210  54.2729810  42.4413270  69.9863960  53.4436650  44.2029520
  70.8073580  52.9533220  44.2455000  70.0198040  54.0334310  44.9561360
  57.9828010  56.2430850  47.9771210  58.6638120  56.5069220  48.5958610
  57.6676060  55.4031720  48.3109220  62.1752580  57.2898210  47.0643800
  62.6830800  57.7879180  47.7048820  62.7065820  56.5133410  46.8883160
  74.2763510  55.4603400  50.7673150  73.5715680  55.8485110  50.2488260
  74.5421430  56.1553690  51.3694080  60.4588680  51.9296770  51.3307220
  60.4607120  52.4469160  50.5253120  59.6292990  51.4526950  51.3077150
  66.8459770  62.0416080  42.8297120  66.2277040  62.5065530  42.2659840
  67.3583020  62.7343560  43.2466630  61.7091530  61.5691950  49.5080720
  61.3760910  62.1960870  50.1501790  61.8858210  62.0953830  48.7282390
  70.2225440  55.3837030  46.9757060  69.5181010  55.6721920  47.5560170
  70.5837600  56.1937140  46.6156620  60.1404010  53.6406730  49.3377670
  60.4820820  54.4848780  49.0431540  59.2019820  53.7890470  49.4543010
  60.9210630  63.5372750  51.3229900  61.5384630  64.2123830  51.0414350
  60.0603750  63.9460730  51.2317400  56.2142970  62.7272610  40.2036750
  55.8370950  63.2159710  39.4721650  56.4716040  63.3997890  40.8343280
  71.8388220  65.0012160  49.2384540  71.1551740  65.6711270  49.2301210
  72.3782510  65.1992810  48.4729400  73.2912360  54.8291820  47.3666270
  72.3437270  54.8630800  47.4981700  73.6162350  55.6430770  47.7515630
  63.8231900  51.1289000  45.6622260  64.1306880  50.5735890  44.9457760
  62.8932600  51.2633460  45.4795250  69.3746960  66.8456290  47.9529720
  69.3874120  66.4418580  47.0851980  68.8222180  67.6203580  47.8491150
  70.6692380  63.5672510  43.0419890  70.5588710  62.6246840  43.1669310
  70.6660630  63.9288150  43.9282650  68.7732400  61.7486130  49.2812330
  69.1901190  61.5346240  48.4465790  69.4972220  62.0058920  49.8520950
  66.2112660  59.1937830  42.3982380  65.2841940  59.1275210  42.6270850
  66.3637480  60.1317960  42.2837620  66.1981740  55.4654830  39.3949540
  65.2585410  55.6268790  39.4802000  66.5165000  56.1840510  38.8485530
  72.7194500  60.1473350  49.3728570  71.8913130  60.2166440  48.8978700
  73.3144980  60.7327660  48.9044400  70.2409950  60.7558130  42.9017630
  69.6222370  60.4177680  42.2543930  70.2234400  60.1117890  43.6096820
  69.6836510  56.9342670  50.3183440  69.2707690  57.7596380  50.5723430
  68.9512460  56.3487710  50.1259800  61.8169300  59.7202570  45.1802110
  61.4126300  59.0079820  44.6848010  61.9032420  59.3755810  46.0690150
  62.2851000  63.4070130  47.3441320  61.9879290  62.8015600  46.6649100
  63.2350820  63.4447440  47.2330680  60.5297920  56.4945780  48.9601150
  61.0812510  56.6041120  48.1854400  61.0441430  56.8683380  49.6756380
  70.3736610  66.9802000  51.0064420  69.8967170  67.7874190  50.8137030
  69.6898400  66.3280330  51.1590630  68.4174650  59.9944940  39.9090380
  68.8567930  59.1567370  39.7628200  69.1303070  60.6274340  39.9954520
  60.2040650  60.0165140  52.5706490  60.0648420  60.8887940  52.9393890
  59.3222010  59.6737950  52.4254430  66.5270030  64.9341010  43.8771620
  66.9665940  65.6765340  43.4627010  66.4656920  65.1767580  44.8010580
  71.9991790  51.2487750  38.2231420  71.6864450  51.3414580  39.1230490
  72.7604260  51.8268780  38.1728850  58.5173930  58.6147550  42.6808760
  58.3971530  59.3409640  42.0690030  58.2074820  57.8450460  42.2036670
  56.1559300  61.7862690  48.4877400  56.2339720  61.9211460  47.5433120
  56.7700980  61.0778580  48.6805520  57.4006930  63.4862880  44.8983580
  56.9935010  63.6277470  44.0437180  58.2919940  63.2023040  44.6954790
  73.3569070  63.9326790  53.2355820  73.4832130  63.6938670  52.3173000
  73.3990450  63.1011330  53.7077900  67.2185810  67.6354790  51.8050630
  67.7330480  67.5462800  52.6073060  66.3754890  67.9814490  52.0978540
  69.1940210  67.9210130  41.2334630  69.0341350  67.6313070  42.1316460
  69.0286920  67.1450260  40.6979860  61.6728590  67.7008660  43.0106250
  61.4971070  66.7844200  42.7974050  60.8184330  68.0595950  43.2504050
  68.8966340  65.4297690  39.7932630  68.2031500  65.4274980  39.1334910
  69.6389200  65.0057010  39.3626800  68.4616270  67.0560400  43.8681120
  68.9173220  66.2749780  44.1819740  68.8008790  67.7667220  44.4122300
  73.2093080  55.9859250  54.2005560  72.5937350  56.4938920  53.6721020
  72.8889500  55.0857580  54.1431500  56.2118820  62.8276860  51.0271860
  56.3749860  62.3582220  50.2091230  56.6771270  62.3200420  51.6920700
  60.9837590  51.9582620  46.0632430  60.5405740  52.7392160  45.7316950
  61.5422580  52.2812510  46.7703370  65.2707400  54.8251140  51.6667750
  64.8086770  55.0334160  52.4787690  64.8685510  54.0110490  51.3638420
  70.2711910  56.0460090  52.7964410  69.4205500  55.7465840  53.1173480
  70.1113700  56.2902100  51.8848230  64.0996410  51.5793320  40.9438260
  63.4750590  51.5753190  41.6691570  64.0126530  50.7124280  40.5474230
  63.0213490  52.5029950  47.9222030  63.3185820  53.4092780  47.8414050
  63.5699050  52.0148730  47.3081600  60.7751810  57.0816190  43.7913680
  60.5492730  56.8653360  44.6960300  59.9944340  57.5144650  43.4459650
  68.0049570  57.0879560  42.3904330  67.4058460  57.8115360  42.2067950
  68.5529180  57.0256340  41.6080780  66.6114440  55.7243100  44.4207610
  67.0044010  56.0415300  43.6076300  66.9731290  54.8454980  44.5352130
  58.3461560  54.3915440  52.6107730  57.9524950  55.2390650  52.8180510
  57.6579960  53.7541810  52.8016370  55.6478610  52.3143900  46.6437810
  55.3591660  52.8846760  47.3562790  56.3924370  51.8348350  47.0069040
  55.8348840  56.2564020  37.8540530  55.7523510  57.1994780  37.9955520
  55.4831900  56.1138930  36.9752880  67.1969580  58.3148850  48.5158390
  66.4650700  58.8235660  48.8648490  66.7993920  57.4978830  48.2147170
  63.6346970  54.9903050  46.9210880  63.6383030  54.5493000  46.0715420
  64.5298090  55.3120380  47.0282700  59.4849350  54.8729540  45.8805090
  59.1449400  55.3504770  46.6372140  58.7226670  54.4194660  45.5206190
  63.6967120  55.9915130  39.9117640  63.8179940  55.9501610  40.8603460
  63.3115630  56.8539280  39.7564370  67.6595490  53.7682530  47.9281330
  67.6768230  54.2191180  48.7723180  67.4111070  52.8688170  48.1414770
  62.7088620  58.3016270  39.3100940  62.1405520  57.8534520  38.6836850
  63.4177620  58.6609050  38.7766090  57.7857800  62.2028290  53.1867670
  57.4012590  61.5621960  53.7850630  58.0969990  62.9064410  53.7562400
  63.9354940  59.0504830  48.6676290  64.3025070  58.5763400  49.4137630
  63.7460000  59.9246400  49.0084630  56.7995430  53.7948520  44.7969760
  56.5142350  53.4304190  45.6348380  56.7374290  53.0628980  44.1832900
  61.7254310  58.0913470  50.9860500  61.4211380  58.9705450  51.2110860
  62.6800770  58.1513260  51.0217940  60.2536100  62.2974460  41.5827350
  59.4798360  61.7572080  41.4226070  60.9830730  61.7781070  41.2445110
  71.0124080  61.2939820  47.3753740  71.7323200  61.7895110  46.9849850
  70.8105900  60.6157710  46.7307610  66.4734020  52.6877780  41.5183130
  65.6598630  52.1890950  41.4428440  66.2795970  53.5276030  41.1019480
  66.3942880  61.3648880  53.2622740  66.3280190  60.4444550  53.0080330
  65.7648020  61.4624320  53.9767380  69.1882410  57.0597430  39.8145290
  70.0762030  57.3714660  39.6396630  69.1587500  56.1869680  39.4225870
  60.2973500  61.9654840  45.2206160  60.8152170  61.1623100  45.1663050
  59.8457520  61.9033980  46.0622990  65.1843000  63.2321120  40.4933460
  65.5258700  63.9763350  39.9976780  64.3555710  63.5452240  40.8558290
  57.7818040  58.9316210  52.1331860  57.4232980  59.5970060  52.7205200
  57.4872600  58.0999760  52.5044480  66.3259610  64.1869450  53.0126540
  66.3404150  63.2550410  52.7945450  65.6184710  64.2729210  53.6516310
  71.4596680  58.3709270  39.2825150  71.3760400  58.8023490  38.4321590
  72.1790870  58.8307620  39.7151970  72.5370820  60.8276790  52.3595120
  71.8119010  61.4205570  52.1624510  73.0646280  60.8200330  51.5608490
  72.4883930  65.2251530  42.0107280  71.8460090  64.5707150  42.2851000
  72.1014590  65.6306620  41.2347950  68.0670410  62.5536960  45.8578970
  68.4194230  61.9565090  45.1980340  67.1832740  62.2281190  46.0287220
  64.1533690  63.3134650  43.2649380  64.8404820  63.8603860  43.6456970
  63.3666110  63.8575380  43.2998990  56.2926090  58.9307470  38.7566460
  57.1620940  59.2132270  39.0402380  55.8016410  59.7443340  38.6415270
  63.4560900  60.3180680  42.8774740  63.9123680  61.1285930  43.1034930
  63.1049110  60.0003820  43.7093230  65.7593510  65.8287020  50.1067040
  66.4035730  66.0346400  50.7840460  66.1222950  65.0675420  49.6537890
  59.3572680  50.6618330  43.3497260  59.2287310  50.6536230  44.2982180
  58.5334700  51.0001420  42.9988270  67.0325590  63.8319370  48.8244490
  67.6747820  63.1312530  48.9376660  67.5574940  64.6117810  48.6441380
  70.8781310  64.1167990  38.5483630  70.6518890  63.3998430  39.1408270
  70.4877510  63.8680430  37.7105380  68.8063210  64.6314270  52.0280550
  69.1419450  65.2180960  52.7058470  67.8863550  64.5006980  52.2578340
  56.6597340  68.1434850  39.3228090  57.0194980  68.7424190  38.6685360
  56.5189680  68.6894740  40.0963120  56.3566610  52.4209450  52.8103960
  55.6425130  52.6206370  53.4156570  56.7761650  51.6449020  53.1818760
  70.4597560  62.0339930  40.2097790  70.1719260  62.4952620  40.9975670
  71.2549730  61.5737700  40.4782010  56.6439200  66.4089710  53.7970490
  56.7530320  65.4684450  53.6565880  55.9919760  66.6744460  53.1484220
  62.6765960  65.5266050  40.1401760  62.6676060  66.2595740  39.5246270
  61.7564320  65.2797630  40.2328720  58.2772600  60.7480940  40.8848520
  57.6700550  61.4879840  40.8943820  58.7521950  60.8380300  40.0586720
  67.8505390  54.9131760  50.5605410  68.2186210  54.0926970  50.8884980
  66.9903590  54.9733650  50.9761060  71.2167420  53.8688700  41.3692970
  70.5880580  53.9734370  40.6551200  70.7219340  54.0885480  42.1586850
  65.6625560  65.5894290  38.8026950  65.7637540  65.3858280  37.8728930
  64.7627300  65.3352570  39.0074730  63.1851450  56.1474650  42.7850850
  62.4767600  56.6160990  43.2264460  63.4695930  55.4896660  43.4196040
  64.8107380  57.5671350  50.7843380  65.3092630  58.0417170  51.4495230
  64.9530330  56.6434870  50.9913410  67.2166880  52.8725310  44.2246640
  67.0934660  52.8911440  43.2756150  68.1651440  52.9204250  44.3445040
  64.3043670  68.1080610  43.4974620  64.5585170  68.0702000  42.5753990
  63.3556150  67.9813940  43.4902870  61.3886470  54.4559730  40.1601560
  62.2377000  54.8929880  40.0941750  61.0217740  54.7679990  40.9873620
  72.0174240  53.7839310  51.6271770  71.5147840  54.5244710  51.9665580
  72.8330900  54.1723310  51.3108560  70.3096250  59.0272490  45.0733130
  69.3686390  59.0422720  45.2480820  70.6240320  58.2408450  45.5193430
  60.2877890  60.7092090  38.6337090  61.0541160  60.5973450  39.1962520
  60.3652580  60.0130060  37.9813860  58.9824650  58.1417160  39.3169980
  59.0628240  57.1944670  39.4287380  59.8744400  58.4724040  39.4230640
  72.3121830  66.1981340  46.7487390  72.4369250  67.0212510  47.2211200
  73.1787390  65.9872070  46.4011540  59.7839360  68.2912550  46.4204520
  60.5201840  67.7428010  46.6913090  60.1680280  69.1568560  46.2810510
  56.6684840  64.3586120  42.2946030  55.7424620  64.6007260  42.2851440
  57.1341270  65.1860380  42.1730780  62.8941670  67.4642860  38.2430090
  63.6870280  67.7531690  37.7911880  62.3746020  67.0335030  37.5642570
  71.9471840  66.6912990  39.6666830  71.6613350  66.2778130  38.8521010
  71.7491390  67.6200700  39.5467350  63.4119070  62.6846270  38.1072440
  63.3069710  62.0698620  38.8333820  63.2443290  62.1612160  37.3235450
  63.5633390  61.3703070  54.0861670  62.7979060  61.9388070  54.0016340
  63.7449350  61.0779280  53.1929900  66.6521800  61.7466300  38.7114430
  66.1031900  62.1935600  39.3557170  67.2741060  61.2415550  39.2352100
  62.3196920  60.7057220  40.6079730  62.7413340  60.5397090  41.4511120
  62.4447760  59.8957450  40.1134870  60.4824340  56.6853770  53.4150710
  59.9520800  56.1944720  52.7874050  61.1512410  57.1137970  52.8808640
  64.8324560  59.7294830  37.8556830  65.3530220  59.0143850  37.4897980
  65.4792960  60.3680700  38.1557340  69.3802400  61.1523230  53.1791900
  69.7943420  61.3068310  54.0282320  68.4453400  61.2778450  53.3417680
  60.9696640  53.6516140  53.4948000  60.8753510  53.0336890  52.7698870
  60.3894030  54.3782430  53.2677910  63.7358080  52.2089380  50.5275390
  63.2875380  52.2313640  49.6820940  63.1023280  51.8108400  51.1245690
  64.1417630  61.1043710  51.1487830  64.5605740  61.9476440  50.9764070
  63.2226260  61.2415750  50.9194610  66.4781530  58.8359890  52.5325670
  66.5977740  58.2401030  53.2720510  67.3375530  58.8729580  52.1126970
  68.8169430  59.3897080  51.1088180  68.2904650  59.9139700  50.5053320
  69.1600770  60.0224470  51.7397910  61.2155820  56.7790450  37.5537890
  61.0144880  55.9157810  37.9151230  61.0447870  56.6923810  36.6159490
  61.9925050  67.4096720  52.2645560  61.4546140  68.1342780  51.9454260
  62.2459010  66.9327060  51.4742900  68.6944130  51.5898680  40.0824770
  68.9746420  50.7466580  40.4384190  67.9209860  51.8221790  40.5963520
  60.0138620  53.8791070  37.5415770  60.3164520  53.8858500  36.6334920
  60.7533210  53.5288930  38.0383430  64.8487260  68.6447930  52.5232210
  64.7745960  69.5483070  52.8304580  63.9466100  68.3259830  52.4954280
  63.2323550  52.8225690  38.5271970  62.8845550  52.1449680  37.9474420
  63.4336320  52.3615200  39.3415360  65.3972590  67.8106440  40.1458570
  66.2923380  68.1491410  40.1677330  65.4290220  67.0885850  39.5182850
  59.0368750  63.1833490  38.3745570  59.4743620  63.7263160  39.0303150
  59.5216480  62.3580440  38.3841910  56.2514550  65.9722520  45.8265830
  56.5817560  65.1043580  45.5944470  56.6805550  66.1781040  46.6570790
  60.8476470  64.3031530  43.4867800  60.5472010  64.1796500  44.3871710
  60.7413960  63.4440120  43.0783530  56.7404760  66.8393110  48.5647460
  56.3035750  67.0193910  49.3971610  57.3082440  67.5967730  48.4229180
  72.3766940  66.3410110  52.8524770  71.7768930  66.4002670  52.1088690
  72.5060840  65.4015090  52.9821620  73.6168390  64.0827930  38.1894480
  72.7861350  64.1504580  38.6601710  73.7940220  64.9732050  37.8861340
  73.0724850  60.8275410  40.6928680  73.8343760  61.3972060  40.7988370
  73.0879220  60.2602610  41.4636990  56.5729190  59.3513340  44.9236340
  55.9178030  59.0824980  44.2796040  57.4107140  59.2417820  44.4738320
  74.0784820  61.6825510  45.5370610  74.4493650  60.8992830  45.1306580
  74.7186750  62.3714610  45.3587910  71.0618580  63.0662090  50.9500930
  70.2478420  63.4959250  51.2126720  71.4692780  63.6780500  50.3369980
  73.1244020  61.1209780  37.8501200  73.3992860  62.0288660  37.7220420
  72.9354760  61.0572310  38.7863190  69.5219630  54.1454630  39.1454830
  69.9404510  53.9585610  38.3051490  69.2155690  53.2933680  39.4557760
  73.0209360  59.0578770  42.8430630  72.6452960  58.2906700  42.4111920
  72.2912480  59.4401470  43.3305560  57.6105120  59.7365910  49.4639680
  57.9778160  59.6493310  50.3435700  57.0415940  58.9732460  49.3646540
  72.4108980  58.2050290  52.4770150  72.1795070  57.9763040  51.5768100
  72.6713530  59.1249840  52.4315040  57.1621120  56.6475000  53.3698100
  56.2677170  56.6141760  53.7091810  57.7018670  56.8461790  54.1349350
  55.7867270  56.5612270  40.8661670  54.8831350  56.8242470  40.6913330
  56.2707890  56.8323440  40.0861630  72.2960320  57.2836260  46.1437870
  72.8197800  56.7898910  45.5128040  72.8819740  57.4186620  46.8885440
  72.4750040  57.3676130  49.6657420  71.5252750  57.3339670  49.7802410
  72.6563050  58.2776240  49.4307190  58.3294480  55.6177810  38.7756050
  59.0386180  55.1961030  38.2903330  57.6134420  55.6853040  38.1439400
  57.9768640  51.6717140  37.8158700  58.6996770  52.2126080  38.1339920
  58.2493160  51.3980560  36.9400240  71.7860290  56.5409610  42.0830280
  72.2819410  56.3080480  42.8679160  71.5876360  55.7021450  41.6667920
  57.6660830  50.9223330  47.7181320  58.3137020  50.3720710  47.2776480
  58.0862670  51.1766480  48.5397130  73.2147450  55.1770560  44.6167960
  73.1046730  55.0226600  45.5550230  73.9755040  54.6491500  44.3743370
  71.5613170  51.1164690  51.0750960  72.1985390  51.7298830  51.4410150
  71.7088060  51.1525350  50.1300190  74.1037720  53.0078480  37.8574100
  75.0287030  52.8759660  37.6492390  74.0813510  53.0871300  38.8110550
  74.1776210  53.7789140  40.4830810  73.3827710  53.7134260  41.0123720
  74.3819490  54.7139780  40.4716160  71.1194630  67.8180690  44.4769200
  71.7153700  67.4965260  43.8003620  71.3772780  67.3452510  45.2682470
  57.4192830  51.0779000  50.4606640  57.0707650  51.5342820  51.2264820
  57.0880530  50.1836130  50.5429070  62.7263230  65.8058190  50.2269550
  62.4854590  66.0732750  49.3400070  63.6665870  65.9763920  50.2820410
  73.9867390  67.8252570  51.0280190  73.4925670  68.2221440  50.3107320
  73.3780680  67.2001780  51.4217470  58.8645230  67.1960850  51.7457610
  58.2705550  67.0645550  52.4847650  58.8569070  66.3598990  51.2799710
  68.3100250  50.4893080  49.9487640  67.4360090  50.8228190  49.7460570
  68.2011000  50.0166260  50.7739510  69.2172230  52.6963950  51.3329360
  68.8885590  51.8815710  50.9531090  70.1654530  52.6533760  51.2095050
  71.6706840  68.4675990  48.3066930  71.2109810  69.2191800  47.9324950
  71.0419300  67.7482460  48.2481730  58.4957460  64.5619230  50.6965650
  57.7691520  63.9424520  50.6291600  58.5566610  64.9559840  49.8263730
  62.1002560  66.7764230  47.4815060  62.6167580  66.1651590  46.9563320
  62.7499940  67.2793010  47.9726070  64.8398060  67.6672720  48.3084040
  65.1275870  67.4127020  47.4317050  65.3521280  67.1150080  48.8989610
  66.0575070  51.4062920  48.8880550  65.2746860  51.8808420  49.1677310
  65.7638000  50.5017750  48.7793730  70.6096140  52.1086020  46.9329640
  71.0504230  52.0531120  46.0851240  70.3403730  53.0244030  47.0039820
  72.4734710  51.7401260  44.9438460  72.4123110  50.7962480  44.7969480
  73.2526740  51.8481350  45.4891920  56.7787460  67.8793620  43.9062410
  56.6109500  67.2464300  44.6044300  55.9121970  68.0853020  43.5556600
  57.4015480  51.7110400  41.4094270  58.1594840  51.8239280  40.8358300
  56.9392650  52.5479600  41.3637700  63.9429290  53.8249670  44.3996580
  63.1303800  53.4506560  44.0592460  64.4470930  53.0694750  44.7017770
  68.4454270  50.4892120  45.6379650  69.0483640  51.0612330  46.1128170
  67.7047260  51.0531560  45.4153550  71.5888870  50.8913680  40.9119930
  71.7839500  51.7897130  41.1787360  70.8018740  50.6600760  41.4052880
  58.3850160  66.5726850  41.3512550  57.8597780  66.9534880  40.6474510
  58.3094740  67.1977620  42.0722260  59.7740630  52.2374450  39.9496240
  60.3033390  51.4504250  39.8204190  60.4068950  52.9165640  40.1831770
  61.9678470  51.9749590  43.0041630  61.3381210  51.2736900  43.1711760
  61.4283610  52.7353720  42.7874790  73.1415480  68.1314390  42.6726490
  73.3167670  67.4452130  42.0287410  72.4437050  68.6561440  42.2803160
  60.9843130  68.5209230  40.2261800  61.7161950  68.2368510  39.6785690
  61.2436800  68.2822510  41.1161180  60.1457920  64.6373960  40.2308130
  59.5166800  65.1059060  40.7793960  60.2605750  63.7923180  40.6654320
  67.6007640  58.6879620  26.3809330  67.5201690  57.7734230  26.1101040
  67.1872060  59.1846690  25.6749040  65.7325680  60.4658640  28.2618600
  64.9567780  59.9859080  28.5517170  66.3838610  59.7864290  28.0874760
  58.1583460  55.7380340  22.9236750  57.2700160  56.0796310  22.8216630
  58.4424650  55.5380660  22.0317580  57.3641340  53.7470350  30.5945380
  57.1844180  52.8496100  30.8748140  56.9621420  54.2942220  31.2692330
  66.2039840  55.9486210  28.4957690  66.5804660  55.0758090  28.3831360
  66.1059350  56.2844910  27.6048130  60.3344850  54.3211840  23.9575130
  60.4411600  55.2215570  24.2643890  59.4237210  54.2729810  23.6669780
  69.9863960  53.4436650  25.4286030  70.8073580  52.9533220  25.4711510
  70.0198040  54.0334310  26.1817870  57.9828010  56.2430850  29.2027720
  58.6638120  56.5069220  29.8215120  57.6676060  55.4031720  29.5365730
  62.1752580  57.2898210  28.2900310  62.6830800  57.7879180  28.9305330
  62.7065820  56.5133410  28.1139670  74.2763510  55.4603400  31.9929660
  73.5715680  55.8485110  31.4744770  74.5421430  56.1553690  32.5950590
  60.4588680  51.9296770  32.5563730  60.4607120  52.4469160  31.7509630
  59.6292990  51.4526950  32.5333660  66.8459770  62.0416080  24.0553630
  66.2277040  62.5065530  23.4916350  67.3583020  62.7343560  24.4723140
  61.7091530  61.5691950  30.7337230  61.3760910  62.1960870  31.3758300
  61.8858210  62.0953830  29.9538900  70.2225440  55.3837030  28.2013570
  69.5181010  55.6721920  28.7816680  70.5837600  56.1937140  27.8413130
  60.1404010  53.6406730  30.5634180  60.4820820  54.4848780  30.2688050
  59.2019820  53.7890470  30.6799520  60.9210630  63.5372750  32.5486410
  61.5384630  64.2123830  32.2670860  60.0603750  63.9460730  32.4573910
  56.2142970  62.7272610  21.4293260  55.8370950  63.2159710  20.6978160
  56.4716040  63.3997890  22.0599790  71.8388220  65.0012160  30.4641050
  71.1551740  65.6711270  30.4557720  72.3782510  65.1992810  29.6985910
  73.2912360  54.8291820  28.5922780  72.3437270  54.8630800  28.7238210
  73.6162350  55.6430770  28.9772140  63.8231900  51.1289000  26.8878770
  64.1306880  50.5735890  26.1714270  62.8932600  51.2633460  26.7051760
  70.6692380  63.5672510  24.2676400  70.5588710  62.6246840  24.3925820
  70.6660630  63.9288150  25.1539160  68.7732400  61.7486130  30.5068840
  69.1901190  61.5346240  29.6722300  69.4972220  62.0058920  31.0777460
  66.2112660  59.1937830  23.6238890  65.2841940  59.1275210  23.8527360
  66.3637480  60.1317960  23.5094130  66.1981740  55.4654830  20.6206050
  65.2585410  55.6268790  20.7058510  66.5165000  56.1840510  20.0742040
  72.7194500  60.1473350  30.5985080  71.8913130  60.2166440  30.1235210
  73.3144980  60.7327660  30.1300910  70.2409950  60.7558130  24.1274140
  69.6222370  60.4177680  23.4800440  70.2234400  60.1117890  24.8353330
  69.6836510  56.9342670  31.5439950  69.2707690  57.7596380  31.7979940
  68.9512460  56.3487710  31.3516310  61.8169300  59.7202570  26.4058620
  61.4126300  59.0079820  25.9104520  61.9032420  59.3755810  27.2946660
  60.5297920  56.4945780  30.1857660  61.0812510  56.6041120  29.4110910
  61.0441430  56.8683380  30.9012890  70.3736610  66.9802000  32.2320930
  69.8967170  67.7874190  32.0393540  69.6898400  66.3280330  32.3847140
  61.3769430  63.1451820  35.2205630  60.4797960  63.3691790  35.4679030
  61.4022300  63.2686760  34.2717030  68.4174650  59.9944940  21.1346890
  68.8567930  59.1567370  20.9884710  69.1303070  60.6274340  21.2211030
  60.2040650  60.0165140  33.7963000  60.0648420  60.8887940  34.1650400
  59.3222010  59.6737950  33.6510940  66.5270030  64.9341010  25.1028130
  66.9665940  65.6765340  24.6883520  66.4656920  65.1767580  26.0267090
  62.0021000  65.9586840  36.0048150  61.9736430  66.3629790  35.1376580
  61.8385970  65.0297200  35.8419750  71.9991790  51.2487750  19.4487930
  71.6864450  51.3414580  20.3487000  72.7604260  51.8268780  19.3985360
  58.5173930  58.6147550  23.9065270  58.3971530  59.3409640  23.2946540
  58.2074820  57.8450460  23.4293180  73.9535820  66.7413940  37.3012320
  74.4295540  67.2196830  37.9801400  74.5742980  66.6731430  36.5757820
  73.3569070  63.9326790  34.4612330  73.4832130  63.6938670  33.5429510
  73.3990450  63.1011330  34.9334410  69.1940210  67.9210130  22.4591140
  69.0341350  67.6313070  23.3572970  69.0286920  67.1450260  21.9236370
  61.6728590  67.7008660  24.2362760  61.4971070  66.7844200  24.0230560
  60.8184330  68.0595950  24.4760560  68.8966340  65.4297690  21.0189140
  68.2031500  65.4274980  20.3591420  69.6389200  65.0057010  20.5883310
  73.2093080  55.9859250  35.4262070  72.5937350  56.4938920  34.8977530
  72.8889500  55.0857580  35.3688010  60.9837590  51.9582620  27.2888940
  60.5405740  52.7392160  26.9573460  61.5422580  52.2812510  27.9959880
  65.2707400  54.8251140  32.8924260  64.8086770  55.0334160  33.7044200
  64.8685510  54.0110490  32.5894930  70.2711910  56.0460090  34.0220920
  69.4205500  55.7465840  34.3429990  70.1113700  56.2902100  33.1104740
  67.3661620  57.5461840  36.1219710  67.6915030  56.7125590  35.7821940
  68.1541950  58.0690360  36.2698040  64.0996410  51.5793320  22.1694770
  63.4750590  51.5753190  22.8948080  64.0126530  50.7124280  21.7730740
  63.0213490  52.5029950  29.1478540  63.3185820  53.4092780  29.0670560
  63.5699050  52.0148730  28.5338110  60.7751810  57.0816190  25.0170190
  60.5492730  56.8653360  25.9216810  59.9944340  57.5144650  24.6716160
  68.0049570  57.0879560  23.6160840  67.4058460  57.8115360  23.4324460
  68.5529180  57.0256340  22.8337290  63.2151020  57.9801770  35.6830460
  63.1194620  57.0396500  35.5330860  64.0583000  58.2016840  35.2878530
  66.6114440  55.7243100  25.6464120  67.0044010  56.0415300  24.8332810
  66.9731290  54.8454980  25.7608640  58.3461560  54.3915440  33.8364240
  57.9524950  55.2390650  34.0437020  57.6579960  53.7541810  34.0272880
  64.9206610  54.4750410  36.9060980  64.2304930  54.2822610  37.5407070
  65.6638910  54.7585050  37.4385280  55.6478610  52.3143900  27.8694320
  55.3591660  52.8846760  28.5819300  56.3924370  51.8348350  28.2325550
  55.8348840  56.2564020  19.0797040  55.7523510  57.1994780  19.2212030
  55.4831900  56.1138930  18.2009390  67.1969580  58.3148850  29.7414900
  66.4650700  58.8235660  30.0905000  66.7993920  57.4978830  29.4403680
  63.6346970  54.9903050  28.1467390  63.6383030  54.5493000  27.2971930
  64.5298090  55.3120380  28.2539210  59.4849350  54.8729540  27.1061600
  59.1449400  55.3504770  27.8628650  58.7226670  54.4194660  26.7462700
  63.6967120  55.9915130  21.1374150  63.8179940  55.9501610  22.0859970
  63.3115630  56.8539280  20.9820880  67.6595490  53.7682530  29.1537840
  67.6768230  54.2191180  29.9979690  67.4111070  52.8688170  29.3671280
  62.7088620  58.3016270  20.5357450  62.1405520  57.8534520  19.9093360
  63.4177620  58.6609050  20.0022600  71.0866240  51.1814710  34.9924220
  71.4112010  50.4504370  35.5182200  71.1222750  50.8628350  34.0905210
  57.7857800  62.2028290  34.4124180  57.4012590  61.5621960  35.0107140
  58.0969990  62.9064410  34.9818910  63.9354940  59.0504830  29.8932800
  64.3025070  58.5763400  30.6394140  63.7460000  59.9246400  30.2341140
  56.7995430  53.7948520  26.0226270  56.5142350  53.4304190  26.8604890
  56.7374290  53.0628980  25.4089410  61.7254310  58.0913470  32.2117010
  61.4211380  58.9705450  32.4367370  62.6800770  58.1513260  32.2474450
  60.2536100  62.2974460  22.8083860  59.4798360  61.7572080  22.6482580
  60.9830730  61.7781070  22.4701620  71.0124080  61.2939820  28.6010250
  71.7323200  61.7895110  28.2106360  70.8105900  60.6157710  27.9564120
  66.4734020  52.6877780  22.7439640  65.6598630  52.1890950  22.6684950
  66.2795970  53.5276030  22.3275990  66.3942880  61.3648880  34.4879250
  66.3280190  60.4444550  34.2336840  65.7648020  61.4624320  35.2023890
  69.1882410  57.0597430  21.0401800  70.0762030  57.3714660  20.8653140
  69.1587500  56.1869680  20.6482380  60.2973500  61.9654840  26.4462670
  60.8152170  61.1623100  26.3919560  59.8457520  61.9033980  27.2879500
  65.1843000  63.2321120  21.7189970  65.5258700  63.9763350  21.2233290
  64.3555710  63.5452240  22.0814800  57.7818040  58.9316210  33.3588370
  57.4232980  59.5970060  33.9461710  57.4872600  58.0999760  33.7300990
  60.9831160  59.3900450  36.2427920  60.6831300  59.5357630  35.3455740
  61.7542400  58.8305740  36.1501310  66.3259610  64.1869450  34.2383050
  66.3404150  63.2550410  34.0201960  65.6184710  64.2729210  34.8772820
  71.4596680  58.3709270  20.5081660  71.3760400  58.8023490  19.6578100
  72.1790870  58.8307620  20.9408480  72.5370820  60.8276790  33.5851630
  71.8119010  61.4205570  33.3881020  73.0646280  60.8200330  32.7865000
  72.4883930  65.2251530  23.2363790  71.8460090  64.5707150  23.5107510
  72.1014590  65.6306620  22.4604460  68.0670410  62.5536960  27.0835480
  68.4194230  61.9565090  26.4236850  67.1832740  62.2281190  27.2543730
  64.1533690  63.3134650  24.4905890  64.8404820  63.8603860  24.8713480
  63.3666110  63.8575380  24.5255500  56.2926090  58.9307470  19.9822970
  57.1620940  59.2132270  20.2658890  55.8016410  59.7443340  19.8671780
  63.4560900  60.3180680  24.1031250  63.9123680  61.1285930  24.3291440
  63.1049110  60.0003820  24.9349740  59.3572680  50.6618330  24.5753770
  59.2287310  50.6536230  25.5238690  58.5334700  51.0001420  24.2244780
  70.8781310  64.1167990  19.7740140  70.6518890  63.3998430  20.3664780
  70.4877510  63.8680430  18.9361890  68.8063210  64.6314270  33.2537060
  69.1419450  65.2180960  33.9314980  67.8863550  64.5006980  33.4834850
  56.6597340  68.1434850  20.5484600  57.0194980  68.7424190  19.8941870
  56.5189680  68.6894740  21.3219630  56.3566610  52.4209450  34.0360470
  55.6425130  52.6206370  34.6413080  56.7761650  51.6449020  34.4075270
  70.4597560  62.0339930  21.4354300  70.1719260  62.4952620  22.2232180
  71.2549730  61.5737700  21.7038520  56.6439200  66.4089710  35.0227000
  56.7530320  65.4684450  34.8822390  55.9919760  66.6744460  34.3740730
  64.6351790  64.6805600  36.4225120  64.3148660  63.9614840  36.9670810
  63.9610150  65.3560670  36.4961180  62.6765960  65.5266050  21.3658270
  62.6676060  66.2595740  20.7502780  61.7564320  65.2797630  21.4585230
  58.2772600  60.7480940  22.1105030  57.6700550  61.4879840  22.1200330
  58.7521950  60.8380300  21.2843230  67.8505390  54.9131760  31.7861920
  68.2186210  54.0926970  32.1141490  66.9903590  54.9733650  32.2017570
  71.2167420  53.8688700  22.5949480  70.5880580  53.9734370  21.8807710
  70.7219340  54.0885480  23.3843360  65.6625560  65.5894290  20.0283460
  65.7637540  65.3858280  19.0985440  64.7627300  65.3352570  20.2331240
  63.1851450  56.1474650  24.0107360  62.4767600  56.6160990  24.4520970
  63.4695930  55.4896660  24.6452550  64.8107380  57.5671350  32.0099890
  65.3092630  58.0417170  32.6751740  64.9530330  56.6434870  32.2169920
  67.2166880  52.8725310  25.4503150  67.0934660  52.8911440  24.5012660
  68.1651440  52.9204250  25.5701550  64.3043670  68.1080610  24.7231130
  64.5585170  68.0702000  23.8010500  63.3556150  67.9813940  24.7159380
  61.3886470  54.4559730  21.3858070  62.2377000  54.8929880  21.3198260
  61.0217740  54.7679990  22.2130130  72.0174240  53.7839310  32.8528280
  71.5147840  54.5244710  33.1922090  72.8330900  54.1723310  32.5365070
  70.3096250  59.0272490  26.2989640  69.3686390  59.0422720  26.4737330
  70.6240320  58.2408450  26.7449940  60.2877890  60.7092090  19.8593600
  61.0541160  60.5973450  20.4219030  60.3652580  60.0130060  19.2070370
  58.9824650  58.1417160  20.5426490  59.0628240  57.1944670  20.6543890
  59.8744400  58.4724040  20.6487150  72.3121830  66.1981340  27.9743900
  72.4369250  67.0212510  28.4467710  73.1787390  65.9872070  27.6268050
  56.6684840  64.3586120  23.5202540  55.7424620  64.6007260  23.5107950
  57.1341270  65.1860380  23.3987290  58.7897640  67.4758620  36.8346610
  59.5910370  67.7970670  37.2482010  58.2749460  67.1154200  37.5566520
  62.8941670  67.4642860  19.4686600  63.6870280  67.7531690  19.0168390
  62.3746020  67.0335030  18.7899080  67.6262270  63.5838490  36.7822020
  67.0200430  63.6070090  36.0417770  67.3216380  62.8521530  37.3189270
  69.0562640  67.3118780  35.3931430  70.0084390  67.2276800  35.3431670
  68.9090860  67.9760490  36.0665220  71.9471840  66.6912990  20.8923340
  71.6613350  66.2778130  20.0777520  71.7491390  67.6200700  20.7723860
  56.5095450  59.9632080  35.7782660  57.0134470  59.3839360  36.3498890
  55.7702870  60.2472310  36.3159030  63.4119070  62.6846270  19.3328950
  63.3069710  62.0698620  20.0590330  63.2443290  62.1612160  18.5491960
  63.5633390  61.3703070  35.3118180  62.7979060  61.9388070  35.2272850
  63.7449350  61.0779280  34.4186410  66.6521800  61.7466300  19.9370940
  66.1031900  62.1935600  20.5813680  67.2741060  61.2415550  20.4608610
  70.7056740  63.1008400  35.8693200  71.4466210  63.4384160  35.3660660
  69.9429420  63.2700460  35.3162970  58.5418530  58.1061670  36.6732730
  58.5823870  57.8075540  37.5817960  59.3964030  58.5069280  36.5140250
  62.3196920  60.7057220  21.8336240  62.7413340  60.5397090  22.6767630
  62.4447760  59.8957450  21.3391380  60.4824340  56.6853770  34.6407220
  59.9520800  56.1944720  34.0130560  61.1512410  57.1137970  34.1065150
  64.8324560  59.7294830  19.0813340  65.3530220  59.0143850  18.7154490
  65.4792960  60.3680700  19.3813850  69.3802400  61.1523230  34.4048410
  69.7943420  61.3068310  35.2538830  68.4453400  61.2778450  34.5674190
  69.8524570  58.4919390  36.4087560  70.4345340  57.7371710  36.3208040
  70.0286340  59.0226830  35.6319040  60.9696640  53.6516140  34.7204510
  60.8753510  53.0336890  33.9955380  60.3894030  54.3782430  34.4934420
  63.7358080  52.2089380  31.7531900  63.2875380  52.2313640  30.9077450
  63.1023280  51.8108400  32.3502200  64.1417630  61.1043710  32.3744340
  64.5605740  61.9476440  32.2020580  63.2226260  61.2415750  32.1451120
  66.4781530  58.8359890  33.7582180  66.5977740  58.2401030  34.4977020
  67.3375530  58.8729580  33.3383480  68.8169430  59.3897080  32.3344690
  68.2904650  59.9139700  31.7309830  69.1600770  60.0224470  32.9654420
  61.2155820  56.7790450  18.7794400  61.0144880  55.9157810  19.1407740
  61.0447870  56.6923810  17.8416000  61.9925050  67.4096720  33.4902070
  61.4546140  68.1342780  33.1710770  62.2459010  66.9327060  32.6999410
  63.2450300  55.3781240  35.0158000  63.8349990  55.0697090  35.7035820
  62.4270540  54.9060990  35.1717900  68.0643730  54.9947050  35.2491020
  67.3759250  54.3328590  35.1841010  68.7849750  54.5485320  35.6939480
  68.6944130  51.5898680  21.3081280  68.9746420  50.7466580  21.6640700
  67.9209860  51.8221790  21.8220030  60.0138620  53.8791070  18.7672280
  60.3164520  53.8858500  17.8591430  60.7533210  53.5288930  19.2639940
  64.8487260  68.6447930  33.7488720  64.7745960  69.5483070  34.0561090
  63.9466100  68.3259830  33.7210790  63.2323550  52.8225690  19.7528480
  62.8845550  52.1449680  19.1730930  63.4336320  52.3615200  20.5671870
  65.3972590  67.8106440  21.3715080  66.2923380  68.1491410  21.3933840
  65.4290220  67.0885850  20.7439360  59.0368750  63.1833490  19.6002080
  59.4743620  63.7263160  20.2559660  59.5216480  62.3580440  19.6098420
  60.8476470  64.3031530  24.7124310  60.5472010  64.1796500  25.6128220
  60.7413960  63.4440120  24.3040040  72.3766940  66.3410110  34.0781280
  71.7768930  66.4002670  33.3345200  72.5060840  65.4015090  34.2078130
  73.6168390  64.0827930  19.4150990  72.7861350  64.1504580  19.8858220
  73.7940220  64.9732050  19.1117850  73.0724850  60.8275410  21.9185190
  73.8343760  61.3972060  22.0244880  73.0879220  60.2602610  22.6893500
  56.5729190  59.3513340  26.1492850  55.9178030  59.0824980  25.5052550
  57.4107140  59.2417820  25.6994830  74.0784820  61.6825510  26.7627120
  74.4493650  60.8992830  26.3563090  74.7186750  62.3714610  26.5844420
  71.0618580  63.0662090  32.1757440  70.2478420  63.4959250  32.4383230
  71.4692780  63.6780500  31.5626490  73.1244020  61.1209780  19.0757710
  73.3992860  62.0288660  18.9476930  72.9354760  61.0572310  20.0119700
  69.5219630  54.1454630  20.3711340  69.9404510  53.9585610  19.5308000
  69.2155690  53.2933680  20.6814270  73.0209360  59.0578770  24.0687140
  72.6452960  58.2906700  23.6368430  72.2912480  59.4401470  24.5562070
  72.4108980  58.2050290  33.7026660  72.1795070  57.9763040  32.8024610
  72.6713530  59.1249840  33.6571550  57.1621120  56.6475000  34.5954610
  56.2677170  56.6141760  34.9348320  57.7018670  56.8461790  35.3605860
  70.8497050  53.4306720  36.4806360  71.7267230  53.4390120  36.8640360
  70.8617890  52.6937560  35.8698710  55.7867270  56.5612270  22.0918180
  54.8831350  56.8242470  21.9169840  56.2707890  56.8323440  21.3118140
  72.2960320  57.2836260  27.3694380  72.8197800  56.7898910  26.7384550
  72.8819740  57.4186620  28.1141950  72.4750040  57.3676130  30.8913930
  71.5252750  57.3339670  31.0058920  72.6563050  58.2776240  30.6563700
  58.3294480  55.6177810  20.0012560  59.0386180  55.1961030  19.5159840
  57.6134420  55.6853040  19.3695910  57.9768640  51.6717140  19.0415210
  58.6996770  52.2126080  19.3596430  58.2493160  51.3980560  18.1656750
  71.7860290  56.5409610  23.3086790  72.2819410  56.3080480  24.0935670
  71.5876360  55.7021450  22.8924430  57.6660830  50.9223330  28.9437830
  58.3137020  50.3720710  28.5032990  58.0862670  51.1766480  29.7653640
  73.2147450  55.1770560  25.8424470  73.1046730  55.0226600  26.7806740
  73.9755040  54.6491500  25.5999880  71.5613170  51.1164690  32.3007470
  72.1985390  51.7298830  32.6666660  71.7088060  51.1525350  31.3556700
  74.1037720  53.0078480  19.0830610  75.0287030  52.8759660  18.8748900
  74.0813510  53.0871300  20.0367060  74.1776210  53.7789140  21.7087320
  73.3827710  53.7134260  22.2380230  74.3819490  54.7139780  21.6972670
  71.1194630  67.8180690  25.7025710  71.7153700  67.4965260  25.0260130
  71.3772780  67.3452510  26.4938980  57.4192830  51.0779000  31.6863150
  57.0707650  51.5342820  32.4521330  57.0880530  50.1836130  31.7685580
  59.0257200  64.2498600  35.8516340  58.9826830  63.8791510  36.7330800
  59.1568210  65.1876170  35.9918160  64.9317650  52.2690880  35.2082570
  64.8706540  52.8612710  35.9577980  65.8718030  52.1616840  35.0632830
  67.5692210  51.9260940  34.8474860  68.1832620  52.2440230  34.1855940
  68.1141770  51.4409530  35.4670720  73.9867390  67.8252570  32.2536700
  73.4925670  68.2221440  31.5363830  73.3780680  67.2001780  32.6473980
  58.0913470  50.6055200  34.9613920  58.6396460  50.4243250  34.1980030
  58.1568780  49.8149310  35.4970230  68.3100250  50.4893080  31.1744150
  67.4360090  50.8228190  30.9717080  68.2011000  50.0166260  31.9996020
  69.2172230  52.6963950  32.5585870  68.8885590  51.8815710  32.1787600
  70.1654530  52.6533760  32.4351560  66.0575070  51.4062920  30.1137060
  65.2746860  51.8808420  30.3933820  65.7638000  50.5017750  30.0050240
  70.6096140  52.1086020  28.1586150  71.0504230  52.0531120  27.3107750
  70.3403730  53.0244030  28.2296330  72.4734710  51.7401260  26.1694970
  72.4123110  50.7962480  26.0225990  73.2526740  51.8481350  26.7148430
  57.4015480  51.7110400  22.6350780  58.1594840  51.8239280  22.0614810
  56.9392650  52.5479600  22.5894210  63.9429290  53.8249670  25.6253090
  63.1303800  53.4506560  25.2848970  64.4470930  53.0694750  25.9274280
  68.4454270  50.4892120  26.8636160  69.0483640  51.0612330  27.3384680
  67.7047260  51.0531560  26.6410060  71.5888870  50.8913680  22.1376440
  71.7839500  51.7897130  22.4043870  70.8018740  50.6600760  22.6309390
  58.3850160  66.5726850  22.5769060  57.8597780  66.9534880  21.8731020
  58.3094740  67.1977620  23.2978770  59.7740630  52.2374450  21.1752750
  60.3033390  51.4504250  21.0460700  60.4068950  52.9165640  21.4088280
  61.9678470  51.9749590  24.2298140  61.3381210  51.2736900  24.3968270
  61.4283610  52.7353720  24.0131300  64.9070420  68.5888820  36.9008750
  65.8337730  68.3533090  36.9444710  64.8920850  69.4160820  36.4194780
  73.1415480  68.1314390  23.8983000  73.3167670  67.4452130  23.2543920
  72.4437050  68.6561440  23.5059670  62.0934030  51.2533570  36.6650630
  61.8118300  51.7567170  35.9011450  62.4753730  50.4555320  36.2992760
  60.9843130  68.5209230  21.4518310  61.7161950  68.2368510  20.9042200
  61.2436800  68.2822510  22.3417690  60.1457920  64.6373960  21.4564640
  59.5166800  65.1059060  22.0050470  60.2605750  63.7923180  21.8910830
  68.6949490  50.6687150  37.2431100  68.5814940  50.9881760  38.1382620
  69.5119230  51.0699660  36.9468380  71.4747980  67.8158680  36.7249790
  72.2673300  67.3207910  36.5175750  71.7681130  68.4948820  37.3325400
  67.6007640  58.6879620   7.6065840  67.5201690  57.7734230   7.3357550
  67.1872060  59.1846690   6.9005550  65.7325680  60.4658640   9.4875110
  64.9567780  59.9859080   9.7773680  66.3838610  59.7864290   9.3131270
  59.7491510  60.7778450  10.3650870  58.9176390  60.5227160  10.7647380
  60.3572490  60.8489220  11.1008790  69.7533110  64.8718830   8.2674240
  69.2914640  64.1006070   8.5961410  70.5658660  64.8984900   8.7726690
  59.7292770  64.8118540  10.5608890  60.0320810  63.9216280  10.3819110
  60.4736360  65.3688760  10.3331140  58.1583460  55.7380340   4.1493260
  57.2700160  56.0796310   4.0473140  58.4424650  55.5380660   3.2574090
  56.1216470  58.3385990  10.0332960  56.6932580  57.5708190  10.0336600
  56.1218010  58.6374750   9.1239570  65.9796420  67.1576840   7.8878230
  65.3607860  67.6134340   7.3172670  66.8348200  67.3128300   7.4867930
  65.1734670  63.1415830   9.4945270  65.1042950  62.2005770   9.3334400
  65.9354530  63.2317240  10.0667840  57.3641340  53.7470350  11.8201890
  57.1844180  52.8496100  12.1004650  56.9621420  54.2942220  12.4948840
  66.2039840  55.9486210   9.7214200  66.5804660  55.0758090   9.6087870
  66.1059350  56.2844910   8.8304640  60.3344850  54.3211840   5.1831640
  60.4411600  55.2215570   5.4900400  59.4237210  54.2729810   4.8926290
  69.9863960  53.4436650   6.6542540  70.8073580  52.9533220   6.6968020
  70.0198040  54.0334310   7.4074380  57.9828010  56.2430850  10.4284230
  58.6638120  56.5069220  11.0471630  57.6676060  55.4031720  10.7622240
  62.1752580  57.2898210   9.5156820  62.6830800  57.7879180  10.1561840
  62.7065820  56.5133410   9.3396180  74.2763510  55.4603400  13.2186170
  73.5715680  55.8485110  12.7001280  74.5421430  56.1553690  13.8207100
  60.4588680  51.9296770  13.7820240  60.4607120  52.4469160  12.9766140
  59.6292990  51.4526950  13.7590170  66.8459770  62.0416080   5.2810140
  66.2277040  62.5065530   4.7172860  67.3583020  62.7343560   5.6979650
  61.7091530  61.5691950  11.9593740  61.3760910  62.1960870  12.6014810
  61.8858210  62.0953830  11.1795410  70.2225440  55.3837030   9.4270080
  69.5181010  55.6721920  10.0073190  70.5837600  56.1937140   9.0669640
  60.1404010  53.6406730  11.7890690  60.4820820  54.4848780  11.4944560
  59.2019820  53.7890470  11.9056030  60.9210630  63.5372750  13.7742920
  61.5384630  64.2123830  13.4927370  60.0603750  63.9460730  13.6830420
  56.2142970  62.7272610   2.6549770  55.8370950  63.2159710   1.9234670
  56.4716040  63.3997890   3.2856300  71.8388220  65.0012160  11.6897560
  71.1551740  65.6711270  11.6814230  72.3782510  65.1992810  10.9242420
  73.2912360  54.8291820   9.8179290  72.3437270  54.8630800   9.9494720
  73.6162350  55.6430770  10.2028650  63.8231900  51.1289000   8.1135280
  64.1306880  50.5735890   7.3970780  62.8932600  51.2633460   7.9308270
  69.3746960  66.8456290  10.4042740  69.3874120  66.4418580   9.5365000
  68.8222180  67.6203580  10.3004170  70.6692380  63.5672510   5.4932910
  70.5588710  62.6246840   5.6182330  70.6660630  63.9288150   6.3795670
  68.7732400  61.7486130  11.7325350  69.1901190  61.5346240  10.8978810
  69.4972220  62.0058920  12.3033970  66.2112660  59.1937830   4.8495400
  65.2841940  59.1275210   5.0783870  66.3637480  60.1317960   4.7350640
  72.7194500  60.1473350  11.8241590  71.8913130  60.2166440  11.3491720
  73.3144980  60.7327660  11.3557420  70.2409950  60.7558130   5.3530650
  69.6222370  60.4177680   4.7056950  70.2234400  60.1117890   6.0609840
  69.6836510  56.9342670  12.7696460  69.2707690  57.7596380  13.0236450
  68.9512460  56.3487710  12.5772820  61.8169300  59.7202570   7.6315130
  61.4126300  59.0079820   7.1361030  61.9032420  59.3755810   8.5203170
  62.2851000  63.4070130   9.7954340  61.9879290  62.8015600   9.1162120
  63.2350820  63.4447440   9.6843700  60.5297920  56.4945780  11.4114170
  61.0812510  56.6041120  10.6367420  61.0441430  56.8683380  12.1269400
  70.3736610  66.9802000  13.4577440  69.8967170  67.7874190  13.2650050
  69.6898400  66.3280330  13.6103650  61.3769430  63.1451820  16.4462140
  60.4797960  63.3691790  16.6935540  61.4022300  63.2686760  15.4973540
  68.4174650  59.9944940   2.3603400  68.8567930  59.1567370   2.2141220
  69.1303070  60.6274340   2.4467540  60.2040650  60.0165140  15.0219510
  60.0648420  60.8887940  15.3906910  59.3222010  59.6737950  14.8767450
  66.5270030  64.9341010   6.3284640  66.9665940  65.6765340   5.9140030
  66.4656920  65.1767580   7.2523600  62.0021000  65.9586840  17.2304660
  61.9736430  66.3629790  16.3633090  61.8385970  65.0297200  17.0676260
  58.5173930  58.6147550   5.1321780  58.3971530  59.3409640   4.5203050
  58.2074820  57.8450460   4.6549690  73.9535820  66.7413940  18.5268830
  74.4295540  67.2196830  19.2057910  74.5742980  66.6731430  17.8014330
  56.1559300  61.7862690  10.9390420  56.2339720  61.9211460   9.9946140
  56.7700980  61.0778580  11.1318540  57.4006930  63.4862880   7.3496600
  56.9935010  63.6277470   6.4950200  58.2919940  63.2023040   7.1467810
  73.3569070  63.9326790  15.6868840  73.4832130  63.6938670  14.7686020
  73.3990450  63.1011330  16.1590920  67.2185810  67.6354790  14.2563650
  67.7330480  67.5462800  15.0586080  66.3754890  67.9814490  14.5491560
  69.1940210  67.9210130   3.6847650  69.0341350  67.6313070   4.5829480
  69.0286920  67.1450260   3.1492880  61.6728590  67.7008660   5.4619270
  61.4971070  66.7844200   5.2487070  60.8184330  68.0595950   5.7017070
  68.4616270  67.0560400   6.3194140  68.9173220  66.2749780   6.6332760
  68.8008790  67.7667220   6.8635320  73.2093080  55.9859250  16.6518580
  72.5937350  56.4938920  16.1234040  72.8889500  55.0857580  16.5944520
  56.2118820  62.8276860  13.4784880  56.3749860  62.3582220  12.6604250
  56.6771270  62.3200420  14.1433720  60.9837590  51.9582620   8.5145450
  60.5405740  52.7392160   8.1829970  61.5422580  52.2812510   9.2216390
  65.2707400  54.8251140  14.1180770  64.8086770  55.0334160  14.9300710
  64.8685510  54.0110490  13.8151440  70.2711910  56.0460090  15.2477430
  69.4205500  55.7465840  15.5686500  70.1113700  56.2902100  14.3361250
  67.3661620  57.5461840  17.3476220  67.6915030  56.7125590  17.0078450
  68.1541950  58.0690360  17.4954550  64.0996410  51.5793320   3.3951280
  63.4750590  51.5753190   4.1204590  64.0126530  50.7124280   2.9987250
  63.0213490  52.5029950  10.3735050  63.3185820  53.4092780  10.2927070
  63.5699050  52.0148730   9.7594620  60.7751810  57.0816190   6.2426700
  60.5492730  56.8653360   7.1473320  59.9944340  57.5144650   5.8972670
  68.0049570  57.0879560   4.8417350  67.4058460  57.8115360   4.6580970
  68.5529180  57.0256340   4.0593800  63.2151020  57.9801770  16.9086970
  63.1194620  57.0396500  16.7587370  64.0583000  58.2016840  16.5135040
  66.6114440  55.7243100   6.8720630  67.0044010  56.0415300   6.0589320
  66.9731290  54.8454980   6.9865150  58.3461560  54.3915440  15.0620750
  57.9524950  55.2390650  15.2693530  57.6579960  53.7541810  15.2529390
  64.9206610  54.4750410  18.1317490  64.2304930  54.2822610  18.7663580
  65.6638910  54.7585050  18.6641790  55.6478610  52.3143900   9.0950830
  55.3591660  52.8846760   9.8075810  56.3924370  51.8348350   9.4582060
  67.1969580  58.3148850  10.9671410  66.4650700  58.8235660  11.3161510
  66.7993920  57.4978830  10.6660190  63.6346970  54.9903050   9.3723900
  63.6383030  54.5493000   8.5228440  64.5298090  55.3120380   9.4795720
  59.4849350  54.8729540   8.3318110  59.1449400  55.3504770   9.0885160
  58.7226670  54.4194660   7.9719210  63.6967120  55.9915130   2.3630660
  63.8179940  55.9501610   3.3116480  63.3115630  56.8539280   2.2077390
  67.6595490  53.7682530  10.3794350  67.6768230  54.2191180  11.2236200
  67.4111070  52.8688170  10.5927790  71.0866240  51.1814710  16.2180730
  71.4112010  50.4504370  16.7438710  71.1222750  50.8628350  15.3161720
  57.7857800  62.2028290  15.6380690  57.4012590  61.5621960  16.2363650
  58.0969990  62.9064410  16.2075420  63.9354940  59.0504830  11.1189310
  64.3025070  58.5763400  11.8650650  63.7460000  59.9246400  11.4597650
  56.7995430  53.7948520   7.2482780  56.5142350  53.4304190   8.0861400
  56.7374290  53.0628980   6.6345920  61.7254310  58.0913470  13.4373520
  61.4211380  58.9705450  13.6623880  62.6800770  58.1513260  13.4730960
  60.2536100  62.2974460   4.0340370  59.4798360  61.7572080   3.8739090
  60.9830730  61.7781070   3.6958130  71.0124080  61.2939820   9.8266760
  71.7323200  61.7895110   9.4362870  70.8105900  60.6157710   9.1820630
  66.4734020  52.6877780   3.9696150  65.6598630  52.1890950   3.8941460
  66.2795970  53.5276030   3.5532500  66.3942880  61.3648880  15.7135760
  66.3280190  60.4444550  15.4593350  65.7648020  61.4624320  16.4280400
  69.1882410  57.0597430   2.2658310  70.0762030  57.3714660   2.0909650
  69.1587500  56.1869680   1.8738890  60.2973500  61.9654840   7.6719180
  60.8152170  61.1623100   7.6176070  59.8457520  61.9033980   8.5136010
  65.1843000  63.2321120   2.9446480  65.5258700  63.9763350   2.4489800
  64.3555710  63.5452240   3.3071310  57.7818040  58.9316210  14.5844880
  57.4232980  59.5970060  15.1718220  57.4872600  58.0999760  14.9557500
  60.9831160  59.3900450  17.4684430  60.6831300  59.5357630  16.5712250
  61.7542400  58.8305740  17.3757820  66.3259610  64.1869450  15.4639560
  66.3404150  63.2550410  15.2458470  65.6184710  64.2729210  16.1029330
  72.5370820  60.8276790  14.8108140  71.8119010  61.4205570  14.6137530
  73.0646280  60.8200330  14.0121510  72.4883930  65.2251530   4.4620300
  71.8460090  64.5707150   4.7364020  72.1014590  65.6306620   3.6860970
  68.0670410  62.5536960   8.3091990  68.4194230  61.9565090   7.6493360
  67.1832740  62.2281190   8.4800240  64.1533690  63.3134650   5.7162400
  64.8404820  63.8603860   6.0969990  63.3666110  63.8575380   5.7512010
  63.4560900  60.3180680   5.3287760  63.9123680  61.1285930   5.5547950
  63.1049110  60.0003820   6.1606250  65.7593510  65.8287020  12.5580060
  66.4035730  66.0346400  13.2353480  66.1222950  65.0675420  12.1050910
  59.3572680  50.6618330   5.8010280  59.2287310  50.6536230   6.7495200
  58.5334700  51.0001420   5.4501290  67.0325590  63.8319370  11.2757510
  67.6747820  63.1312530  11.3889680  67.5574940  64.6117810  11.0954400
  68.8063210  64.6314270  14.4793570  69.1419450  65.2180960  15.1571490
  67.8863550  64.5006980  14.7091360  56.3566610  52.4209450  15.2616980
  55.6425130  52.6206370  15.8669590  56.7761650  51.6449020  15.6331780
  70.4597560  62.0339930   2.6610810  70.1719260  62.4952620   3.4488690
  71.2549730  61.5737700   2.9295030  56.6439200  66.4089710  16.2483510
  56.7530320  65.4684450  16.1078900  55.9919760  66.6744460  15.5997240
  64.6351790  64.6805600  17.6481630  64.3148660  63.9614840  18.1927320
  63.9610150  65.3560670  17.7217690  62.6765960  65.5266050   2.5914780
  62.6676060  66.2595740   1.9759290  61.7564320  65.2797630   2.6841740
  58.2772600  60.7480940   3.3361540  57.6700550  61.4879840   3.3456840
  58.7521950  60.8380300   2.5099740  67.8505390  54.9131760  13.0118430
  68.2186210  54.0926970  13.3398000  66.9903590  54.9733650  13.4274080
  71.2167420  53.8688700   3.8205990  70.5880580  53.9734370   3.1064220
  70.7219340  54.0885480   4.6099870  63.1851450  56.1474650   5.2363870
  62.4767600  56.6160990   5.6777480  63.4695930  55.4896660   5.8709060
  64.8107380  57.5671350  13.2356400  65.3092630  58.0417170  13.9008250
  64.9530330  56.6434870  13.4426430  67.2166880  52.8725310   6.6759660
  67.0934660  52.8911440   5.7269170  68.1651440  52.9204250   6.7958060
  64.3043670  68.1080610   5.9487640  64.5585170  68.0702000   5.0267010
  63.3556150  67.9813940   5.9415890  61.3886470  54.4559730   2.6114580
  62.2377000  54.8929880   2.5454770  61.0217740  54.7679990   3.4386640
  72.0174240  53.7839310  14.0784790  71.5147840  54.5244710  14.4178600
  72.8330900  54.1723310  13.7621580  70.3096250  59.0272490   7.5246150
  69.3686390  59.0422720   7.6993840  70.6240320  58.2408450   7.9706450
  58.9824650  58.1417160   1.7683000  59.0628240  57.1944670   1.8800400
  59.8744400  58.4724040   1.8743660  72.3121830  66.1981340   9.2000410
  72.4369250  67.0212510   9.6724220  73.1787390  65.9872070   8.8524560
  59.7839360  68.2912550   8.8717540  60.5201840  67.7428010   9.1426110
  60.1680280  69.1568560   8.7323530  56.6684840  64.3586120   4.7459050
  55.7424620  64.6007260   4.7364460  57.1341270  65.1860380   4.6243800
  58.7897640  67.4758620  18.0603120  59.5910370  67.7970670  18.4738520
  58.2749460  67.1154200  18.7823030  67.6262270  63.5838490  18.0078530
  67.0200430  63.6070090  17.2674280  67.3216380  62.8521530  18.5445780
  69.0562640  67.3118780  16.6187940  70.0084390  67.2276800  16.5688180
  68.9090860  67.9760490  17.2921730  56.5095450  59.9632080  17.0039170
  57.0134470  59.3839360  17.5755400  55.7702870  60.2472310  17.5415540
  63.5633390  61.3703070  16.5374690  62.7979060  61.9388070  16.4529360
  63.7449350  61.0779280  15.6442920  70.7056740  63.1008400  17.0949710
  71.4466210  63.4384160  16.5917170  69.9429420  63.2700460  16.5419480
  58.5418530  58.1061670  17.8989240  58.5823870  57.8075540  18.8074470
  59.3964030  58.5069280  17.7396760  62.3196920  60.7057220   3.0592750
  62.7413340  60.5397090   3.9024140  62.4447760  59.8957450   2.5647890
  60.4824340  56.6853770  15.8663730  59.9520800  56.1944720  15.2387070
  61.1512410  57.1137970  15.3321660  69.3802400  61.1523230  15.6304920
  69.7943420  61.3068310  16.4795340  68.4453400  61.2778450  15.7930700
  69.8524570  58.4919390  17.6344070  70.4345340  57.7371710  17.5464550
  70.0286340  59.0226830  16.8575550  60.9696640  53.6516140  15.9461020
  60.8753510  53.0336890  15.2211890  60.3894030  54.3782430  15.7190930
  63.7358080  52.2089380  12.9788410  63.2875380  52.2313640  12.1333960
  63.1023280  51.8108400  13.5758710  64.1417630  61.1043710  13.6000850
  64.5605740  61.9476440  13.4277090  63.2226260  61.2415750  13.3707630
  66.4781530  58.8359890  14.9838690  66.5977740  58.2401030  15.7233530
  67.3375530  58.8729580  14.5639990  68.8169430  59.3897080  13.5601200
  68.2904650  59.9139700  12.9566340  69.1600770  60.0224470  14.1910930
  61.9925050  67.4096720  14.7158580  61.4546140  68.1342780  14.3967280
  62.2459010  66.9327060  13.9255920  63.2450300  55.3781240  16.2414510
  63.8349990  55.0697090  16.9292330  62.4270540  54.9060990  16.3974410
  68.0643730  54.9947050  16.4747530  67.3759250  54.3328590  16.4097520
  68.7849750  54.5485320  16.9195990  68.6944130  51.5898680   2.5337790
  68.9746420  50.7466580   2.8897210  67.9209860  51.8221790   3.0476540
  64.8487260  68.6447930  14.9745230  64.7745960  69.5483070  15.2817600
  63.9466100  68.3259830  14.9467300  65.3972590  67.8106440   2.5971590
  66.2923380  68.1491410   2.6190350  65.4290220  67.0885850   1.9695870
  56.2514550  65.9722520   8.2778850  56.5817560  65.1043580   8.0457490
  56.6805550  66.1781040   9.1083810  60.8476470  64.3031530   5.9380820
  60.5472010  64.1796500   6.8384730  60.7413960  63.4440120   5.5296550
  56.7404760  66.8393110  11.0160480  56.3035750  67.0193910  11.8484630
  57.3082440  67.5967730  10.8742200  72.3766940  66.3410110  15.3037790
  71.7768930  66.4002670  14.5601710  72.5060840  65.4015090  15.4334640
  73.0724850  60.8275410   3.1441700  73.8343760  61.3972060   3.2501390
  73.0879220  60.2602610   3.9150010  56.5729190  59.3513340   7.3749360
  55.9178030  59.0824980   6.7309060  57.4107140  59.2417820   6.9251340
  74.0784820  61.6825510   7.9883630  74.4493650  60.8992830   7.5819600
  74.7186750  62.3714610   7.8100930  71.0618580  63.0662090  13.4013950
  70.2478420  63.4959250  13.6639740  71.4692780  63.6780500  12.7883000
  73.0209360  59.0578770   5.2943650  72.6452960  58.2906700   4.8624940
  72.2912480  59.4401470   5.7818580  57.6105120  59.7365910  11.9152700
  57.9778160  59.6493310  12.7948720  57.0415940  58.9732460  11.8159560
  72.4108980  58.2050290  14.9283170  72.1795070  57.9763040  14.0281120
  72.6713530  59.1249840  14.8828060  57.1621120  56.6475000  15.8211120
  56.2677170  56.6141760  16.1604830  57.7018670  56.8461790  16.5862370
  70.8497050  53.4306720  17.7062870  71.7267230  53.4390120  18.0896870
  70.8617890  52.6937560  17.0955220  55.7867270  56.5612270   3.3174690
  54.8831350  56.8242470   3.1426350  56.2707890  56.8323440   2.5374650
  72.2960320  57.2836260   8.5950890  72.8197800  56.7898910   7.9641060
  72.8819740  57.4186620   9.3398460  72.4750040  57.3676130  12.1170440
  71.5252750  57.3339670  12.2315430  72.6563050  58.2776240  11.8820210
  71.7860290  56.5409610   4.5343300  72.2819410  56.3080480   5.3192180
  71.5876360  55.7021450   4.1180940  57.6660830  50.9223330  10.1694340
  58.3137020  50.3720710   9.7289500  58.0862670  51.1766480  10.9910150
  73.2147450  55.1770560   7.0680980  73.1046730  55.0226600   8.0063250
  73.9755040  54.6491500   6.8256390  71.5613170  51.1164690  13.5263980
  72.1985390  51.7298830  13.8923170  71.7088060  51.1525350  12.5813210
  74.1776210  53.7789140   2.9343830  73.3827710  53.7134260   3.4636740
  74.3819490  54.7139780   2.9229180  71.1194630  67.8180690   6.9282220
  71.7153700  67.4965260   6.2516640  71.3772780  67.3452510   7.7195490
  57.4192830  51.0779000  12.9119660  57.0707650  51.5342820  13.6777840
  57.0880530  50.1836130  12.9942090  59.0257200  64.2498600  17.0772850
  58.9826830  63.8791510  17.9587310  59.1568210  65.1876170  17.2174670
  62.7263230  65.8058190  12.6782570  62.4854590  66.0732750  11.7913090
  63.6665870  65.9763920  12.7333430  64.9317650  52.2690880  16.4339080
  64.8706540  52.8612710  17.1834490  65.8718030  52.1616840  16.2889340
  67.5692210  51.9260940  16.0731370  68.1832620  52.2440230  15.4112450
  68.1141770  51.4409530  16.6927230  73.9867390  67.8252570  13.4793210
  73.4925670  68.2221440  12.7620340  73.3780680  67.2001780  13.8730490
  58.0913470  50.6055200  16.1870430  58.6396460  50.4243250  15.4236540
  58.1568780  49.8149310  16.7226740  58.8645230  67.1960850  14.1970630
  58.2705550  67.0645550  14.9360670  58.8569070  66.3598990  13.7312730
  68.3100250  50.4893080  12.4000660  67.4360090  50.8228190  12.1973590
  68.2011000  50.0166260  13.2252530  69.2172230  52.6963950  13.7842380
  68.8885590  51.8815710  13.4044110  70.1654530  52.6533760  13.6608070
  71.6706840  68.4675990  10.7579950  71.2109810  69.2191800  10.3837970
  71.0419300  67.7482460  10.6994750  58.4957460  64.5619230  13.1478670
  57.7691520  63.9424520  13.0804620  58.5566610  64.9559840  12.2776750
  62.1002560  66.7764230   9.9328080  62.6167580  66.1651590   9.4076340
  62.7499940  67.2793010  10.4239090  64.8398060  67.6672720  10.7597060
  65.1275870  67.4127020   9.8830070  65.3521280  67.1150080  11.3502630
  66.0575070  51.4062920  11.3393570  65.2746860  51.8808420  11.6190330
  65.7638000  50.5017750  11.2306750  70.6096140  52.1086020   9.3842660
  71.0504230  52.0531120   8.5364260  70.3403730  53.0244030   9.4552840
  72.4734710  51.7401260   7.3951480  72.4123110  50.7962480   7.2482500
  73.2526740  51.8481350   7.9404940  56.7787460  67.8793620   6.3575430
  56.6109500  67.2464300   7.0557320  55.9121970  68.0853020   6.0069620
  57.4015480  51.7110400   3.8607290  58.1594840  51.8239280   3.2871320
  56.9392650  52.5479600   3.8150720  63.9429290  53.8249670   6.8509600
  63.1303800  53.4506560   6.5105480  64.4470930  53.0694750   7.1530790
  68.4454270  50.4892120   8.0892670  69.0483640  51.0612330   8.5641190
  67.7047260  51.0531560   7.8666570  71.5888870  50.8913680   3.3632950
  71.7839500  51.7897130   3.6300380  70.8018740  50.6600760   3.8565900
  58.3850160  66.5726850   3.8025570  57.8597780  66.9534880   3.0987530
  58.3094740  67.1977620   4.5235280  59.7740630  52.2374450   2.4009260
  60.3033390  51.4504250   2.2717210  60.4068950  52.9165640   2.6344790
  61.9678470  51.9749590   5.4554650  61.3381210  51.2736900   5.6224780
  61.4283610  52.7353720   5.2387810  64.9070420  68.5888820  18.1265260
  65.8337730  68.3533090  18.1701220  64.8920850  69.4160820  17.6451290
  73.1415480  68.1314390   5.1239510  73.3167670  67.4452130   4.4800430
  72.4437050  68.6561440   4.7316180  62.0934030  51.2533570  17.8907140
  61.8118300  51.7567170  17.1267960  62.4753730  50.4555320  17.5249270
  60.9843130  68.5209230   2.6774820  61.7161950  68.2368510   2.1298710
  61.2436800  68.2822510   3.5674200  60.1457920  64.6373960   2.6821150
  59.5166800  65.1059060   3.2306980  60.2605750  63.7923180   3.1167340
  68.6949490  50.6687150  18.4687610  68.5814940  50.9881760  19.3639130
  69.5119230  51.0699660  18.1724890  71.4747980  67.8158680  17.9506300
  72.2673300  67.3207910  17.7432260  71.7681130  68.4948820  18.5581910
  67.6007640  39.9136130  45.1552820  67.5201690  38.9990740  44.8844530
  67.1872060  40.4103200  44.4492530  65.7325680  41.6915150  47.0362090
  64.9567780  41.2115590  47.3260660  66.3838610  41.0120800  46.8618250
  59.7491510  42.0034960  47.9137850  58.9176390  41.7483670  48.3134360
  60.3572490  42.0745730  48.6495770  69.7533110  46.0975340  45.8161220
  69.2914640  45.3262580  46.1448390  70.5658660  46.1241410  46.3213670
  59.7292770  46.0375050  48.1095870  60.0320810  45.1472790  47.9306090
  60.4736360  46.5945270  47.8818120  58.1583460  36.9636850  41.6980240
  57.2700160  37.3052820  41.5960120  58.4424650  36.7637170  40.8061070
  56.1216470  39.5642500  47.5819940  56.6932580  38.7964700  47.5823580
  56.1218010  39.8631260  46.6726550  65.9796420  48.3833350  45.4365210
  65.3607860  48.8390850  44.8659650  66.8348200  48.5384810  45.0354910
  65.1734670  44.3672340  47.0432250  65.1042950  43.4262280  46.8821380
  65.9354530  44.4573750  47.6154820  57.3641340  34.9726860  49.3688870
  57.1844180  34.0752610  49.6491630  56.9621420  35.5198730  50.0435820
  66.2039840  37.1742720  47.2701180  66.5804660  36.3014600  47.1574850
  66.1059350  37.5101420  46.3791620  60.3344850  35.5468350  42.7318620
  60.4411600  36.4472080  43.0387380  59.4237210  35.4986320  42.4413270
  69.9863960  34.6693160  44.2029520  70.8073580  34.1789730  44.2455000
  70.0198040  35.2590820  44.9561360  57.9828010  37.4687360  47.9771210
  58.6638120  37.7325730  48.5958610  57.6676060  36.6288230  48.3109220
  62.1752580  38.5154720  47.0643800  62.6830800  39.0135690  47.7048820
  62.7065820  37.7389920  46.8883160  74.2763510  36.6859910  50.7673150
  73.5715680  37.0741620  50.2488260  74.5421430  37.3810200  51.3694080
  60.4588680  33.1553280  51.3307220  60.4607120  33.6725670  50.5253120
  59.6292990  32.6783460  51.3077150  66.8459770  43.2672590  42.8297120
  66.2277040  43.7322040  42.2659840  67.3583020  43.9600070  43.2466630
  61.7091530  42.7948460  49.5080720  61.3760910  43.4217380  50.1501790
  61.8858210  43.3210340  48.7282390  70.2225440  36.6093540  46.9757060
  69.5181010  36.8978430  47.5560170  70.5837600  37.4193650  46.6156620
  60.1404010  34.8663240  49.3377670  60.4820820  35.7105290  49.0431540
  59.2019820  35.0146980  49.4543010  60.9210630  44.7629260  51.3229900
  61.5384630  45.4380340  51.0414350  60.0603750  45.1717240  51.2317400
  56.2142970  43.9529120  40.2036750  55.8370950  44.4416220  39.4721650
  56.4716040  44.6254400  40.8343280  71.8388220  46.2268670  49.2384540
  71.1551740  46.8967780  49.2301210  72.3782510  46.4249320  48.4729400
  73.2912360  36.0548330  47.3666270  72.3437270  36.0887310  47.4981700
  73.6162350  36.8687280  47.7515630  63.8231900  32.3545510  45.6622260
  64.1306880  31.7992400  44.9457760  62.8932600  32.4889970  45.4795250
  69.3746960  48.0712800  47.9529720  69.3874120  47.6675090  47.0851980
  68.8222180  48.8460090  47.8491150  70.6692380  44.7929020  43.0419890
  70.5588710  43.8503350  43.1669310  70.6660630  45.1544660  43.9282650
  68.7732400  42.9742640  49.2812330  69.1901190  42.7602750  48.4465790
  69.4972220  43.2315430  49.8520950  66.2112660  40.4194340  42.3982380
  65.2841940  40.3531720  42.6270850  66.3637480  41.3574470  42.2837620
  66.1981740  36.6911340  39.3949540  65.2585410  36.8525300  39.4802000
  66.5165000  37.4097020  38.8485530  72.7194500  41.3729860  49.3728570
  71.8913130  41.4422950  48.8978700  73.3144980  41.9584170  48.9044400
  70.2409950  41.9814640  42.9017630  69.6222370  41.6434190  42.2543930
  70.2234400  41.3374400  43.6096820  69.6836510  38.1599180  50.3183440
  69.2707690  38.9852890  50.5723430  68.9512460  37.5744220  50.1259800
  61.8169300  40.9459080  45.1802110  61.4126300  40.2336330  44.6848010
  61.9032420  40.6012320  46.0690150  62.2851000  44.6326640  47.3441320
  61.9879290  44.0272110  46.6649100  63.2350820  44.6703950  47.2330680
  60.5297920  37.7202290  48.9601150  61.0812510  37.8297630  48.1854400
  61.0441430  38.0939890  49.6756380  70.3736610  48.2058510  51.0064420
  69.8967170  49.0130700  50.8137030  69.6898400  47.5536840  51.1590630
  68.4174650  41.2201450  39.9090380  68.8567930  40.3823880  39.7628200
  69.1303070  41.8530850  39.9954520  60.2040650  41.2421650  52.5706490
  60.0648420  42.1144450  52.9393890  59.3222010  40.8994460  52.4254430
  66.5270030  46.1597520  43.8771620  66.9665940  46.9021850  43.4627010
  66.4656920  46.4024090  44.8010580  71.9991790  32.4744260  38.2231420
  71.6864450  32.5671090  39.1230490  72.7604260  33.0525290  38.1728850
  58.5173930  39.8404060  42.6808760  58.3971530  40.5666150  42.0690030
  58.2074820  39.0706970  42.2036670  56.1559300  43.0119200  48.4877400
  56.2339720  43.1467970  47.5433120  56.7700980  42.3035090  48.6805520
  57.4006930  44.7119390  44.8983580  56.9935010  44.8533980  44.0437180
  58.2919940  44.4279550  44.6954790  73.3569070  45.1583300  53.2355820
  73.4832130  44.9195180  52.3173000  73.3990450  44.3267840  53.7077900
  67.2185810  48.8611300  51.8050630  67.7330480  48.7719310  52.6073060
  66.3754890  49.2071000  52.0978540  69.1940210  49.1466640  41.2334630
  69.0341350  48.8569580  42.1316460  69.0286920  48.3706770  40.6979860
  61.6728590  48.9265170  43.0106250  61.4971070  48.0100710  42.7974050
  60.8184330  49.2852460  43.2504050  68.8966340  46.6554200  39.7932630
  68.2031500  46.6531490  39.1334910  69.6389200  46.2313520  39.3626800
  68.4616270  48.2816910  43.8681120  68.9173220  47.5006290  44.1819740
  68.8008790  48.9923730  44.4122300  73.2093080  37.2115760  54.2005560
  72.5937350  37.7195430  53.6721020  72.8889500  36.3114090  54.1431500
  56.2118820  44.0533370  51.0271860  56.3749860  43.5838730  50.2091230
  56.6771270  43.5456930  51.6920700  60.9837590  33.1839130  46.0632430
  60.5405740  33.9648670  45.7316950  61.5422580  33.5069020  46.7703370
  65.2707400  36.0507650  51.6667750  64.8086770  36.2590670  52.4787690
  64.8685510  35.2367000  51.3638420  70.2711910  37.2716600  52.7964410
  69.4205500  36.9722350  53.1173480  70.1113700  37.5158610  51.8848230
  64.0996410  32.8049830  40.9438260  63.4750590  32.8009700  41.6691570
  64.0126530  31.9380790  40.5474230  63.0213490  33.7286460  47.9222030
  63.3185820  34.6349290  47.8414050  63.5699050  33.2405240  47.3081600
  60.7751810  38.3072700  43.7913680  60.5492730  38.0909870  44.6960300
  59.9944340  38.7401160  43.4459650  68.0049570  38.3136070  42.3904330
  67.4058460  39.0371870  42.2067950  68.5529180  38.2512850  41.6080780
  66.6114440  36.9499610  44.4207610  67.0044010  37.2671810  43.6076300
  66.9731290  36.0711490  44.5352130  58.3461560  35.6171950  52.6107730
  57.9524950  36.4647160  52.8180510  57.6579960  34.9798320  52.8016370
  55.6478610  33.5400410  46.6437810  55.3591660  34.1103270  47.3562790
  56.3924370  33.0604860  47.0069040  55.8348840  37.4820530  37.8540530
  55.7523510  38.4251290  37.9955520  55.4831900  37.3395440  36.9752880
  67.1969580  39.5405360  48.5158390  66.4650700  40.0492170  48.8648490
  66.7993920  38.7235340  48.2147170  63.6346970  36.2159560  46.9210880
  63.6383030  35.7749510  46.0715420  64.5298090  36.5376890  47.0282700
  59.4849350  36.0986050  45.8805090  59.1449400  36.5761280  46.6372140
  58.7226670  35.6451170  45.5206190  63.6967120  37.2171640  39.9117640
  63.8179940  37.1758120  40.8603460  63.3115630  38.0795790  39.7564370
  67.6595490  34.9939040  47.9281330  67.6768230  35.4447690  48.7723180
  67.4111070  34.0944680  48.1414770  62.7088620  39.5272780  39.3100940
  62.1405520  39.0791030  38.6836850  63.4177620  39.8865560  38.7766090
  57.7857800  43.4284800  53.1867670  57.4012590  42.7878470  53.7850630
  58.0969990  44.1320920  53.7562400  63.9354940  40.2761340  48.6676290
  64.3025070  39.8019910  49.4137630  63.7460000  41.1502910  49.0084630
  56.7995430  35.0205030  44.7969760  56.5142350  34.6560700  45.6348380
  56.7374290  34.2885490  44.1832900  61.7254310  39.3169980  50.9860500
  61.4211380  40.1961960  51.2110860  62.6800770  39.3769770  51.0217940
  60.2536100  43.5230970  41.5827350  59.4798360  42.9828590  41.4226070
  60.9830730  43.0037580  41.2445110  71.0124080  42.5196330  47.3753740
  71.7323200  43.0151620  46.9849850  70.8105900  41.8414220  46.7307610
  66.4734020  33.9134290  41.5183130  65.6598630  33.4147460  41.4428440
  66.2795970  34.7532540  41.1019480  66.3942880  42.5905390  53.2622740
  66.3280190  41.6701060  53.0080330  65.7648020  42.6880830  53.9767380
  69.1882410  38.2853940  39.8145290  70.0762030  38.5971170  39.6396630
  69.1587500  37.4126190  39.4225870  60.2973500  43.1911350  45.2206160
  60.8152170  42.3879610  45.1663050  59.8457520  43.1290490  46.0622990
  65.1843000  44.4577630  40.4933460  65.5258700  45.2019860  39.9976780
  64.3555710  44.7708750  40.8558290  57.7818040  40.1572720  52.1331860
  57.4232980  40.8226570  52.7205200  57.4872600  39.3256270  52.5044480
  66.3259610  45.4125960  53.0126540  66.3404150  44.4806920  52.7945450
  65.6184710  45.4985720  53.6516310  71.4596680  39.5965780  39.2825150
  71.3760400  40.0280000  38.4321590  72.1790870  40.0564130  39.7151970
  72.5370820  42.0533300  52.3595120  71.8119010  42.6462080  52.1624510
  73.0646280  42.0456840  51.5608490  72.4883930  46.4508040  42.0107280
  71.8460090  45.7963660  42.2851000  72.1014590  46.8563130  41.2347950
  68.0670410  43.7793470  45.8578970  68.4194230  43.1821600  45.1980340
  67.1832740  43.4537700  46.0287220  64.1533690  44.5391160  43.2649380
  64.8404820  45.0860370  43.6456970  63.3666110  45.0831890  43.2998990
  56.2926090  40.1563980  38.7566460  57.1620940  40.4388780  39.0402380
  55.8016410  40.9699850  38.6415270  63.4560900  41.5437190  42.8774740
  63.9123680  42.3542440  43.1034930  63.1049110  41.2260330  43.7093230
  65.7593510  47.0543530  50.1067040  66.4035730  47.2602910  50.7840460
  66.1222950  46.2931930  49.6537890  59.3572680  31.8874840  43.3497260
  59.2287310  31.8792740  44.2982180  58.5334700  32.2257930  42.9988270
  67.0325590  45.0575880  48.8244490  67.6747820  44.3569040  48.9376660
  67.5574940  45.8374320  48.6441380  70.8781310  45.3424500  38.5483630
  70.6518890  44.6254940  39.1408270  70.4877510  45.0936940  37.7105380
  68.8063210  45.8570780  52.0280550  69.1419450  46.4437470  52.7058470
  67.8863550  45.7263490  52.2578340  56.6597340  49.3691360  39.3228090
  57.0194980  49.9680700  38.6685360  56.5189680  49.9151250  40.0963120
  56.3566610  33.6465960  52.8103960  55.6425130  33.8462880  53.4156570
  56.7761650  32.8705530  53.1818760  70.4597560  43.2596440  40.2097790
  70.1719260  43.7209130  40.9975670  71.2549730  42.7994210  40.4782010
  56.6439200  47.6346220  53.7970490  56.7530320  46.6940960  53.6565880
  55.9919760  47.9000970  53.1484220  62.6765960  46.7522560  40.1401760
  62.6676060  47.4852250  39.5246270  61.7564320  46.5054140  40.2328720
  58.2772600  41.9737450  40.8848520  57.6700550  42.7136350  40.8943820
  58.7521950  42.0636810  40.0586720  67.8505390  36.1388270  50.5605410
  68.2186210  35.3183480  50.8884980  66.9903590  36.1990160  50.9761060
  71.2167420  35.0945210  41.3692970  70.5880580  35.1990880  40.6551200
  70.7219340  35.3141990  42.1586850  65.6625560  46.8150800  38.8026950
  65.7637540  46.6114790  37.8728930  64.7627300  46.5609080  39.0074730
  63.1851450  37.3731160  42.7850850  62.4767600  37.8417500  43.2264460
  63.4695930  36.7153170  43.4196040  64.8107380  38.7927860  50.7843380
  65.3092630  39.2673680  51.4495230  64.9530330  37.8691380  50.9913410
  67.2166880  34.0981820  44.2246640  67.0934660  34.1167950  43.2756150
  68.1651440  34.1460760  44.3445040  64.3043670  49.3337120  43.4974620
  64.5585170  49.2958510  42.5753990  63.3556150  49.2070450  43.4902870
  61.3886470  35.6816240  40.1601560  62.2377000  36.1186390  40.0941750
  61.0217740  35.9936500  40.9873620  72.0174240  35.0095820  51.6271770
  71.5147840  35.7501220  51.9665580  72.8330900  35.3979820  51.3108560
  70.3096250  40.2529000  45.0733130  69.3686390  40.2679230  45.2480820
  70.6240320  39.4664960  45.5193430  60.2877890  41.9348600  38.6337090
  61.0541160  41.8229960  39.1962520  60.3652580  41.2386570  37.9813860
  58.9824650  39.3673670  39.3169980  59.0628240  38.4201180  39.4287380
  59.8744400  39.6980550  39.4230640  72.3121830  47.4237850  46.7487390
  72.4369250  48.2469020  47.2211200  73.1787390  47.2128580  46.4011540
  59.7839360  49.5169060  46.4204520  60.5201840  48.9684520  46.6913090
  60.1680280  50.3825070  46.2810510  56.6684840  45.5842630  42.2946030
  55.7424620  45.8263770  42.2851440  57.1341270  46.4116890  42.1730780
  62.8941670  48.6899370  38.2430090  63.6870280  48.9788200  37.7911880
  62.3746020  48.2591540  37.5642570  71.9471840  47.9169500  39.6666830
  71.6613350  47.5034640  38.8521010  71.7491390  48.8457210  39.5467350
  63.4119070  43.9102780  38.1072440  63.3069710  43.2955130  38.8333820
  63.2443290  43.3868670  37.3235450  63.5633390  42.5959580  54.0861670
  62.7979060  43.1644580  54.0016340  63.7449350  42.3035790  53.1929900
  66.6521800  42.9722810  38.7114430  66.1031900  43.4192110  39.3557170
  67.2741060  42.4672060  39.2352100  62.3196920  41.9313730  40.6079730
  62.7413340  41.7653600  41.4511120  62.4447760  41.1213960  40.1134870
  60.4824340  37.9110280  53.4150710  59.9520800  37.4201230  52.7874050
  61.1512410  38.3394480  52.8808640  64.8324560  40.9551340  37.8556830
  65.3530220  40.2400360  37.4897980  65.4792960  41.5937210  38.1557340
  69.3802400  42.3779740  53.1791900  69.7943420  42.5324820  54.0282320
  68.4453400  42.5034960  53.3417680  60.9696640  34.8772650  53.4948000
  60.8753510  34.2593400  52.7698870  60.3894030  35.6038940  53.2677910
  63.7358080  33.4345890  50.5275390  63.2875380  33.4570150  49.6820940
  63.1023280  33.0364910  51.1245690  64.1417630  42.3300220  51.1487830
  64.5605740  43.1732950  50.9764070  63.2226260  42.4672260  50.9194610
  66.4781530  40.0616400  52.5325670  66.5977740  39.4657540  53.2720510
  67.3375530  40.0986090  52.1126970  68.8169430  40.6153590  51.1088180
  68.2904650  41.1396210  50.5053320  69.1600770  41.2480980  51.7397910
  61.2155820  38.0046960  37.5537890  61.0144880  37.1414320  37.9151230
  61.0447870  37.9180320  36.6159490  61.9925050  48.6353230  52.2645560
  61.4546140  49.3599290  51.9454260  62.2459010  48.1583570  51.4742900
  68.6944130  32.8155190  40.0824770  68.9746420  31.9723090  40.4384190
  67.9209860  33.0478300  40.5963520  60.0138620  35.1047580  37.5415770
  60.3164520  35.1115010  36.6334920  60.7533210  34.7545440  38.0383430
  64.8487260  49.8704440  52.5232210  64.7745960  50.7739580  52.8304580
  63.9466100  49.5516340  52.4954280  63.2323550  34.0482200  38.5271970
  62.8845550  33.3706190  37.9474420  63.4336320  33.5871710  39.3415360
  65.3972590  49.0362950  40.1458570  66.2923380  49.3747920  40.1677330
  65.4290220  48.3142360  39.5182850  59.0368750  44.4090000  38.3745570
  59.4743620  44.9519670  39.0303150  59.5216480  43.5836950  38.3841910
  56.2514550  47.1979030  45.8265830  56.5817560  46.3300090  45.5944470
  56.6805550  47.4037550  46.6570790  60.8476470  45.5288040  43.4867800
  60.5472010  45.4053010  44.3871710  60.7413960  44.6696630  43.0783530
  56.7404760  48.0649620  48.5647460  56.3035750  48.2450420  49.3971610
  57.3082440  48.8224240  48.4229180  72.3766940  47.5666620  52.8524770
  71.7768930  47.6259180  52.1088690  72.5060840  46.6271600  52.9821620
  73.6168390  45.3084440  38.1894480  72.7861350  45.3761090  38.6601710
  73.7940220  46.1988560  37.8861340  73.0724850  42.0531920  40.6928680
  73.8343760  42.6228570  40.7988370  73.0879220  41.4859120  41.4636990
  56.5729190  40.5769850  44.9236340  55.9178030  40.3081490  44.2796040
  57.4107140  40.4674330  44.4738320  74.0784820  42.9082020  45.5370610
  74.4493650  42.1249340  45.1306580  74.7186750  43.5971120  45.3587910
  71.0618580  44.2918600  50.9500930  70.2478420  44.7215760  51.2126720
  71.4692780  44.9037010  50.3369980  73.1244020  42.3466290  37.8501200
  73.3992860  43.2545170  37.7220420  72.9354760  42.2828820  38.7863190
  69.5219630  35.3711140  39.1454830  69.9404510  35.1842120  38.3051490
  69.2155690  34.5190190  39.4557760  73.0209360  40.2835280  42.8430630
  72.6452960  39.5163210  42.4111920  72.2912480  40.6657980  43.3305560
  57.6105120  40.9622420  49.4639680  57.9778160  40.8749820  50.3435700
  57.0415940  40.1988970  49.3646540  72.4108980  39.4306800  52.4770150
  72.1795070  39.2019550  51.5768100  72.6713530  40.3506350  52.4315040
  57.1621120  37.8731510  53.3698100  56.2677170  37.8398270  53.7091810
  57.7018670  38.0718300  54.1349350  55.7867270  37.7868780  40.8661670
  54.8831350  38.0498980  40.6913330  56.2707890  38.0579950  40.0861630
  72.2960320  38.5092770  46.1437870  72.8197800  38.0155420  45.5128040
  72.8819740  38.6443130  46.8885440  72.4750040  38.5932640  49.6657420
  71.5252750  38.5596180  49.7802410  72.6563050  39.5032750  49.4307190
  58.3294480  36.8434320  38.7756050  59.0386180  36.4217540  38.2903330
  57.6134420  36.9109550  38.1439400  57.9768640  32.8973650  37.8158700
  58.6996770  33.4382590  38.1339920  58.2493160  32.6237070  36.9400240
  71.7860290  37.7666120  42.0830280  72.2819410  37.5336990  42.8679160
  71.5876360  36.9277960  41.6667920  57.6660830  32.1479840  47.7181320
  58.3137020  31.5977220  47.2776480  58.0862670  32.4022990  48.5397130
  73.2147450  36.4027070  44.6167960  73.1046730  36.2483110  45.5550230
  73.9755040  35.8748010  44.3743370  71.5613170  32.3421200  51.0750960
  72.1985390  32.9555340  51.4410150  71.7088060  32.3781860  50.1300190
  74.1037720  34.2334990  37.8574100  75.0287030  34.1016170  37.6492390
  74.0813510  34.3127810  38.8110550  74.1776210  35.0045650  40.4830810
  73.3827710  34.9390770  41.0123720  74.3819490  35.9396290  40.4716160
  71.1194630  49.0437200  44.4769200  71.7153700  48.7221770  43.8003620
  71.3772780  48.5709020  45.2682470  57.4192830  32.3035510  50.4606640
  57.0707650  32.7599330  51.2264820  57.0880530  31.4092640  50.5429070
  62.7263230  47.0314700  50.2269550  62.4854590  47.2989260  49.3400070
  63.6665870  47.2020430  50.2820410  73.9867390  49.0509080  51.0280190
  73.4925670  49.4477950  50.3107320  73.3780680  48.4258290  51.4217470
  58.8645230  48.4217360  51.7457610  58.2705550  48.2902060  52.4847650
  58.8569070  47.5855500  51.2799710  68.3100250  31.7149590  49.9487640
  67.4360090  32.0484700  49.7460570  68.2011000  31.2422770  50.7739510
  69.2172230  33.9220460  51.3329360  68.8885590  33.1072220  50.9531090
  70.1654530  33.8790270  51.2095050  71.6706840  49.6932500  48.3066930
  71.2109810  50.4448310  47.9324950  71.0419300  48.9738970  48.2481730
  58.4957460  45.7875740  50.6965650  57.7691520  45.1681030  50.6291600
  58.5566610  46.1816350  49.8263730  62.1002560  48.0020740  47.4815060
  62.6167580  47.3908100  46.9563320  62.7499940  48.5049520  47.9726070
  64.8398060  48.8929230  48.3084040  65.1275870  48.6383530  47.4317050
  65.3521280  48.3406590  48.8989610  66.0575070  32.6319430  48.8880550
  65.2746860  33.1064930  49.1677310  65.7638000  31.7274260  48.7793730
  70.6096140  33.3342530  46.9329640  71.0504230  33.2787630  46.0851240
  70.3403730  34.2500540  47.0039820  72.4734710  32.9657770  44.9438460
  72.4123110  32.0218990  44.7969480  73.2526740  33.0737860  45.4891920
  56.7787460  49.1050130  43.9062410  56.6109500  48.4720810  44.6044300
  55.9121970  49.3109530  43.5556600  57.4015480  32.9366910  41.4094270
  58.1594840  33.0495790  40.8358300  56.9392650  33.7736110  41.3637700
  63.9429290  35.0506180  44.3996580  63.1303800  34.6763070  44.0592460
  64.4470930  34.2951260  44.7017770  68.4454270  31.7148630  45.6379650
  69.0483640  32.2868840  46.1128170  67.7047260  32.2788070  45.4153550
  71.5888870  32.1170190  40.9119930  71.7839500  33.0153640  41.1787360
  70.8018740  31.8857270  41.4052880  58.3850160  47.7983360  41.3512550
  57.8597780  48.1791390  40.6474510  58.3094740  48.4234130  42.0722260
  59.7740630  33.4630960  39.9496240  60.3033390  32.6760760  39.8204190
  60.4068950  34.1422150  40.1831770  61.9678470  33.2006100  43.0041630
  61.3381210  32.4993410  43.1711760  61.4283610  33.9610230  42.7874790
  73.1415480  49.3570900  42.6726490  73.3167670  48.6708640  42.0287410
  72.4437050  49.8817950  42.2803160  60.9843130  49.7465740  40.2261800
  61.7161950  49.4625020  39.6785690  61.2436800  49.5079020  41.1161180
  60.1457920  45.8630470  40.2308130  59.5166800  46.3315570  40.7793960
  60.2605750  45.0179690  40.6654320  67.6007640  39.9136130  26.3809330
  67.5201690  38.9990740  26.1101040  67.1872060  40.4103200  25.6749040
  65.7325680  41.6915150  28.2618600  64.9567780  41.2115590  28.5517170
  66.3838610  41.0120800  28.0874760  59.7491510  42.0034960  29.1394360
  58.9176390  41.7483670  29.5390870  60.3572490  42.0745730  29.8752280
  69.7533110  46.0975340  27.0417730  69.2914640  45.3262580  27.3704900
  70.5658660  46.1241410  27.5470180  59.7292770  46.0375050  29.3352380
  60.0320810  45.1472790  29.1562600  60.4736360  46.5945270  29.1074630
  58.1583460  36.9636850  22.9236750  57.2700160  37.3052820  22.8216630
  58.4424650  36.7637170  22.0317580  56.1216470  39.5642500  28.8076450
  56.6932580  38.7964700  28.8080090  56.1218010  39.8631260  27.8983060
  65.9796420  48.3833350  26.6621720  65.3607860  48.8390850  26.0916160
  66.8348200  48.5384810  26.2611420  65.1734670  44.3672340  28.2688760
  65.1042950  43.4262280  28.1077890  65.9354530  44.4573750  28.8411330
  57.3641340  34.9726860  30.5945380  57.1844180  34.0752610  30.8748140
  56.9621420  35.5198730  31.2692330  66.2039840  37.1742720  28.4957690
  66.5804660  36.3014600  28.3831360  66.1059350  37.5101420  27.6048130
  60.3344850  35.5468350  23.9575130  60.4411600  36.4472080  24.2643890
  59.4237210  35.4986320  23.6669780  69.9863960  34.6693160  25.4286030
  70.8073580  34.1789730  25.4711510  70.0198040  35.2590820  26.1817870
  57.9828010  37.4687360  29.2027720  58.6638120  37.7325730  29.8215120
  57.6676060  36.6288230  29.5365730  62.1752580  38.5154720  28.2900310
  62.6830800  39.0135690  28.9305330  62.7065820  37.7389920  28.1139670
  74.2763510  36.6859910  31.9929660  73.5715680  37.0741620  31.4744770
  74.5421430  37.3810200  32.5950590  60.4588680  33.1553280  32.5563730
  60.4607120  33.6725670  31.7509630  59.6292990  32.6783460  32.5333660
  66.8459770  43.2672590  24.0553630  66.2277040  43.7322040  23.4916350
  67.3583020  43.9600070  24.4723140  61.7091530  42.7948460  30.7337230
  61.3760910  43.4217380  31.3758300  61.8858210  43.3210340  29.9538900
  70.2225440  36.6093540  28.2013570  69.5181010  36.8978430  28.7816680
  70.5837600  37.4193650  27.8413130  60.1404010  34.8663240  30.5634180
  60.4820820  35.7105290  30.2688050  59.2019820  35.0146980  30.6799520
  60.9210630  44.7629260  32.5486410  61.5384630  45.4380340  32.2670860
  60.0603750  45.1717240  32.4573910  56.2142970  43.9529120  21.4293260
  55.8370950  44.4416220  20.6978160  56.4716040  44.6254400  22.0599790
  71.8388220  46.2268670  30.4641050  71.1551740  46.8967780  30.4557720
  72.3782510  46.4249320  29.6985910  73.2912360  36.0548330  28.5922780
  72.3437270  36.0887310  28.7238210  73.6162350  36.8687280  28.9772140
  63.8231900  32.3545510  26.8878770  64.1306880  31.7992400  26.1714270
  62.8932600  32.4889970  26.7051760  69.3746960  48.0712800  29.1786230
  69.3874120  47.6675090  28.3108490  68.8222180  48.8460090  29.0747660
  70.6692380  44.7929020  24.2676400  70.5588710  43.8503350  24.3925820
  70.6660630  45.1544660  25.1539160  68.7732400  42.9742640  30.5068840
  69.1901190  42.7602750  29.6722300  69.4972220  43.2315430  31.0777460
  66.2112660  40.4194340  23.6238890  65.2841940  40.3531720  23.8527360
  66.3637480  41.3574470  23.5094130  66.1981740  36.6911340  20.6206050
  65.2585410  36.8525300  20.7058510  66.5165000  37.4097020  20.0742040
  72.7194500  41.3729860  30.5985080  71.8913130  41.4422950  30.1235210
  73.3144980  41.9584170  30.1300910  70.2409950  41.9814640  24.1274140
  69.6222370  41.6434190  23.4800440  70.2234400  41.3374400  24.8353330
  69.6836510  38.1599180  31.5439950  69.2707690  38.9852890  31.7979940
  68.9512460  37.5744220  31.3516310  61.8169300  40.9459080  26.4058620
  61.4126300  40.2336330  25.9104520  61.9032420  40.6012320  27.2946660
  62.2851000  44.6326640  28.5697830  61.9879290  44.0272110  27.8905610
  63.2350820  44.6703950  28.4587190  60.5297920  37.7202290  30.1857660
  61.0812510  37.8297630  29.4110910  61.0441430  38.0939890  30.9012890
  70.3736610  48.2058510  32.2320930  69.8967170  49.0130700  32.0393540
  69.6898400  47.5536840  32.3847140  61.3769430  44.3708330  35.2205630
  60.4797960  44.5948300  35.4679030  61.4022300  44.4943270  34.2717030
  68.4174650  41.2201450  21.1346890  68.8567930  40.3823880  20.9884710
  69.1303070  41.8530850  21.2211030  60.2040650  41.2421650  33.7963000
  60.0648420  42.1144450  34.1650400  59.3222010  40.8994460  33.6510940
  66.5270030  46.1597520  25.1028130  66.9665940  46.9021850  24.6883520
  66.4656920  46.4024090  26.0267090  62.0021000  47.1843350  36.0048150
  61.9736430  47.5886300  35.1376580  61.8385970  46.2553710  35.8419750
  71.9991790  32.4744260  19.4487930  71.6864450  32.5671090  20.3487000
  72.7604260  33.0525290  19.3985360  58.5173930  39.8404060  23.9065270
  58.3971530  40.5666150  23.2946540  58.2074820  39.0706970  23.4293180
  73.9535820  47.9670450  37.3012320  74.4295540  48.4453340  37.9801400
  74.5742980  47.8987940  36.5757820  56.1559300  43.0119200  29.7133910
  56.2339720  43.1467970  28.7689630  56.7700980  42.3035090  29.9062030
  57.4006930  44.7119390  26.1240090  56.9935010  44.8533980  25.2693690
  58.2919940  44.4279550  25.9211300  73.3569070  45.1583300  34.4612330
  73.4832130  44.9195180  33.5429510  73.3990450  44.3267840  34.9334410
  67.2185810  48.8611300  33.0307140  67.7330480  48.7719310  33.8329570
  66.3754890  49.2071000  33.3235050  69.1940210  49.1466640  22.4591140
  69.0341350  48.8569580  23.3572970  69.0286920  48.3706770  21.9236370
  61.6728590  48.9265170  24.2362760  61.4971070  48.0100710  24.0230560
  60.8184330  49.2852460  24.4760560  68.8966340  46.6554200  21.0189140
  68.2031500  46.6531490  20.3591420  69.6389200  46.2313520  20.5883310
  68.4616270  48.2816910  25.0937630  68.9173220  47.5006290  25.4076250
  68.8008790  48.9923730  25.6378810  73.2093080  37.2115760  35.4262070
  72.5937350  37.7195430  34.8977530  72.8889500  36.3114090  35.3688010
  56.2118820  44.0533370  32.2528370  56.3749860  43.5838730  31.4347740
  56.6771270  43.5456930  32.9177210  60.9837590  33.1839130  27.2888940
  60.5405740  33.9648670  26.9573460  61.5422580  33.5069020  27.9959880
  65.2707400  36.0507650  32.8924260  64.8086770  36.2590670  33.7044200
  64.8685510  35.2367000  32.5894930  70.2711910  37.2716600  34.0220920
  69.4205500  36.9722350  34.3429990  70.1113700  37.5158610  33.1104740
  67.3661620  38.7718350  36.1219710  67.6915030  37.9382100  35.7821940
  68.1541950  39.2946870  36.2698040  64.0996410  32.8049830  22.1694770
  63.4750590  32.8009700  22.8948080  64.0126530  31.9380790  21.7730740
  63.0213490  33.7286460  29.1478540  63.3185820  34.6349290  29.0670560
  63.5699050  33.2405240  28.5338110  60.7751810  38.3072700  25.0170190
  60.5492730  38.0909870  25.9216810  59.9944340  38.7401160  24.6716160
  68.0049570  38.3136070  23.6160840  67.4058460  39.0371870  23.4324460
  68.5529180  38.2512850  22.8337290  63.2151020  39.2058280  35.6830460
  63.1194620  38.2653010  35.5330860  64.0583000  39.4273350  35.2878530
  66.6114440  36.9499610  25.6464120  67.0044010  37.2671810  24.8332810
  66.9731290  36.0711490  25.7608640  58.3461560  35.6171950  33.8364240
  57.9524950  36.4647160  34.0437020  57.6579960  34.9798320  34.0272880
  64.9206610  35.7006920  36.9060980  64.2304930  35.5079120  37.5407070
  65.6638910  35.9841560  37.4385280  55.6478610  33.5400410  27.8694320
  55.3591660  34.1103270  28.5819300  56.3924370  33.0604860  28.2325550
  55.8348840  37.4820530  19.0797040  55.7523510  38.4251290  19.2212030
  55.4831900  37.3395440  18.2009390  67.1969580  39.5405360  29.7414900
  66.4650700  40.0492170  30.0905000  66.7993920  38.7235340  29.4403680
  63.6346970  36.2159560  28.1467390  63.6383030  35.7749510  27.2971930
  64.5298090  36.5376890  28.2539210  59.4849350  36.0986050  27.1061600
  59.1449400  36.5761280  27.8628650  58.7226670  35.6451170  26.7462700
  63.6967120  37.2171640  21.1374150  63.8179940  37.1758120  22.0859970
  63.3115630  38.0795790  20.9820880  67.6595490  34.9939040  29.1537840
  67.6768230  35.4447690  29.9979690  67.4111070  34.0944680  29.3671280
  62.7088620  39.5272780  20.5357450  62.1405520  39.0791030  19.9093360
  63.4177620  39.8865560  20.0022600  71.0866240  32.4071220  34.9924220
  71.4112010  31.6760880  35.5182200  71.1222750  32.0884860  34.0905210
  57.7857800  43.4284800  34.4124180  57.4012590  42.7878470  35.0107140
  58.0969990  44.1320920  34.9818910  63.9354940  40.2761340  29.8932800
  64.3025070  39.8019910  30.6394140  63.7460000  41.1502910  30.2341140
  56.7995430  35.0205030  26.0226270  56.5142350  34.6560700  26.8604890
  56.7374290  34.2885490  25.4089410  61.7254310  39.3169980  32.2117010
  61.4211380  40.1961960  32.4367370  62.6800770  39.3769770  32.2474450
  60.2536100  43.5230970  22.8083860  59.4798360  42.9828590  22.6482580
  60.9830730  43.0037580  22.4701620  71.0124080  42.5196330  28.6010250
  71.7323200  43.0151620  28.2106360  70.8105900  41.8414220  27.9564120
  66.4734020  33.9134290  22.7439640  65.6598630  33.4147460  22.6684950
  66.2795970  34.7532540  22.3275990  66.3942880  42.5905390  34.4879250
  66.3280190  41.6701060  34.2336840  65.7648020  42.6880830  35.2023890
  69.1882410  38.2853940  21.0401800  70.0762030  38.5971170  20.8653140
  69.1587500  37.4126190  20.6482380  60.2973500  43.1911350  26.4462670
  60.8152170  42.3879610  26.3919560  59.8457520  43.1290490  27.2879500
  65.1843000  44.4577630  21.7189970  65.5258700  45.2019860  21.2233290
  64.3555710  44.7708750  22.0814800  57.7818040  40.1572720  33.3588370
  57.4232980  40.8226570  33.9461710  57.4872600  39.3256270  33.7300990
  60.9831160  40.6156960  36.2427920  60.6831300  40.7614140  35.3455740
  61.7542400  40.0562250  36.1501310  66.3259610  45.4125960  34.2383050
  66.3404150  44.4806920  34.0201960  65.6184710  45.4985720  34.8772820
  71.4596680  39.5965780  20.5081660  71.3760400  40.0280000  19.6578100
  72.1790870  40.0564130  20.9408480  72.5370820  42.0533300  33.5851630
  71.8119010  42.6462080  33.3881020  73.0646280  42.0456840  32.7865000
  72.4883930  46.4508040  23.2363790  71.8460090  45.7963660  23.5107510
  72.1014590  46.8563130  22.4604460  68.0670410  43.7793470  27.0835480
  68.4194230  43.1821600  26.4236850  67.1832740  43.4537700  27.2543730
  64.1533690  44.5391160  24.4905890  64.8404820  45.0860370  24.8713480
  63.3666110  45.0831890  24.5255500  56.2926090  40.1563980  19.9822970
  57.1620940  40.4388780  20.2658890  55.8016410  40.9699850  19.8671780
  63.4560900  41.5437190  24.1031250  63.9123680  42.3542440  24.3291440
  63.1049110  41.2260330  24.9349740  65.7593510  47.0543530  31.3323550
  66.4035730  47.2602910  32.0096970  66.1222950  46.2931930  30.8794400
  59.3572680  31.8874840  24.5753770  59.2287310  31.8792740  25.5238690
  58.5334700  32.2257930  24.2244780  67.0325590  45.0575880  30.0501000
  67.6747820  44.3569040  30.1633170  67.5574940  45.8374320  29.8697890
  70.8781310  45.3424500  19.7740140  70.6518890  44.6254940  20.3664780
  70.4877510  45.0936940  18.9361890  68.8063210  45.8570780  33.2537060
  69.1419450  46.4437470  33.9314980  67.8863550  45.7263490  33.4834850
  56.6597340  49.3691360  20.5484600  57.0194980  49.9680700  19.8941870
  56.5189680  49.9151250  21.3219630  56.3566610  33.6465960  34.0360470
  55.6425130  33.8462880  34.6413080  56.7761650  32.8705530  34.4075270
  70.4597560  43.2596440  21.4354300  70.1719260  43.7209130  22.2232180
  71.2549730  42.7994210  21.7038520  56.6439200  47.6346220  35.0227000
  56.7530320  46.6940960  34.8822390  55.9919760  47.9000970  34.3740730
  64.6351790  45.9062110  36.4225120  64.3148660  45.1871350  36.9670810
  63.9610150  46.5817180  36.4961180  62.6765960  46.7522560  21.3658270
  62.6676060  47.4852250  20.7502780  61.7564320  46.5054140  21.4585230
  58.2772600  41.9737450  22.1105030  57.6700550  42.7136350  22.1200330
  58.7521950  42.0636810  21.2843230  67.8505390  36.1388270  31.7861920
  68.2186210  35.3183480  32.1141490  66.9903590  36.1990160  32.2017570
  71.2167420  35.0945210  22.5949480  70.5880580  35.1990880  21.8807710
  70.7219340  35.3141990  23.3843360  65.6625560  46.8150800  20.0283460
  65.7637540  46.6114790  19.0985440  64.7627300  46.5609080  20.2331240
  63.1851450  37.3731160  24.0107360  62.4767600  37.8417500  24.4520970
  63.4695930  36.7153170  24.6452550  64.8107380  38.7927860  32.0099890
  65.3092630  39.2673680  32.6751740  64.9530330  37.8691380  32.2169920
  67.2166880  34.0981820  25.4503150  67.0934660  34.1167950  24.5012660
  68.1651440  34.1460760  25.5701550  64.3043670  49.3337120  24.7231130
  64.5585170  49.2958510  23.8010500  63.3556150  49.2070450  24.7159380
  61.3886470  35.6816240  21.3858070  62.2377000  36.1186390  21.3198260
  61.0217740  35.9936500  22.2130130  72.0174240  35.0095820  32.8528280
  71.5147840  35.7501220  33.1922090  72.8330900  35.3979820  32.5365070
  70.3096250  40.2529000  26.2989640  69.3686390  40.2679230  26.4737330
  70.6240320  39.4664960  26.7449940  60.2877890  41.9348600  19.8593600
  61.0541160  41.8229960  20.4219030  60.3652580  41.2386570  19.2070370
  58.9824650  39.3673670  20.5426490  59.0628240  38.4201180  20.6543890
  59.8744400  39.6980550  20.6487150  72.3121830  47.4237850  27.9743900
  72.4369250  48.2469020  28.4467710  73.1787390  47.2128580  27.6268050
  59.7839360  49.5169060  27.6461030  60.5201840  48.9684520  27.9169600
  60.1680280  50.3825070  27.5067020  56.6684840  45.5842630  23.5202540
  55.7424620  45.8263770  23.5107950  57.1341270  46.4116890  23.3987290
  58.7897640  48.7015130  36.8346610  59.5910370  49.0227180  37.2482010
  58.2749460  48.3410710  37.5566520  62.8941670  48.6899370  19.4686600
  63.6870280  48.9788200  19.0168390  62.3746020  48.2591540  18.7899080
  67.6262270  44.8095000  36.7822020  67.0200430  44.8326600  36.0417770
  67.3216380  44.0778040  37.3189270  69.0562640  48.5375290  35.3931430
  70.0084390  48.4533310  35.3431670  68.9090860  49.2017000  36.0665220
  71.9471840  47.9169500  20.8923340  71.6613350  47.5034640  20.0777520
  71.7491390  48.8457210  20.7723860  56.5095450  41.1888590  35.7782660
  57.0134470  40.6095870  36.3498890  55.7702870  41.4728820  36.3159030
  63.4119070  43.9102780  19.3328950  63.3069710  43.2955130  20.0590330
  63.2443290  43.3868670  18.5491960  63.5633390  42.5959580  35.3118180
  62.7979060  43.1644580  35.2272850  63.7449350  42.3035790  34.4186410
  66.6521800  42.9722810  19.9370940  66.1031900  43.4192110  20.5813680
  67.2741060  42.4672060  20.4608610  70.7056740  44.3264910  35.8693200
  71.4466210  44.6640670  35.3660660  69.9429420  44.4956970  35.3162970
  58.5418530  39.3318180  36.6732730  58.5823870  39.0332050  37.5817960
  59.3964030  39.7325790  36.5140250  62.3196920  41.9313730  21.8336240
  62.7413340  41.7653600  22.6767630  62.4447760  41.1213960  21.3391380
  60.4824340  37.9110280  34.6407220  59.9520800  37.4201230  34.0130560
  61.1512410  38.3394480  34.1065150  64.8324560  40.9551340  19.0813340
  65.3530220  40.2400360  18.7154490  65.4792960  41.5937210  19.3813850
  69.3802400  42.3779740  34.4048410  69.7943420  42.5324820  35.2538830
  68.4453400  42.5034960  34.5674190  69.8524570  39.7175900  36.4087560
  70.4345340  38.9628220  36.3208040  70.0286340  40.2483340  35.6319040
  60.9696640  34.8772650  34.7204510  60.8753510  34.2593400  33.9955380
  60.3894030  35.6038940  34.4934420  63.7358080  33.4345890  31.7531900
  63.2875380  33.4570150  30.9077450  63.1023280  33.0364910  32.3502200
  64.1417630  42.3300220  32.3744340  64.5605740  43.1732950  32.2020580
  63.2226260  42.4672260  32.1451120  66.4781530  40.0616400  33.7582180
  66.5977740  39.4657540  34.4977020  67.3375530  40.0986090  33.3383480
  68.8169430  40.6153590  32.3344690  68.2904650  41.1396210  31.7309830
  69.1600770  41.2480980  32.9654420  61.2155820  38.0046960  18.7794400
  61.0144880  37.1414320  19.1407740  61.0447870  37.9180320  17.8416000
  61.9925050  48.6353230  33.4902070  61.4546140  49.3599290  33.1710770
  62.2459010  48.1583570  32.6999410  63.2450300  36.6037750  35.0158000
  63.8349990  36.2953600  35.7035820  62.4270540  36.1317500  35.1717900
  68.0643730  36.2203560  35.2491020  67.3759250  35.5585100  35.1841010
  68.7849750  35.7741830  35.6939480  68.6944130  32.8155190  21.3081280
  68.9746420  31.9723090  21.6640700  67.9209860  33.0478300  21.8220030
  60.0138620  35.1047580  18.7672280  60.3164520  35.1115010  17.8591430
  60.7533210  34.7545440  19.2639940  64.8487260  49.8704440  33.7488720
  64.7745960  50.7739580  34.0561090  63.9466100  49.5516340  33.7210790
  63.2323550  34.0482200  19.7528480  62.8845550  33.3706190  19.1730930
  63.4336320  33.5871710  20.5671870  65.3972590  49.0362950  21.3715080
  66.2923380  49.3747920  21.3933840  65.4290220  48.3142360  20.7439360
  59.0368750  44.4090000  19.6002080  59.4743620  44.9519670  20.2559660
  59.5216480  43.5836950  19.6098420  56.2514550  47.1979030  27.0522340
  56.5817560  46.3300090  26.8200980  56.6805550  47.4037550  27.8827300
  60.8476470  45.5288040  24.7124310  60.5472010  45.4053010  25.6128220
  60.7413960  44.6696630  24.3040040  56.7404760  48.0649620  29.7903970
  56.3035750  48.2450420  30.6228120  57.3082440  48.8224240  29.6485690
  72.3766940  47.5666620  34.0781280  71.7768930  47.6259180  33.3345200
  72.5060840  46.6271600  34.2078130  73.6168390  45.3084440  19.4150990
  72.7861350  45.3761090  19.8858220  73.7940220  46.1988560  19.1117850
  73.0724850  42.0531920  21.9185190  73.8343760  42.6228570  22.0244880
  73.0879220  41.4859120  22.6893500  56.5729190  40.5769850  26.1492850
  55.9178030  40.3081490  25.5052550  57.4107140  40.4674330  25.6994830
  74.0784820  42.9082020  26.7627120  74.4493650  42.1249340  26.3563090
  74.7186750  43.5971120  26.5844420  71.0618580  44.2918600  32.1757440
  70.2478420  44.7215760  32.4383230  71.4692780  44.9037010  31.5626490
  73.1244020  42.3466290  19.0757710  73.3992860  43.2545170  18.9476930
  72.9354760  42.2828820  20.0119700  69.5219630  35.3711140  20.3711340
  69.9404510  35.1842120  19.5308000  69.2155690  34.5190190  20.6814270
  73.0209360  40.2835280  24.0687140  72.6452960  39.5163210  23.6368430
  72.2912480  40.6657980  24.5562070  57.6105120  40.9622420  30.6896190
  57.9778160  40.8749820  31.5692210  57.0415940  40.1988970  30.5903050
  72.4108980  39.4306800  33.7026660  72.1795070  39.2019550  32.8024610
  72.6713530  40.3506350  33.6571550  57.1621120  37.8731510  34.5954610
  56.2677170  37.8398270  34.9348320  57.7018670  38.0718300  35.3605860
  70.8497050  34.6563230  36.4806360  71.7267230  34.6646630  36.8640360
  70.8617890  33.9194070  35.8698710  55.7867270  37.7868780  22.0918180
  54.8831350  38.0498980  21.9169840  56.2707890  38.0579950  21.3118140
  72.2960320  38.5092770  27.3694380  72.8197800  38.0155420  26.7384550
  72.8819740  38.6443130  28.1141950  72.4750040  38.5932640  30.8913930
  71.5252750  38.5596180  31.0058920  72.6563050  39.5032750  30.6563700
  58.3294480  36.8434320  20.0012560  59.0386180  36.4217540  19.5159840
  57.6134420  36.9109550  19.3695910  57.9768640  32.8973650  19.0415210
  58.6996770  33.4382590  19.3596430  58.2493160  32.6237070  18.1656750
  71.7860290  37.7666120  23.3086790  72.2819410  37.5336990  24.0935670
  71.5876360  36.9277960  22.8924430  57.6660830  32.1479840  28.9437830
  58.3137020  31.5977220  28.5032990  58.0862670  32.4022990  29.7653640
  73.2147450  36.4027070  25.8424470  73.1046730  36.2483110  26.7806740
  73.9755040  35.8748010  25.5999880  71.5613170  32.3421200  32.3007470
  72.1985390  32.9555340  32.6666660  71.7088060  32.3781860  31.3556700
  74.1037720  34.2334990  19.0830610  75.0287030  34.1016170  18.8748900
  74.0813510  34.3127810  20.0367060  74.1776210  35.0045650  21.7087320
  73.3827710  34.9390770  22.2380230  74.3819490  35.9396290  21.6972670
  71.1194630  49.0437200  25.7025710  71.7153700  48.7221770  25.0260130
  71.3772780  48.5709020  26.4938980  57.4192830  32.3035510  31.6863150
  57.0707650  32.7599330  32.4521330  57.0880530  31.4092640  31.7685580
  59.0257200  45.4755110  35.8516340  58.9826830  45.1048020  36.7330800
  59.1568210  46.4132680  35.9918160  62.7263230  47.0314700  31.4526060
  62.4854590  47.2989260  30.5656580  63.6665870  47.2020430  31.5076920
  64.9317650  33.4947390  35.2082570  64.8706540  34.0869220  35.9577980
  65.8718030  33.3873350  35.0632830  67.5692210  33.1517450  34.8474860
  68.1832620  33.4696740  34.1855940  68.1141770  32.6666040  35.4670720
  73.9867390  49.0509080  32.2536700  73.4925670  49.4477950  31.5363830
  73.3780680  48.4258290  32.6473980  58.0913470  31.8311710  34.9613920
  58.6396460  31.6499760  34.1980030  58.1568780  31.0405820  35.4970230
  58.8645230  48.4217360  32.9714120  58.2705550  48.2902060  33.7104160
  58.8569070  47.5855500  32.5056220  68.3100250  31.7149590  31.1744150
  67.4360090  32.0484700  30.9717080  68.2011000  31.2422770  31.9996020
  69.2172230  33.9220460  32.5585870  68.8885590  33.1072220  32.1787600
  70.1654530  33.8790270  32.4351560  71.6706840  49.6932500  29.5323440
  71.2109810  50.4448310  29.1581460  71.0419300  48.9738970  29.4738240
  58.4957460  45.7875740  31.9222160  57.7691520  45.1681030  31.8548110
  58.5566610  46.1816350  31.0520240  62.1002560  48.0020740  28.7071570
  62.6167580  47.3908100  28.1819830  62.7499940  48.5049520  29.1982580
  64.8398060  48.8929230  29.5340550  65.1275870  48.6383530  28.6573560
  65.3521280  48.3406590  30.1246120  66.0575070  32.6319430  30.1137060
  65.2746860  33.1064930  30.3933820  65.7638000  31.7274260  30.0050240
  70.6096140  33.3342530  28.1586150  71.0504230  33.2787630  27.3107750
  70.3403730  34.2500540  28.2296330  72.4734710  32.9657770  26.1694970
  72.4123110  32.0218990  26.0225990  73.2526740  33.0737860  26.7148430
  56.7787460  49.1050130  25.1318920  56.6109500  48.4720810  25.8300810
  55.9121970  49.3109530  24.7813110  57.4015480  32.9366910  22.6350780
  58.1594840  33.0495790  22.0614810  56.9392650  33.7736110  22.5894210
  63.9429290  35.0506180  25.6253090  63.1303800  34.6763070  25.2848970
  64.4470930  34.2951260  25.9274280  68.4454270  31.7148630  26.8636160
  69.0483640  32.2868840  27.3384680  67.7047260  32.2788070  26.6410060
  71.5888870  32.1170190  22.1376440  71.7839500  33.0153640  22.4043870
  70.8018740  31.8857270  22.6309390  58.3850160  47.7983360  22.5769060
  57.8597780  48.1791390  21.8731020  58.3094740  48.4234130  23.2978770
  59.7740630  33.4630960  21.1752750  60.3033390  32.6760760  21.0460700
  60.4068950  34.1422150  21.4088280  61.9678470  33.2006100  24.2298140
  61.3381210  32.4993410  24.3968270  61.4283610  33.9610230  24.0131300
  64.9070420  49.8145330  36.9008750  65.8337730  49.5789600  36.9444710
  64.8920850  50.6417330  36.4194780  73.1415480  49.3570900  23.8983000
  73.3167670  48.6708640  23.2543920  72.4437050  49.8817950  23.5059670
  62.0934030  32.4790080  36.6650630  61.8118300  32.9823680  35.9011450
  62.4753730  31.6811830  36.2992760  60.9843130  49.7465740  21.4518310
  61.7161950  49.4625020  20.9042200  61.2436800  49.5079020  22.3417690
  60.1457920  45.8630470  21.4564640  59.5166800  46.3315570  22.0050470
  60.2605750  45.0179690  21.8910830  68.6949490  31.8943660  37.2431100
  68.5814940  32.2138270  38.1382620  69.5119230  32.2956170  36.9468380
  71.4747980  49.0415190  36.7249790  72.2673300  48.5464420  36.5175750
  71.7681130  49.7205330  37.3325400  67.6007640  39.9136130   7.6065840
  67.5201690  38.9990740   7.3357550  67.1872060  40.4103200   6.9005550
  65.7325680  41.6915150   9.4875110  64.9567780  41.2115590   9.7773680
  66.3838610  41.0120800   9.3131270  59.7491510  42.0034960  10.3650870
  58.9176390  41.7483670  10.7647380  60.3572490  42.0745730  11.1008790
  69.7533110  46.0975340   8.2674240  69.2914640  45.3262580   8.5961410
  70.5658660  46.1241410   8.7726690  59.7292770  46.0375050  10.5608890
  60.0320810  45.1472790  10.3819110  60.4736360  46.5945270  10.3331140
  58.1583460  36.9636850   4.1493260  57.2700160  37.3052820   4.0473140
  58.4424650  36.7637170   3.2574090  56.1216470  39.5642500  10.0332960
  56.6932580  38.7964700  10.0336600  56.1218010  39.8631260   9.1239570
  65.9796420  48.3833350   7.8878230  65.3607860  48.8390850   7.3172670
  66.8348200  48.5384810   7.4867930  65.1734670  44.3672340   9.4945270
  65.1042950  43.4262280   9.3334400  65.9354530  44.4573750  10.0667840
  57.3641340  34.9726860  11.8201890  57.1844180  34.0752610  12.1004650
  56.9621420  35.5198730  12.4948840  66.2039840  37.1742720   9.7214200
  66.5804660  36.3014600   9.6087870  66.1059350  37.5101420   8.8304640
  60.3344850  35.5468350   5.1831640  60.4411600  36.4472080   5.4900400
  59.4237210  35.4986320   4.8926290  69.9863960  34.6693160   6.6542540
  70.8073580  34.1789730   6.6968020  70.0198040  35.2590820   7.4074380
  57.9828010  37.4687360  10.4284230  58.6638120  37.7325730  11.0471630
  57.6676060  36.6288230  10.7622240  62.1752580  38.5154720   9.5156820
  62.6830800  39.0135690  10.1561840  62.7065820  37.7389920   9.3396180
  74.2763510  36.6859910  13.2186170  73.5715680  37.0741620  12.7001280
  74.5421430  37.3810200  13.8207100  60.4588680  33.1553280  13.7820240
  60.4607120  33.6725670  12.9766140  59.6292990  32.6783460  13.7590170
  66.8459770  43.2672590   5.2810140  66.2277040  43.7322040   4.7172860
  67.3583020  43.9600070   5.6979650  61.7091530  42.7948460  11.9593740
  61.3760910  43.4217380  12.6014810  61.8858210  43.3210340  11.1795410
  70.2225440  36.6093540   9.4270080  69.5181010  36.8978430  10.0073190
  70.5837600  37.4193650   9.0669640  60.1404010  34.8663240  11.7890690
  60.4820820  35.7105290  11.4944560  59.2019820  35.0146980  11.9056030
  60.9210630  44.7629260  13.7742920  61.5384630  45.4380340  13.4927370
  60.0603750  45.1717240  13.6830420  56.2142970  43.9529120   2.6549770
  55.8370950  44.4416220   1.9234670  56.4716040  44.6254400   3.2856300
  71.8388220  46.2268670  11.6897560  71.1551740  46.8967780  11.6814230
  72.3782510  46.4249320  10.9242420  73.2912360  36.0548330   9.8179290
  72.3437270  36.0887310   9.9494720  73.6162350  36.8687280  10.2028650
  63.8231900  32.3545510   8.1135280  64.1306880  31.7992400   7.3970780
  62.8932600  32.4889970   7.9308270  69.3746960  48.0712800  10.4042740
  69.3874120  47.6675090   9.5365000  68.8222180  48.8460090  10.3004170
  70.6692380  44.7929020   5.4932910  70.5588710  43.8503350   5.6182330
  70.6660630  45.1544660   6.3795670  68.7732400  42.9742640  11.7325350
  69.1901190  42.7602750  10.8978810  69.4972220  43.2315430  12.3033970
  66.2112660  40.4194340   4.8495400  65.2841940  40.3531720   5.0783870
  66.3637480  41.3574470   4.7350640  72.7194500  41.3729860  11.8241590
  71.8913130  41.4422950  11.3491720  73.3144980  41.9584170  11.3557420
  70.2409950  41.9814640   5.3530650  69.6222370  41.6434190   4.7056950
  70.2234400  41.3374400   6.0609840  69.6836510  38.1599180  12.7696460
  69.2707690  38.9852890  13.0236450  68.9512460  37.5744220  12.5772820
  61.8169300  40.9459080   7.6315130  61.4126300  40.2336330   7.1361030
  61.9032420  40.6012320   8.5203170  62.2851000  44.6326640   9.7954340
  61.9879290  44.0272110   9.1162120  63.2350820  44.6703950   9.6843700
  60.5297920  37.7202290  11.4114170  61.0812510  37.8297630  10.6367420
  61.0441430  38.0939890  12.1269400  70.3736610  48.2058510  13.4577440
  69.8967170  49.0130700  13.2650050  69.6898400  47.5536840  13.6103650
  61.3769430  44.3708330  16.4462140  60.4797960  44.5948300  16.6935540
  61.4022300  44.4943270  15.4973540  68.4174650  41.2201450   2.3603400
  68.8567930  40.3823880   2.2141220  69.1303070  41.8530850   2.4467540
  60.2040650  41.2421650  15.0219510  60.0648420  42.1144450  15.3906910
  59.3222010  40.8994460  14.8767450  66.5270030  46.1597520   6.3284640
  66.9665940  46.9021850   5.9140030  66.4656920  46.4024090   7.2523600
  62.0021000  47.1843350  17.2304660  61.9736430  47.5886300  16.3633090
  61.8385970  46.2553710  17.0676260  58.5173930  39.8404060   5.1321780
  58.3971530  40.5666150   4.5203050  58.2074820  39.0706970   4.6549690
  73.9535820  47.9670450  18.5268830  74.4295540  48.4453340  19.2057910
  74.5742980  47.8987940  17.8014330  56.1559300  43.0119200  10.9390420
  56.2339720  43.1467970   9.9946140  56.7700980  42.3035090  11.1318540
  57.4006930  44.7119390   7.3496600  56.9935010  44.8533980   6.4950200
  58.2919940  44.4279550   7.1467810  73.3569070  45.1583300  15.6868840
  73.4832130  44.9195180  14.7686020  73.3990450  44.3267840  16.1590920
  67.2185810  48.8611300  14.2563650  67.7330480  48.7719310  15.0586080
  66.3754890  49.2071000  14.5491560  69.1940210  49.1466640   3.6847650
  69.0341350  48.8569580   4.5829480  69.0286920  48.3706770   3.1492880
  61.6728590  48.9265170   5.4619270  61.4971070  48.0100710   5.2487070
  60.8184330  49.2852460   5.7017070  68.4616270  48.2816910   6.3194140
  68.9173220  47.5006290   6.6332760  68.8008790  48.9923730   6.8635320
  73.2093080  37.2115760  16.6518580  72.5937350  37.7195430  16.1234040
  72.8889500  36.3114090  16.5944520  56.2118820  44.0533370  13.4784880
  56.3749860  43.5838730  12.6604250  56.6771270  43.5456930  14.1433720
  60.9837590  33.1839130   8.5145450  60.5405740  33.9648670   8.1829970
  61.5422580  33.5069020   9.2216390  65.2707400  36.0507650  14.1180770
  64.8086770  36.2590670  14.9300710  64.8685510  35.2367000  13.8151440
  70.2711910  37.2716600  15.2477430  69.4205500  36.9722350  15.5686500
  70.1113700  37.5158610  14.3361250  67.3661620  38.7718350  17.3476220
  67.6915030  37.9382100  17.0078450  68.1541950  39.2946870  17.4954550
  64.0996410  32.8049830   3.3951280  63.4750590  32.8009700   4.1204590
  64.0126530  31.9380790   2.9987250  63.0213490  33.7286460  10.3735050
  63.3185820  34.6349290  10.2927070  63.5699050  33.2405240   9.7594620
  60.7751810  38.3072700   6.2426700  60.5492730  38.0909870   7.1473320
  59.9944340  38.7401160   5.8972670  68.0049570  38.3136070   4.8417350
  67.4058460  39.0371870   4.6580970  68.5529180  38.2512850   4.0593800
  63.2151020  39.2058280  16.9086970  63.1194620  38.2653010  16.7587370
  64.0583000  39.4273350  16.5135040  66.6114440  36.9499610   6.8720630
  67.0044010  37.2671810   6.0589320  66.9731290  36.0711490   6.9865150
  58.3461560  35.6171950  15.0620750  57.9524950  36.4647160  15.2693530
  57.6579960  34.9798320  15.2529390  64.9206610  35.7006920  18.1317490
  64.2304930  35.5079120  18.7663580  65.6638910  35.9841560  18.6641790
  55.6478610  33.5400410   9.0950830  55.3591660  34.1103270   9.8075810
  56.3924370  33.0604860   9.4582060  67.1969580  39.5405360  10.9671410
  66.4650700  40.0492170  11.3161510  66.7993920  38.7235340  10.6660190
  63.6346970  36.2159560   9.3723900  63.6383030  35.7749510   8.5228440
  64.5298090  36.5376890   9.4795720  59.4849350  36.0986050   8.3318110
  59.1449400  36.5761280   9.0885160  58.7226670  35.6451170   7.9719210
  63.6967120  37.2171640   2.3630660  63.8179940  37.1758120   3.3116480
  63.3115630  38.0795790   2.2077390  67.6595490  34.9939040  10.3794350
  67.6768230  35.4447690  11.2236200  67.4111070  34.0944680  10.5927790
  71.0866240  32.4071220  16.2180730  71.4112010  31.6760880  16.7438710
  71.1222750  32.0884860  15.3161720  57.7857800  43.4284800  15.6380690
  57.4012590  42.7878470  16.2363650  58.0969990  44.1320920  16.2075420
  63.9354940  40.2761340  11.1189310  64.3025070  39.8019910  11.8650650
  63.7460000  41.1502910  11.4597650  56.7995430  35.0205030   7.2482780
  56.5142350  34.6560700   8.0861400  56.7374290  34.2885490   6.6345920
  61.7254310  39.3169980  13.4373520  61.4211380  40.1961960  13.6623880
  62.6800770  39.3769770  13.4730960  60.2536100  43.5230970   4.0340370
  59.4798360  42.9828590   3.8739090  60.9830730  43.0037580   3.6958130
  71.0124080  42.5196330   9.8266760  71.7323200  43.0151620   9.4362870
  70.8105900  41.8414220   9.1820630  66.4734020  33.9134290   3.9696150
  65.6598630  33.4147460   3.8941460  66.2795970  34.7532540   3.5532500
  66.3942880  42.5905390  15.7135760  66.3280190  41.6701060  15.4593350
  65.7648020  42.6880830  16.4280400  69.1882410  38.2853940   2.2658310
  70.0762030  38.5971170   2.0909650  69.1587500  37.4126190   1.8738890
  60.2973500  43.1911350   7.6719180  60.8152170  42.3879610   7.6176070
  59.8457520  43.1290490   8.5136010  65.1843000  44.4577630   2.9446480
  65.5258700  45.2019860   2.4489800  64.3555710  44.7708750   3.3071310
  57.7818040  40.1572720  14.5844880  57.4232980  40.8226570  15.1718220
  57.4872600  39.3256270  14.9557500  60.9831160  40.6156960  17.4684430
  60.6831300  40.7614140  16.5712250  61.7542400  40.0562250  17.3757820
  66.3259610  45.4125960  15.4639560  66.3404150  44.4806920  15.2458470
  65.6184710  45.4985720  16.1029330  72.5370820  42.0533300  14.8108140
  71.8119010  42.6462080  14.6137530  73.0646280  42.0456840  14.0121510
  72.4883930  46.4508040   4.4620300  71.8460090  45.7963660   4.7364020
  72.1014590  46.8563130   3.6860970  68.0670410  43.7793470   8.3091990
  68.4194230  43.1821600   7.6493360  67.1832740  43.4537700   8.4800240
  64.1533690  44.5391160   5.7162400  64.8404820  45.0860370   6.0969990
  63.3666110  45.0831890   5.7512010  63.4560900  41.5437190   5.3287760
  63.9123680  42.3542440   5.5547950  63.1049110  41.2260330   6.1606250
  65.7593510  47.0543530  12.5580060  66.4035730  47.2602910  13.2353480
  66.1222950  46.2931930  12.1050910  59.3572680  31.8874840   5.8010280
  59.2287310  31.8792740   6.7495200  58.5334700  32.2257930   5.4501290
  67.0325590  45.0575880  11.2757510  67.6747820  44.3569040  11.3889680
  67.5574940  45.8374320  11.0954400  68.8063210  45.8570780  14.4793570
  69.1419450  46.4437470  15.1571490  67.8863550  45.7263490  14.7091360
  56.3566610  33.6465960  15.2616980  55.6425130  33.8462880  15.8669590
  56.7761650  32.8705530  15.6331780  70.4597560  43.2596440   2.6610810
  70.1719260  43.7209130   3.4488690  71.2549730  42.7994210   2.9295030
  56.6439200  47.6346220  16.2483510  56.7530320  46.6940960  16.1078900
  55.9919760  47.9000970  15.5997240  64.6351790  45.9062110  17.6481630
  64.3148660  45.1871350  18.1927320  63.9610150  46.5817180  17.7217690
  62.6765960  46.7522560   2.5914780  62.6676060  47.4852250   1.9759290
  61.7564320  46.5054140   2.6841740  58.2772600  41.9737450   3.3361540
  57.6700550  42.7136350   3.3456840  58.7521950  42.0636810   2.5099740
  67.8505390  36.1388270  13.0118430  68.2186210  35.3183480  13.3398000
  66.9903590  36.1990160  13.4274080  71.2167420  35.0945210   3.8205990
  70.5880580  35.1990880   3.1064220  70.7219340  35.3141990   4.6099870
  63.1851450  37.3731160   5.2363870  62.4767600  37.8417500   5.6777480
  63.4695930  36.7153170   5.8709060  64.8107380  38.7927860  13.2356400
  65.3092630  39.2673680  13.9008250  64.9530330  37.8691380  13.4426430
  67.2166880  34.0981820   6.6759660  67.0934660  34.1167950   5.7269170
  68.1651440  34.1460760   6.7958060  64.3043670  49.3337120   5.9487640
  64.5585170  49.2958510   5.0267010  63.3556150  49.2070450   5.9415890
  61.3886470  35.6816240   2.6114580  62.2377000  36.1186390   2.5454770
  61.0217740  35.9936500   3.4386640  72.0174240  35.0095820  14.0784790
  71.5147840  35.7501220  14.4178600  72.8330900  35.3979820  13.7621580
  70.3096250  40.2529000   7.5246150  69.3686390  40.2679230   7.6993840
  70.6240320  39.4664960   7.9706450  58.9824650  39.3673670   1.7683000
  59.0628240  38.4201180   1.8800400  59.8744400  39.6980550   1.8743660
  72.3121830  47.4237850   9.2000410  72.4369250  48.2469020   9.6724220
  73.1787390  47.2128580   8.8524560  59.7839360  49.5169060   8.8717540
  60.5201840  48.9684520   9.1426110  60.1680280  50.3825070   8.7323530
  56.6684840  45.5842630   4.7459050  55.7424620  45.8263770   4.7364460
  57.1341270  46.4116890   4.6243800  58.7897640  48.7015130  18.0603120
  59.5910370  49.0227180  18.4738520  58.2749460  48.3410710  18.7823030
  67.6262270  44.8095000  18.0078530  67.0200430  44.8326600  17.2674280
  67.3216380  44.0778040  18.5445780  69.0562640  48.5375290  16.6187940
  70.0084390  48.4533310  16.5688180  68.9090860  49.2017000  17.2921730
  56.5095450  41.1888590  17.0039170  57.0134470  40.6095870  17.5755400
  55.7702870  41.4728820  17.5415540  63.5633390  42.5959580  16.5374690
  62.7979060  43.1644580  16.4529360  63.7449350  42.3035790  15.6442920
  70.7056740  44.3264910  17.0949710  71.4466210  44.6640670  16.5917170
  69.9429420  44.4956970  16.5419480  58.5418530  39.3318180  17.8989240
  58.5823870  39.0332050  18.8074470  59.3964030  39.7325790  17.7396760
  62.3196920  41.9313730   3.0592750  62.7413340  41.7653600   3.9024140
  62.4447760  41.1213960   2.5647890  60.4824340  37.9110280  15.8663730
  59.9520800  37.4201230  15.2387070  61.1512410  38.3394480  15.3321660
  69.3802400  42.3779740  15.6304920  69.7943420  42.5324820  16.4795340
  68.4453400  42.5034960  15.7930700  69.8524570  39.7175900  17.6344070
  70.4345340  38.9628220  17.5464550  70.0286340  40.2483340  16.8575550
  60.9696640  34.8772650  15.9461020  60.8753510  34.2593400  15.2211890
  60.3894030  35.6038940  15.7190930  63.7358080  33.4345890  12.9788410
  63.2875380  33.4570150  12.1333960  63.1023280  33.0364910  13.5758710
  64.1417630  42.3300220  13.6000850  64.5605740  43.1732950  13.4277090
  63.2226260  42.4672260  13.3707630  66.4781530  40.0616400  14.9838690
  66.5977740  39.4657540  15.7233530  67.3375530  40.0986090  14.5639990
  68.8169430  40.6153590  13.5601200  68.2904650  41.1396210  12.9566340
  69.1600770  41.2480980  14.1910930  61.9925050  48.6353230  14.7158580
  61.4546140  49.3599290  14.3967280  62.2459010  48.1583570  13.9255920
  63.2450300  36.6037750  16.2414510  63.8349990  36.2953600  16.9292330
  62.4270540  36.1317500  16.3974410  68.0643730  36.2203560  16.4747530
  67.3759250  35.5585100  16.4097520  68.7849750  35.7741830  16.9195990
  68.6944130  32.8155190   2.5337790  68.9746420  31.9723090   2.8897210
  67.9209860  33.0478300   3.0476540  64.8487260  49.8704440  14.9745230
  64.7745960  50.7739580  15.2817600  63.9466100  49.5516340  14.9467300
  65.3972590  49.0362950   2.5971590  66.2923380  49.3747920   2.6190350
  65.4290220  48.3142360   1.9695870  56.2514550  47.1979030   8.2778850
  56.5817560  46.3300090   8.0457490  56.6805550  47.4037550   9.1083810
  60.8476470  45.5288040   5.9380820  60.5472010  45.4053010   6.8384730
  60.7413960  44.6696630   5.5296550  56.7404760  48.0649620  11.0160480
  56.3035750  48.2450420  11.8484630  57.3082440  48.8224240  10.8742200
  72.3766940  47.5666620  15.3037790  71.7768930  47.6259180  14.5601710
  72.5060840  46.6271600  15.4334640  73.0724850  42.0531920   3.1441700
  73.8343760  42.6228570   3.2501390  73.0879220  41.4859120   3.9150010
  56.5729190  40.5769850   7.3749360  55.9178030  40.3081490   6.7309060
  57.4107140  40.4674330   6.9251340  74.0784820  42.9082020   7.9883630
  74.4493650  42.1249340   7.5819600  74.7186750  43.5971120   7.8100930
  71.0618580  44.2918600  13.4013950  70.2478420  44.7215760  13.6639740
  71.4692780  44.9037010  12.7883000  73.0209360  40.2835280   5.2943650
  72.6452960  39.5163210   4.8624940  72.2912480  40.6657980   5.7818580
  57.6105120  40.9622420  11.9152700  57.9778160  40.8749820  12.7948720
  57.0415940  40.1988970  11.8159560  72.4108980  39.4306800  14.9283170
  72.1795070  39.2019550  14.0281120  72.6713530  40.3506350  14.8828060
  57.1621120  37.8731510  15.8211120  56.2677170  37.8398270  16.1604830
  57.7018670  38.0718300  16.5862370  70.8497050  34.6563230  17.7062870
  71.7267230  34.6646630  18.0896870  70.8617890  33.9194070  17.0955220
  55.7867270  37.7868780   3.3174690  54.8831350  38.0498980   3.1426350
  56.2707890  38.0579950   2.5374650  72.2960320  38.5092770   8.5950890
  72.8197800  38.0155420   7.9641060  72.8819740  38.6443130   9.3398460
  72.4750040  38.5932640  12.1170440  71.5252750  38.5596180  12.2315430
  72.6563050  39.5032750  11.8820210  71.7860290  37.7666120   4.5343300
  72.2819410  37.5336990   5.3192180  71.5876360  36.9277960   4.1180940
  57.6660830  32.1479840  10.1694340  58.3137020  31.5977220   9.7289500
  58.0862670  32.4022990  10.9910150  73.2147450  36.4027070   7.0680980
  73.1046730  36.2483110   8.0063250  73.9755040  35.8748010   6.8256390
  71.5613170  32.3421200  13.5263980  72.1985390  32.9555340  13.8923170
  71.7088060  32.3781860  12.5813210  74.1776210  35.0045650   2.9343830
  73.3827710  34.9390770   3.4636740  74.3819490  35.9396290   2.9229180
  71.1194630  49.0437200   6.9282220  71.7153700  48.7221770   6.2516640
  71.3772780  48.5709020   7.7195490  57.4192830  32.3035510  12.9119660
  57.0707650  32.7599330  13.6777840  57.0880530  31.4092640  12.9942090
  59.0257200  45.4755110  17.0772850  58.9826830  45.1048020  17.9587310
  59.1568210  46.4132680  17.2174670  62.7263230  47.0314700  12.6782570
  62.4854590  47.2989260  11.7913090  63.6665870  47.2020430  12.7333430
  64.9317650  33.4947390  16.4339080  64.8706540  34.0869220  17.1834490
  65.8718030  33.3873350  16.2889340  67.5692210  33.1517450  16.0731370
  68.1832620  33.4696740  15.4112450  68.1141770  32.6666040  16.6927230
  73.9867390  49.0509080  13.4793210  73.4925670  49.4477950  12.7620340
  73.3780680  48.4258290  13.8730490  58.0913470  31.8311710  16.1870430
  58.6396460  31.6499760  15.4236540  58.1568780  31.0405820  16.7226740
  58.8645230  48.4217360  14.1970630  58.2705550  48.2902060  14.9360670
  58.8569070  47.5855500  13.7312730  68.3100250  31.7149590  12.4000660
  67.4360090  32.0484700  12.1973590  68.2011000  31.2422770  13.2252530
  69.2172230  33.9220460  13.7842380  68.8885590  33.1072220  13.4044110
  70.1654530  33.8790270  13.6608070  71.6706840  49.6932500  10.7579950
  71.2109810  50.4448310  10.3837970  71.0419300  48.9738970  10.6994750
  58.4957460  45.7875740  13.1478670  57.7691520  45.1681030  13.0804620
  58.5566610  46.1816350  12.2776750  62.1002560  48.0020740   9.9328080
  62.6167580  47.3908100   9.4076340  62.7499940  48.5049520  10.4239090
  64.8398060  48.8929230  10.7597060  65.1275870  48.6383530   9.8830070
  65.3521280  48.3406590  11.3502630  66.0575070  32.6319430  11.3393570
  65.2746860  33.1064930  11.6190330  65.7638000  31.7274260  11.2306750
  70.6096140  33.3342530   9.3842660  71.0504230  33.2787630   8.5364260
  70.3403730  34.2500540   9.4552840  72.4734710  32.9657770   7.3951480
  72.4123110  32.0218990   7.2482500  73.2526740  33.0737860   7.9404940
  56.7787460  49.1050130   6.3575430  56.6109500  48.4720810   7.0557320
  55.9121970  49.3109530   6.0069620  57.4015480  32.9366910   3.8607290
  58.1594840  33.0495790   3.2871320  56.9392650  33.7736110   3.8150720
  63.9429290  35.0506180   6.8509600  63.1303800  34.6763070   6.5105480
  64.4470930  34.2951260   7.1530790  68.4454270  31.7148630   8.0892670
  69.0483640  32.2868840   8.5641190  67.7047260  32.2788070   7.8666570
  71.5888870  32.1170190   3.3632950  71.7839500  33.0153640   3.6300380
  70.8018740  31.8857270   3.8565900  58.3850160  47.7983360   3.8025570
  57.8597780  48.1791390   3.0987530  58.3094740  48.4234130   4.5235280
  59.7740630  33.4630960   2.4009260  60.3033390  32.6760760   2.2717210
  60.4068950  34.1422150   2.6344790  61.9678470  33.2006100   5.4554650
  61.3381210  32.4993410   5.6224780  61.4283610  33.9610230   5.2387810
  64.9070420  49.8145330  18.1265260  65.8337730  49.5789600  18.1701220
  64.8920850  50.6417330  17.6451290  73.1415480  49.3570900   5.1239510
  73.3167670  48.6708640   4.4800430  72.4437050  49.8817950   4.7316180
  62.0934030  32.4790080  17.8907140  61.8118300  32.9823680  17.1267960
  62.4753730  31.6811830  17.5249270  60.9843130  49.7465740   2.6774820
  61.7161950  49.4625020   2.1298710  61.2436800  49.5079020   3.5674200
  60.1457920  45.8630470   2.6821150  59.5166800  46.3315570   3.2306980
  60.2605750  45.0179690   3.1167340  68.6949490  31.8943660  18.4687610
  68.5814940  32.2138270  19.3639130  69.5119230  32.2956170  18.1724890
  71.4747980  49.0415190  17.9506300  72.2673300  48.5464420  17.7432260
  71.7681130  49.7205330  18.5581910  67.6007640  21.1392640  45.1552820
  67.5201690  20.2247250  44.8844530  67.1872060  21.6359710  44.4492530
  65.7325680  22.9171660  47.0362090  64.9567780  22.4372100  47.3260660
  66.3838610  22.2377310  46.8618250  59.7491510  23.2291470  47.9137850
  58.9176390  22.9740180  48.3134360  60.3572490  23.3002240  48.6495770
  69.7533110  27.3231850  45.8161220  69.2914640  26.5519090  46.1448390
  70.5658660  27.3497920  46.3213670  59.7292770  27.2631560  48.1095870
  60.0320810  26.3729300  47.9306090  60.4736360  27.8201780  47.8818120
  58.1583460  18.1893360  41.6980240  57.2700160  18.5309330  41.5960120
  58.4424650  17.9893680  40.8061070  56.1216470  20.7899010  47.5819940
  56.6932580  20.0221210  47.5823580  56.1218010  21.0887770  46.6726550
  65.9796420  29.6089860  45.4365210  65.3607860  30.0647360  44.8659650
  66.8348200  29.7641320  45.0354910  65.1734670  25.5928850  47.0432250
  65.1042950  24.6518790  46.8821380  65.9354530  25.6830260  47.6154820
  57.3641340  16.1983370  49.3688870  57.1844180  15.3009120  49.6491630
  56.9621420  16.7455240  50.0435820  66.2039840  18.3999230  47.2701180
  66.5804660  17.5271110  47.1574850  66.1059350  18.7357930  46.3791620
  60.3344850  16.7724860  42.7318620  60.4411600  17.6728590  43.0387380
  59.4237210  16.7242830  42.4413270  69.9863960  15.8949670  44.2029520
  70.8073580  15.4046240  44.2455000  70.0198040  16.4847330  44.9561360
  57.9828010  18.6943870  47.9771210  58.6638120  18.9582240  48.5958610
  57.6676060  17.8544740  48.3109220  62.1752580  19.7411230  47.0643800
  62.6830800  20.2392200  47.7048820  62.7065820  18.9646430  46.8883160
  74.2763510  17.9116420  50.7673150  73.5715680  18.2998130  50.2488260
  74.5421430  18.6066710  51.3694080  60.4588680  14.3809790  51.3307220
  60.4607120  14.8982180  50.5253120  59.6292990  13.9039970  51.3077150
  66.8459770  24.4929100  42.8297120  66.2277040  24.9578550  42.2659840
  67.3583020  25.1856580  43.2466630  61.7091530  24.0204970  49.5080720
  61.3760910  24.6473890  50.1501790  61.8858210  24.5466850  48.7282390
  70.2225440  17.8350050  46.9757060  69.5181010  18.1234940  47.5560170
  70.5837600  18.6450160  46.6156620  60.1404010  16.0919750  49.3377670
  60.4820820  16.9361800  49.0431540  59.2019820  16.2403490  49.4543010
  60.9210630  25.9885770  51.3229900  61.5384630  26.6636850  51.0414350
  60.0603750  26.3973750  51.2317400  56.2142970  25.1785630  40.2036750
  55.8370950  25.6672730  39.4721650  56.4716040  25.8510910  40.8343280
  71.8388220  27.4525180  49.2384540  71.1551740  28.1224290  49.2301210
  72.3782510  27.6505830  48.4729400  73.2912360  17.2804840  47.3666270
  72.3437270  17.3143820  47.4981700  73.6162350  18.0943790  47.7515630
  63.8231900  13.5802020  45.6622260  64.1306880  13.0248910  44.9457760
  62.8932600  13.7146480  45.4795250  69.3746960  29.2969310  47.9529720
  69.3874120  28.8931600  47.0851980  68.8222180  30.0716600  47.8491150
  70.6692380  26.0185530  43.0419890  70.5588710  25.0759860  43.1669310
  70.6660630  26.3801170  43.9282650  68.7732400  24.1999150  49.2812330
  69.1901190  23.9859260  48.4465790  69.4972220  24.4571940  49.8520950
  66.2112660  21.6450850  42.3982380  65.2841940  21.5788230  42.6270850
  66.3637480  22.5830980  42.2837620  66.1981740  17.9167850  39.3949540
  65.2585410  18.0781810  39.4802000  66.5165000  18.6353530  38.8485530
  72.7194500  22.5986370  49.3728570  71.8913130  22.6679460  48.8978700
  73.3144980  23.1840680  48.9044400  70.2409950  23.2071150  42.9017630
  69.6222370  22.8690700  42.2543930  70.2234400  22.5630910  43.6096820
  69.6836510  19.3855690  50.3183440  69.2707690  20.2109400  50.5723430
  68.9512460  18.8000730  50.1259800  61.8169300  22.1715590  45.1802110
  61.4126300  21.4592840  44.6848010  61.9032420  21.8268830  46.0690150
  62.2851000  25.8583150  47.3441320  61.9879290  25.2528620  46.6649100
  63.2350820  25.8960460  47.2330680  60.5297920  18.9458800  48.9601150
  61.0812510  19.0554140  48.1854400  61.0441430  19.3196400  49.6756380
  70.3736610  29.4315020  51.0064420  69.8967170  30.2387210  50.8137030
  69.6898400  28.7793350  51.1590630  68.4174650  22.4457960  39.9090380
  68.8567930  21.6080390  39.7628200  69.1303070  23.0787360  39.9954520
  60.2040650  22.4678160  52.5706490  60.0648420  23.3400960  52.9393890
  59.3222010  22.1250970  52.4254430  66.5270030  27.3854030  43.8771620
  66.9665940  28.1278360  43.4627010  66.4656920  27.6280600  44.8010580
  71.9991790  13.7000770  38.2231420  71.6864450  13.7927600  39.1230490
  72.7604260  14.2781800  38.1728850  58.5173930  21.0660570  42.6808760
  58.3971530  21.7922660  42.0690030  58.2074820  20.2963480  42.2036670
  56.1559300  24.2375710  48.4877400  56.2339720  24.3724480  47.5433120
  56.7700980  23.5291600  48.6805520  57.4006930  25.9375900  44.8983580
  56.9935010  26.0790490  44.0437180  58.2919940  25.6536060  44.6954790
  73.3569070  26.3839810  53.2355820  73.4832130  26.1451690  52.3173000
  73.3990450  25.5524350  53.7077900  67.2185810  30.0867810  51.8050630
  67.7330480  29.9975820  52.6073060  66.3754890  30.4327510  52.0978540
  69.1940210  30.3723150  41.2334630  69.0341350  30.0826090  42.1316460
  69.0286920  29.5963280  40.6979860  61.6728590  30.1521680  43.0106250
  61.4971070  29.2357220  42.7974050  60.8184330  30.5108970  43.2504050
  68.8966340  27.8810710  39.7932630  68.2031500  27.8788000  39.1334910
  69.6389200  27.4570030  39.3626800  68.4616270  29.5073420  43.8681120
  68.9173220  28.7262800  44.1819740  68.8008790  30.2180240  44.4122300
  73.2093080  18.4372270  54.2005560  72.5937350  18.9451940  53.6721020
  72.8889500  17.5370600  54.1431500  56.2118820  25.2789880  51.0271860
  56.3749860  24.8095240  50.2091230  56.6771270  24.7713440  51.6920700
  60.9837590  14.4095640  46.0632430  60.5405740  15.1905180  45.7316950
  61.5422580  14.7325530  46.7703370  65.2707400  17.2764160  51.6667750
  64.8086770  17.4847180  52.4787690  64.8685510  16.4623510  51.3638420
  70.2711910  18.4973110  52.7964410  69.4205500  18.1978860  53.1173480
  70.1113700  18.7415120  51.8848230  64.0996410  14.0306340  40.9438260
  63.4750590  14.0266210  41.6691570  64.0126530  13.1637300  40.5474230
  63.0213490  14.9542970  47.9222030  63.3185820  15.8605800  47.8414050
  63.5699050  14.4661750  47.3081600  60.7751810  19.5329210  43.7913680
  60.5492730  19.3166380  44.6960300  59.9944340  19.9657670  43.4459650
  68.0049570  19.5392580  42.3904330  67.4058460  20.2628380  42.2067950
  68.5529180  19.4769360  41.6080780  66.6114440  18.1756120  44.4207610
  67.0044010  18.4928320  43.6076300  66.9731290  17.2968000  44.5352130
  58.3461560  16.8428460  52.6107730  57.9524950  17.6903670  52.8180510
  57.6579960  16.2054830  52.8016370  55.6478610  14.7656920  46.6437810
  55.3591660  15.3359780  47.3562790  56.3924370  14.2861370  47.0069040
  55.8348840  18.7077040  37.8540530  55.7523510  19.6507800  37.9955520
  55.4831900  18.5651950  36.9752880  67.1969580  20.7661870  48.5158390
  66.4650700  21.2748680  48.8648490  66.7993920  19.9491850  48.2147170
  63.6346970  17.4416070  46.9210880  63.6383030  17.0006020  46.0715420
  64.5298090  17.7633400  47.0282700  59.4849350  17.3242560  45.8805090
  59.1449400  17.8017790  46.6372140  58.7226670  16.8707680  45.5206190
  63.6967120  18.4428150  39.9117640  63.8179940  18.4014630  40.8603460
  63.3115630  19.3052300  39.7564370  67.6595490  16.2195550  47.9281330
  67.6768230  16.6704200  48.7723180  67.4111070  15.3201190  48.1414770
  62.7088620  20.7529290  39.3100940  62.1405520  20.3047540  38.6836850
  63.4177620  21.1122070  38.7766090  57.7857800  24.6541310  53.1867670
  57.4012590  24.0134980  53.7850630  58.0969990  25.3577430  53.7562400
  63.9354940  21.5017850  48.6676290  64.3025070  21.0276420  49.4137630
  63.7460000  22.3759420  49.0084630  56.7995430  16.2461540  44.7969760
  56.5142350  15.8817210  45.6348380  56.7374290  15.5142000  44.1832900
  61.7254310  20.5426490  50.9860500  61.4211380  21.4218470  51.2110860
  62.6800770  20.6026280  51.0217940  60.2536100  24.7487480  41.5827350
  59.4798360  24.2085100  41.4226070  60.9830730  24.2294090  41.2445110
  71.0124080  23.7452840  47.3753740  71.7323200  24.2408130  46.9849850
  70.8105900  23.0670730  46.7307610  66.4734020  15.1390800  41.5183130
  65.6598630  14.6403970  41.4428440  66.2795970  15.9789050  41.1019480
  66.3942880  23.8161900  53.2622740  66.3280190  22.8957570  53.0080330
  65.7648020  23.9137340  53.9767380  69.1882410  19.5110450  39.8145290
  70.0762030  19.8227680  39.6396630  69.1587500  18.6382700  39.4225870
  60.2973500  24.4167860  45.2206160  60.8152170  23.6136120  45.1663050
  59.8457520  24.3547000  46.0622990  65.1843000  25.6834140  40.4933460
  65.5258700  26.4276370  39.9976780  64.3555710  25.9965260  40.8558290
  57.7818040  21.3829230  52.1331860  57.4232980  22.0483080  52.7205200
  57.4872600  20.5512780  52.5044480  66.3259610  26.6382470  53.0126540
  66.3404150  25.7063430  52.7945450  65.6184710  26.7242230  53.6516310
  71.4596680  20.8222290  39.2825150  71.3760400  21.2536510  38.4321590
  72.1790870  21.2820640  39.7151970  72.5370820  23.2789810  52.3595120
  71.8119010  23.8718590  52.1624510  73.0646280  23.2713350  51.5608490
  72.4883930  27.6764550  42.0107280  71.8460090  27.0220170  42.2851000
  72.1014590  28.0819640  41.2347950  68.0670410  25.0049980  45.8578970
  68.4194230  24.4078110  45.1980340  67.1832740  24.6794210  46.0287220
  64.1533690  25.7647670  43.2649380  64.8404820  26.3116880  43.6456970
  63.3666110  26.3088400  43.2998990  56.2926090  21.3820490  38.7566460
  57.1620940  21.6645290  39.0402380  55.8016410  22.1956360  38.6415270
  63.4560900  22.7693700  42.8774740  63.9123680  23.5798950  43.1034930
  63.1049110  22.4516840  43.7093230  65.7593510  28.2800040  50.1067040
  66.4035730  28.4859420  50.7840460  66.1222950  27.5188440  49.6537890
  59.3572680  13.1131350  43.3497260  59.2287310  13.1049250  44.2982180
  58.5334700  13.4514440  42.9988270  67.0325590  26.2832390  48.8244490
  67.6747820  25.5825550  48.9376660  67.5574940  27.0630830  48.6441380
  70.8781310  26.5681010  38.5483630  70.6518890  25.8511450  39.1408270
  70.4877510  26.3193450  37.7105380  68.8063210  27.0827290  52.0280550
  69.1419450  27.6693980  52.7058470  67.8863550  26.9520000  52.2578340
  56.6597340  30.5947870  39.3228090  57.0194980  31.1937210  38.6685360
  56.5189680  31.1407760  40.0963120  56.3566610  14.8722470  52.8103960
  55.6425130  15.0719390  53.4156570  56.7761650  14.0962040  53.1818760
  70.4597560  24.4852950  40.2097790  70.1719260  24.9465640  40.9975670
  71.2549730  24.0250720  40.4782010  56.6439200  28.8602730  53.7970490
  56.7530320  27.9197470  53.6565880  55.9919760  29.1257480  53.1484220
  62.6765960  27.9779070  40.1401760  62.6676060  28.7108760  39.5246270
  61.7564320  27.7310650  40.2328720  58.2772600  23.1993960  40.8848520
  57.6700550  23.9392860  40.8943820  58.7521950  23.2893320  40.0586720
  67.8505390  17.3644780  50.5605410  68.2186210  16.5439990  50.8884980
  66.9903590  17.4246670  50.9761060  71.2167420  16.3201720  41.3692970
  70.5880580  16.4247390  40.6551200  70.7219340  16.5398500  42.1586850
  65.6625560  28.0407310  38.8026950  65.7637540  27.8371300  37.8728930
  64.7627300  27.7865590  39.0074730  63.1851450  18.5987670  42.7850850
  62.4767600  19.0674010  43.2264460  63.4695930  17.9409680  43.4196040
  64.8107380  20.0184370  50.7843380  65.3092630  20.4930190  51.4495230
  64.9530330  19.0947890  50.9913410  67.2166880  15.3238330  44.2246640
  67.0934660  15.3424460  43.2756150  68.1651440  15.3717270  44.3445040
  64.3043670  30.5593630  43.4974620  64.5585170  30.5215020  42.5753990
  63.3556150  30.4326960  43.4902870  61.3886470  16.9072750  40.1601560
  62.2377000  17.3442900  40.0941750  61.0217740  17.2193010  40.9873620
  72.0174240  16.2352330  51.6271770  71.5147840  16.9757730  51.9665580
  72.8330900  16.6236330  51.3108560  70.3096250  21.4785510  45.0733130
  69.3686390  21.4935740  45.2480820  70.6240320  20.6921470  45.5193430
  60.2877890  23.1605110  38.6337090  61.0541160  23.0486470  39.1962520
  60.3652580  22.4643080  37.9813860  58.9824650  20.5930180  39.3169980
  59.0628240  19.6457690  39.4287380  59.8744400  20.9237060  39.4230640
  72.3121830  28.6494360  46.7487390  72.4369250  29.4725530  47.2211200
  73.1787390  28.4385090  46.4011540  59.7839360  30.7425570  46.4204520
  60.5201840  30.1941030  46.6913090  60.1680280  31.6081580  46.2810510
  56.6684840  26.8099140  42.2946030  55.7424620  27.0520280  42.2851440
  57.1341270  27.6373400  42.1730780  62.8941670  29.9155880  38.2430090
  63.6870280  30.2044710  37.7911880  62.3746020  29.4848050  37.5642570
  71.9471840  29.1426010  39.6666830  71.6613350  28.7291150  38.8521010
  71.7491390  30.0713720  39.5467350  63.4119070  25.1359290  38.1072440
  63.3069710  24.5211640  38.8333820  63.2443290  24.6125180  37.3235450
  63.5633390  23.8216090  54.0861670  62.7979060  24.3901090  54.0016340
  63.7449350  23.5292300  53.1929900  66.6521800  24.1979320  38.7114430
  66.1031900  24.6448620  39.3557170  67.2741060  23.6928570  39.2352100
  62.3196920  23.1570240  40.6079730  62.7413340  22.9910110  41.4511120
  62.4447760  22.3470470  40.1134870  60.4824340  19.1366790  53.4150710
  59.9520800  18.6457740  52.7874050  61.1512410  19.5650990  52.8808640
  64.8324560  22.1807850  37.8556830  65.3530220  21.4656870  37.4897980
  65.4792960  22.8193720  38.1557340  69.3802400  23.6036250  53.1791900
  69.7943420  23.7581330  54.0282320  68.4453400  23.7291470  53.3417680
  60.9696640  16.1029160  53.4948000  60.8753510  15.4849910  52.7698870
  60.3894030  16.8295450  53.2677910  63.7358080  14.6602400  50.5275390
  63.2875380  14.6826660  49.6820940  63.1023280  14.2621420  51.1245690
  64.1417630  23.5556730  51.1487830  64.5605740  24.3989460  50.9764070
  63.2226260  23.6928770  50.9194610  66.4781530  21.2872910  52.5325670
  66.5977740  20.6914050  53.2720510  67.3375530  21.3242600  52.1126970
  68.8169430  21.8410100  51.1088180  68.2904650  22.3652720  50.5053320
  69.1600770  22.4737490  51.7397910  61.2155820  19.2303470  37.5537890
  61.0144880  18.3670830  37.9151230  61.0447870  19.1436830  36.6159490
  61.9925050  29.8609740  52.2645560  61.4546140  30.5855800  51.9454260
  62.2459010  29.3840080  51.4742900  68.6944130  14.0411700  40.0824770
  68.9746420  13.1979600  40.4384190  67.9209860  14.2734810  40.5963520
  60.0138620  16.3304090  37.5415770  60.3164520  16.3371520  36.6334920
  60.7533210  15.9801950  38.0383430  64.8487260  31.0960950  52.5232210
  64.7745960  31.9996090  52.8304580  63.9466100  30.7772850  52.4954280
  63.2323550  15.2738710  38.5271970  62.8845550  14.5962700  37.9474420
  63.4336320  14.8128220  39.3415360  65.3972590  30.2619460  40.1458570
  66.2923380  30.6004430  40.1677330  65.4290220  29.5398870  39.5182850
  59.0368750  25.6346510  38.3745570  59.4743620  26.1776180  39.0303150
  59.5216480  24.8093460  38.3841910  56.2514550  28.4235540  45.8265830
  56.5817560  27.5556600  45.5944470  56.6805550  28.6294060  46.6570790
  60.8476470  26.7544550  43.4867800  60.5472010  26.6309520  44.3871710
  60.7413960  25.8953140  43.0783530  56.7404760  29.2906130  48.5647460
  56.3035750  29.4706930  49.3971610  57.3082440  30.0480750  48.4229180
  72.3766940  28.7923130  52.8524770  71.7768930  28.8515690  52.1088690
  72.5060840  27.8528110  52.9821620  73.6168390  26.5340950  38.1894480
  72.7861350  26.6017600  38.6601710  73.7940220  27.4245070  37.8861340
  73.0724850  23.2788430  40.6928680  73.8343760  23.8485080  40.7988370
  73.0879220  22.7115630  41.4636990  56.5729190  21.8026360  44.9236340
  55.9178030  21.5338000  44.2796040  57.4107140  21.6930840  44.4738320
  74.0784820  24.1338530  45.5370610  74.4493650  23.3505850  45.1306580
  74.7186750  24.8227630  45.3587910  71.0618580  25.5175110  50.9500930
  70.2478420  25.9472270  51.2126720  71.4692780  26.1293520  50.3369980
  73.1244020  23.5722800  37.8501200  73.3992860  24.4801680  37.7220420
  72.9354760  23.5085330  38.7863190  69.5219630  16.5967650  39.1454830
  69.9404510  16.4098630  38.3051490  69.2155690  15.7446700  39.4557760
  73.0209360  21.5091790  42.8430630  72.6452960  20.7419720  42.4111920
  72.2912480  21.8914490  43.3305560  57.6105120  22.1878930  49.4639680
  57.9778160  22.1006330  50.3435700  57.0415940  21.4245480  49.3646540
  72.4108980  20.6563310  52.4770150  72.1795070  20.4276060  51.5768100
  72.6713530  21.5762860  52.4315040  57.1621120  19.0988020  53.3698100
  56.2677170  19.0654780  53.7091810  57.7018670  19.2974810  54.1349350
  55.7867270  19.0125290  40.8661670  54.8831350  19.2755490  40.6913330
  56.2707890  19.2836460  40.0861630  72.2960320  19.7349280  46.1437870
  72.8197800  19.2411930  45.5128040  72.8819740  19.8699640  46.8885440
  72.4750040  19.8189150  49.6657420  71.5252750  19.7852690  49.7802410
  72.6563050  20.7289260  49.4307190  58.3294480  18.0690830  38.7756050
  59.0386180  17.6474050  38.2903330  57.6134420  18.1366060  38.1439400
  57.9768640  14.1230160  37.8158700  58.6996770  14.6639100  38.1339920
  58.2493160  13.8493580  36.9400240  71.7860290  18.9922630  42.0830280
  72.2819410  18.7593500  42.8679160  71.5876360  18.1534470  41.6667920
  57.6660830  13.3736350  47.7181320  58.3137020  12.8233730  47.2776480
  58.0862670  13.6279500  48.5397130  73.2147450  17.6283580  44.6167960
  73.1046730  17.4739620  45.5550230  73.9755040  17.1004520  44.3743370
  71.5613170  13.5677710  51.0750960  72.1985390  14.1811850  51.4410150
  71.7088060  13.6038370  50.1300190  74.1037720  15.4591500  37.8574100
  75.0287030  15.3272680  37.6492390  74.0813510  15.5384320  38.8110550
  74.1776210  16.2302160  40.4830810  73.3827710  16.1647280  41.0123720
  74.3819490  17.1652800  40.4716160  71.1194630  30.2693710  44.4769200
  71.7153700  29.9478280  43.8003620  71.3772780  29.7965530  45.2682470
  57.4192830  13.5292020  50.4606640  57.0707650  13.9855840  51.2264820
  57.0880530  12.6349150  50.5429070  62.7263230  28.2571210  50.2269550
  62.4854590  28.5245770  49.3400070  63.6665870  28.4276940  50.2820410
  73.9867390  30.2765590  51.0280190  73.4925670  30.6734460  50.3107320
  73.3780680  29.6514800  51.4217470  58.8645230  29.6473870  51.7457610
  58.2705550  29.5158570  52.4847650  58.8569070  28.8112010  51.2799710
  68.3100250  12.9406100  49.9487640  67.4360090  13.2741210  49.7460570
  68.2011000  12.4679280  50.7739510  69.2172230  15.1476970  51.3329360
  68.8885590  14.3328730  50.9531090  70.1654530  15.1046780  51.2095050
  71.6706840  30.9189010  48.3066930  71.2109810  31.6704820  47.9324950
  71.0419300  30.1995480  48.2481730  58.4957460  27.0132250  50.6965650
  57.7691520  26.3937540  50.6291600  58.5566610  27.4072860  49.8263730
  62.1002560  29.2277250  47.4815060  62.6167580  28.6164610  46.9563320
  62.7499940  29.7306030  47.9726070  64.8398060  30.1185740  48.3084040
  65.1275870  29.8640040  47.4317050  65.3521280  29.5663100  48.8989610
  66.0575070  13.8575940  48.8880550  65.2746860  14.3321440  49.1677310
  65.7638000  12.9530770  48.7793730  70.6096140  14.5599040  46.9329640
  71.0504230  14.5044140  46.0851240  70.3403730  15.4757050  47.0039820
  72.4734710  14.1914280  44.9438460  72.4123110  13.2475500  44.7969480
  73.2526740  14.2994370  45.4891920  56.7787460  30.3306640  43.9062410
  56.6109500  29.6977320  44.6044300  55.9121970  30.5366040  43.5556600
  57.4015480  14.1623420  41.4094270  58.1594840  14.2752300  40.8358300
  56.9392650  14.9992620  41.3637700  63.9429290  16.2762690  44.3996580
  63.1303800  15.9019580  44.0592460  64.4470930  15.5207770  44.7017770
  68.4454270  12.9405140  45.6379650  69.0483640  13.5125350  46.1128170
  67.7047260  13.5044580  45.4153550  71.5888870  13.3426700  40.9119930
  71.7839500  14.2410150  41.1787360  70.8018740  13.1113780  41.4052880
  58.3850160  29.0239870  41.3512550  57.8597780  29.4047900  40.6474510
  58.3094740  29.6490640  42.0722260  59.7740630  14.6887470  39.9496240
  60.3033390  13.9017270  39.8204190  60.4068950  15.3678660  40.1831770
  61.9678470  14.4262610  43.0041630  61.3381210  13.7249920  43.1711760
  61.4283610  15.1866740  42.7874790  73.1415480  30.5827410  42.6726490
  73.3167670  29.8965150  42.0287410  72.4437050  31.1074460  42.2803160
  60.9843130  30.9722250  40.2261800  61.7161950  30.6881530  39.6785690
  61.2436800  30.7335530  41.1161180  60.1457920  27.0886980  40.2308130
  59.5166800  27.5572080  40.7793960  60.2605750  26.2436200  40.6654320
  67.6007640  21.1392640  26.3809330  67.5201690  20.2247250  26.1101040
  67.1872060  21.6359710  25.6749040  65.7325680  22.9171660  28.2618600
  64.9567780  22.4372100  28.5517170  66.3838610  22.2377310  28.0874760
  59.7491510  23.2291470  29.1394360  58.9176390  22.9740180  29.5390870
  60.3572490  23.3002240  29.8752280  69.7533110  27.3231850  27.0417730
  69.2914640  26.5519090  27.3704900  70.5658660  27.3497920  27.5470180
  59.7292770  27.2631560  29.3352380  60.0320810  26.3729300  29.1562600
  60.4736360  27.8201780  29.1074630  58.1583460  18.1893360  22.9236750
  57.2700160  18.5309330  22.8216630  58.4424650  17.9893680  22.0317580
  56.1216470  20.7899010  28.8076450  56.6932580  20.0221210  28.8080090
  56.1218010  21.0887770  27.8983060  65.9796420  29.6089860  26.6621720
  65.3607860  30.0647360  26.0916160  66.8348200  29.7641320  26.2611420
  65.1734670  25.5928850  28.2688760  65.1042950  24.6518790  28.1077890
  65.9354530  25.6830260  28.8411330  57.3641340  16.1983370  30.5945380
  57.1844180  15.3009120  30.8748140  56.9621420  16.7455240  31.2692330
  66.2039840  18.3999230  28.4957690  66.5804660  17.5271110  28.3831360
  66.1059350  18.7357930  27.6048130  60.3344850  16.7724860  23.9575130
  60.4411600  17.6728590  24.2643890  59.4237210  16.7242830  23.6669780
  69.9863960  15.8949670  25.4286030  70.8073580  15.4046240  25.4711510
  70.0198040  16.4847330  26.1817870  57.9828010  18.6943870  29.2027720
  58.6638120  18.9582240  29.8215120  57.6676060  17.8544740  29.5365730
  62.1752580  19.7411230  28.2900310  62.6830800  20.2392200  28.9305330
  62.7065820  18.9646430  28.1139670  74.2763510  17.9116420  31.9929660
  73.5715680  18.2998130  31.4744770  74.5421430  18.6066710  32.5950590
  60.4588680  14.3809790  32.5563730  60.4607120  14.8982180  31.7509630
  59.6292990  13.9039970  32.5333660  66.8459770  24.4929100  24.0553630
  66.2277040  24.9578550  23.4916350  67.3583020  25.1856580  24.4723140
  61.7091530  24.0204970  30.7337230  61.3760910  24.6473890  31.3758300
  61.8858210  24.5466850  29.9538900  70.2225440  17.8350050  28.2013570
  69.5181010  18.1234940  28.7816680  70.5837600  18.6450160  27.8413130
  60.1404010  16.0919750  30.5634180  60.4820820  16.9361800  30.2688050
  59.2019820  16.2403490  30.6799520  60.9210630  25.9885770  32.5486410
  61.5384630  26.6636850  32.2670860  60.0603750  26.3973750  32.4573910
  56.2142970  25.1785630  21.4293260  55.8370950  25.6672730  20.6978160
  56.4716040  25.8510910  22.0599790  71.8388220  27.4525180  30.4641050
  71.1551740  28.1224290  30.4557720  72.3782510  27.6505830  29.6985910
  73.2912360  17.2804840  28.5922780  72.3437270  17.3143820  28.7238210
  73.6162350  18.0943790  28.9772140  63.8231900  13.5802020  26.8878770
  64.1306880  13.0248910  26.1714270  62.8932600  13.7146480  26.7051760
  69.3746960  29.2969310  29.1786230  69.3874120  28.8931600  28.3108490
  68.8222180  30.0716600  29.0747660  70.6692380  26.0185530  24.2676400
  70.5588710  25.0759860  24.3925820  70.6660630  26.3801170  25.1539160
  68.7732400  24.1999150  30.5068840  69.1901190  23.9859260  29.6722300
  69.4972220  24.4571940  31.0777460  66.2112660  21.6450850  23.6238890
  65.2841940  21.5788230  23.8527360  66.3637480  22.5830980  23.5094130
  66.1981740  17.9167850  20.6206050  65.2585410  18.0781810  20.7058510
  66.5165000  18.6353530  20.0742040  72.7194500  22.5986370  30.5985080
  71.8913130  22.6679460  30.1235210  73.3144980  23.1840680  30.1300910
  70.2409950  23.2071150  24.1274140  69.6222370  22.8690700  23.4800440
  70.2234400  22.5630910  24.8353330  69.6836510  19.3855690  31.5439950
  69.2707690  20.2109400  31.7979940  68.9512460  18.8000730  31.3516310
  61.8169300  22.1715590  26.4058620  61.4126300  21.4592840  25.9104520
  61.9032420  21.8268830  27.2946660  62.2851000  25.8583150  28.5697830
  61.9879290  25.2528620  27.8905610  63.2350820  25.8960460  28.4587190
  60.5297920  18.9458800  30.1857660  61.0812510  19.0554140  29.4110910
  61.0441430  19.3196400  30.9012890  70.3736610  29.4315020  32.2320930
  69.8967170  30.2387210  32.0393540  69.6898400  28.7793350  32.3847140
  61.3769430  25.5964840  35.2205630  60.4797960  25.8204810  35.4679030
  61.4022300  25.7199780  34.2717030  68.4174650  22.4457960  21.1346890
  68.8567930  21.6080390  20.9884710  69.1303070  23.0787360  21.2211030
  60.2040650  22.4678160  33.7963000  60.0648420  23.3400960  34.1650400
  59.3222010  22.1250970  33.6510940  66.5270030  27.3854030  25.1028130
  66.9665940  28.1278360  24.6883520  66.4656920  27.6280600  26.0267090
  62.0021000  28.4099860  36.0048150  61.9736430  28.8142810  35.1376580
  61.8385970  27.4810220  35.8419750  71.9991790  13.7000770  19.4487930
  71.6864450  13.7927600  20.3487000  72.7604260  14.2781800  19.3985360
  58.5173930  21.0660570  23.9065270  58.3971530  21.7922660  23.2946540
  58.2074820  20.2963480  23.4293180  73.9535820  29.1926960  37.3012320
  74.4295540  29.6709850  37.9801400  74.5742980  29.1244450  36.5757820
  56.1559300  24.2375710  29.7133910  56.2339720  24.3724480  28.7689630
  56.7700980  23.5291600  29.9062030  57.4006930  25.9375900  26.1240090
  56.9935010  26.0790490  25.2693690  58.2919940  25.6536060  25.9211300
  73.3569070  26.3839810  34.4612330  73.4832130  26.1451690  33.5429510
  73.3990450  25.5524350  34.9334410  67.2185810  30.0867810  33.0307140
  67.7330480  29.9975820  33.8329570  66.3754890  30.4327510  33.3235050
  69.1940210  30.3723150  22.4591140  69.0341350  30.0826090  23.3572970
  69.0286920  29.5963280  21.9236370  61.6728590  30.1521680  24.2362760
  61.4971070  29.2357220  24.0230560  60.8184330  30.5108970  24.4760560
  68.8966340  27.8810710  21.0189140  68.2031500  27.8788000  20.3591420
  69.6389200  27.4570030  20.5883310  68.4616270  29.5073420  25.0937630
  68.9173220  28.7262800  25.4076250  68.8008790  30.2180240  25.6378810
  73.2093080  18.4372270  35.4262070  72.5937350  18.9451940  34.8977530
  72.8889500  17.5370600  35.3688010  56.2118820  25.2789880  32.2528370
  56.3749860  24.8095240  31.4347740  56.6771270  24.7713440  32.9177210
  60.9837590  14.4095640  27.2888940  60.5405740  15.1905180  26.9573460
  61.5422580  14.7325530  27.9959880  65.2707400  17.2764160  32.8924260
  64.8086770  17.4847180  33.7044200  64.8685510  16.4623510  32.5894930
  70.2711910  18.4973110  34.0220920  69.4205500  18.1978860  34.3429990
  70.1113700  18.7415120  33.1104740  67.3661620  19.9974860  36.1219710
  67.6915030  19.1638610  35.7821940  68.1541950  20.5203380  36.2698040
  64.0996410  14.0306340  22.1694770  63.4750590  14.0266210  22.8948080
  64.0126530  13.1637300  21.7730740  63.0213490  14.9542970  29.1478540
  63.3185820  15.8605800  29.0670560  63.5699050  14.4661750  28.5338110
  60.7751810  19.5329210  25.0170190  60.5492730  19.3166380  25.9216810
  59.9944340  19.9657670  24.6716160  68.0049570  19.5392580  23.6160840
  67.4058460  20.2628380  23.4324460  68.5529180  19.4769360  22.8337290
  63.2151020  20.4314790  35.6830460  63.1194620  19.4909520  35.5330860
  64.0583000  20.6529860  35.2878530  66.6114440  18.1756120  25.6464120
  67.0044010  18.4928320  24.8332810  66.9731290  17.2968000  25.7608640
  58.3461560  16.8428460  33.8364240  57.9524950  17.6903670  34.0437020
  57.6579960  16.2054830  34.0272880  64.9206610  16.9263430  36.9060980
  64.2304930  16.7335630  37.5407070  65.6638910  17.2098070  37.4385280
  55.6478610  14.7656920  27.8694320  55.3591660  15.3359780  28.5819300
  56.3924370  14.2861370  28.2325550  55.8348840  18.7077040  19.0797040
  55.7523510  19.6507800  19.2212030  55.4831900  18.5651950  18.2009390
  67.1969580  20.7661870  29.7414900  66.4650700  21.2748680  30.0905000
  66.7993920  19.9491850  29.4403680  63.6346970  17.4416070  28.1467390
  63.6383030  17.0006020  27.2971930  64.5298090  17.7633400  28.2539210
  59.4849350  17.3242560  27.1061600  59.1449400  17.8017790  27.8628650
  58.7226670  16.8707680  26.7462700  63.6967120  18.4428150  21.1374150
  63.8179940  18.4014630  22.0859970  63.3115630  19.3052300  20.9820880
  67.6595490  16.2195550  29.1537840  67.6768230  16.6704200  29.9979690
  67.4111070  15.3201190  29.3671280  62.7088620  20.7529290  20.5357450
  62.1405520  20.3047540  19.9093360  63.4177620  21.1122070  20.0022600
  71.0866240  13.6327730  34.9924220  71.4112010  12.9017390  35.5182200
  71.1222750  13.3141370  34.0905210  57.7857800  24.6541310  34.4124180
  57.4012590  24.0134980  35.0107140  58.0969990  25.3577430  34.9818910
  63.9354940  21.5017850  29.8932800  64.3025070  21.0276420  30.6394140
  63.7460000  22.3759420  30.2341140  56.7995430  16.2461540  26.0226270
  56.5142350  15.8817210  26.8604890  56.7374290  15.5142000  25.4089410
  61.7254310  20.5426490  32.2117010  61.4211380  21.4218470  32.4367370
  62.6800770  20.6026280  32.2474450  60.2536100  24.7487480  22.8083860
  59.4798360  24.2085100  22.6482580  60.9830730  24.2294090  22.4701620
  71.0124080  23.7452840  28.6010250  71.7323200  24.2408130  28.2106360
  70.8105900  23.0670730  27.9564120  66.4734020  15.1390800  22.7439640
  65.6598630  14.6403970  22.6684950  66.2795970  15.9789050  22.3275990
  66.3942880  23.8161900  34.4879250  66.3280190  22.8957570  34.2336840
  65.7648020  23.9137340  35.2023890  69.1882410  19.5110450  21.0401800
  70.0762030  19.8227680  20.8653140  69.1587500  18.6382700  20.6482380
  60.2973500  24.4167860  26.4462670  60.8152170  23.6136120  26.3919560
  59.8457520  24.3547000  27.2879500  65.1843000  25.6834140  21.7189970
  65.5258700  26.4276370  21.2233290  64.3555710  25.9965260  22.0814800
  57.7818040  21.3829230  33.3588370  57.4232980  22.0483080  33.9461710
  57.4872600  20.5512780  33.7300990  60.9831160  21.8413470  36.2427920
  60.6831300  21.9870650  35.3455740  61.7542400  21.2818760  36.1501310
  66.3259610  26.6382470  34.2383050  66.3404150  25.7063430  34.0201960
  65.6184710  26.7242230  34.8772820  71.4596680  20.8222290  20.5081660
  71.3760400  21.2536510  19.6578100  72.1790870  21.2820640  20.9408480
  72.5370820  23.2789810  33.5851630  71.8119010  23.8718590  33.3881020
  73.0646280  23.2713350  32.7865000  72.4883930  27.6764550  23.2363790
  71.8460090  27.0220170  23.5107510  72.1014590  28.0819640  22.4604460
  68.0670410  25.0049980  27.0835480  68.4194230  24.4078110  26.4236850
  67.1832740  24.6794210  27.2543730  64.1533690  25.7647670  24.4905890
  64.8404820  26.3116880  24.8713480  63.3666110  26.3088400  24.5255500
  56.2926090  21.3820490  19.9822970  57.1620940  21.6645290  20.2658890
  55.8016410  22.1956360  19.8671780  63.4560900  22.7693700  24.1031250
  63.9123680  23.5798950  24.3291440  63.1049110  22.4516840  24.9349740
  65.7593510  28.2800040  31.3323550  66.4035730  28.4859420  32.0096970
  66.1222950  27.5188440  30.8794400  59.3572680  13.1131350  24.5753770
  59.2287310  13.1049250  25.5238690  58.5334700  13.4514440  24.2244780
  67.0325590  26.2832390  30.0501000  67.6747820  25.5825550  30.1633170
  67.5574940  27.0630830  29.8697890  70.8781310  26.5681010  19.7740140
  70.6518890  25.8511450  20.3664780  70.4877510  26.3193450  18.9361890
  68.8063210  27.0827290  33.2537060  69.1419450  27.6693980  33.9314980
  67.8863550  26.9520000  33.4834850  56.6597340  30.5947870  20.5484600
  57.0194980  31.1937210  19.8941870  56.5189680  31.1407760  21.3219630
  56.3566610  14.8722470  34.0360470  55.6425130  15.0719390  34.6413080
  56.7761650  14.0962040  34.4075270  70.4597560  24.4852950  21.4354300
  70.1719260  24.9465640  22.2232180  71.2549730  24.0250720  21.7038520
  56.6439200  28.8602730  35.0227000  56.7530320  27.9197470  34.8822390
  55.9919760  29.1257480  34.3740730  64.6351790  27.1318620  36.4225120
  64.3148660  26.4127860  36.9670810  63.9610150  27.8073690  36.4961180
  62.6765960  27.9779070  21.3658270  62.6676060  28.7108760  20.7502780
  61.7564320  27.7310650  21.4585230  58.2772600  23.1993960  22.1105030
  57.6700550  23.9392860  22.1200330  58.7521950  23.2893320  21.2843230
  67.8505390  17.3644780  31.7861920  68.2186210  16.5439990  32.1141490
  66.9903590  17.4246670  32.2017570  71.2167420  16.3201720  22.5949480
  70.5880580  16.4247390  21.8807710  70.7219340  16.5398500  23.3843360
  65.6625560  28.0407310  20.0283460  65.7637540  27.8371300  19.0985440
  64.7627300  27.7865590  20.2331240  63.1851450  18.5987670  24.0107360
  62.4767600  19.0674010  24.4520970  63.4695930  17.9409680  24.6452550
  64.8107380  20.0184370  32.0099890  65.3092630  20.4930190  32.6751740
  64.9530330  19.0947890  32.2169920  67.2166880  15.3238330  25.4503150
  67.0934660  15.3424460  24.5012660  68.1651440  15.3717270  25.5701550
  64.3043670  30.5593630  24.7231130  64.5585170  30.5215020  23.8010500
  63.3556150  30.4326960  24.7159380  61.3886470  16.9072750  21.3858070
  62.2377000  17.3442900  21.3198260  61.0217740  17.2193010  22.2130130
  72.0174240  16.2352330  32.8528280  71.5147840  16.9757730  33.1922090
  72.8330900  16.6236330  32.5365070  70.3096250  21.4785510  26.2989640
  69.3686390  21.4935740  26.4737330  70.6240320  20.6921470  26.7449940
  60.2877890  23.1605110  19.8593600  61.0541160  23.0486470  20.4219030
  60.3652580  22.4643080  19.2070370  58.9824650  20.5930180  20.5426490
  59.0628240  19.6457690  20.6543890  59.8744400  20.9237060  20.6487150
  72.3121830  28.6494360  27.9743900  72.4369250  29.4725530  28.4467710
  73.1787390  28.4385090  27.6268050  59.7839360  30.7425570  27.6461030
  60.5201840  30.1941030  27.9169600  60.1680280  31.6081580  27.5067020
  56.6684840  26.8099140  23.5202540  55.7424620  27.0520280  23.5107950
  57.1341270  27.6373400  23.3987290  58.7897640  29.9271640  36.8346610
  59.5910370  30.2483690  37.2482010  58.2749460  29.5667220  37.5566520
  62.8941670  29.9155880  19.4686600  63.6870280  30.2044710  19.0168390
  62.3746020  29.4848050  18.7899080  67.6262270  26.0351510  36.7822020
  67.0200430  26.0583110  36.0417770  67.3216380  25.3034550  37.3189270
  69.0562640  29.7631800  35.3931430  70.0084390  29.6789820  35.3431670
  68.9090860  30.4273510  36.0665220  71.9471840  29.1426010  20.8923340
  71.6613350  28.7291150  20.0777520  71.7491390  30.0713720  20.7723860
  56.5095450  22.4145100  35.7782660  57.0134470  21.8352380  36.3498890
  55.7702870  22.6985330  36.3159030  63.4119070  25.1359290  19.3328950
  63.3069710  24.5211640  20.0590330  63.2443290  24.6125180  18.5491960
  63.5633390  23.8216090  35.3118180  62.7979060  24.3901090  35.2272850
  63.7449350  23.5292300  34.4186410  66.6521800  24.1979320  19.9370940
  66.1031900  24.6448620  20.5813680  67.2741060  23.6928570  20.4608610
  70.7056740  25.5521420  35.8693200  71.4466210  25.8897180  35.3660660
  69.9429420  25.7213480  35.3162970  58.5418530  20.5574690  36.6732730
  58.5823870  20.2588560  37.5817960  59.3964030  20.9582300  36.5140250
  62.3196920  23.1570240  21.8336240  62.7413340  22.9910110  22.6767630
  62.4447760  22.3470470  21.3391380  60.4824340  19.1366790  34.6407220
  59.9520800  18.6457740  34.0130560  61.1512410  19.5650990  34.1065150
  64.8324560  22.1807850  19.0813340  65.3530220  21.4656870  18.7154490
  65.4792960  22.8193720  19.3813850  69.3802400  23.6036250  34.4048410
  69.7943420  23.7581330  35.2538830  68.4453400  23.7291470  34.5674190
  69.8524570  20.9432410  36.4087560  70.4345340  20.1884730  36.3208040
  70.0286340  21.4739850  35.6319040  60.9696640  16.1029160  34.7204510
  60.8753510  15.4849910  33.9955380  60.3894030  16.8295450  34.4934420
  63.7358080  14.6602400  31.7531900  63.2875380  14.6826660  30.9077450
  63.1023280  14.2621420  32.3502200  64.1417630  23.5556730  32.3744340
  64.5605740  24.3989460  32.2020580  63.2226260  23.6928770  32.1451120
  66.4781530  21.2872910  33.7582180  66.5977740  20.6914050  34.4977020
  67.3375530  21.3242600  33.3383480  68.8169430  21.8410100  32.3344690
  68.2904650  22.3652720  31.7309830  69.1600770  22.4737490  32.9654420
  61.2155820  19.2303470  18.7794400  61.0144880  18.3670830  19.1407740
  61.0447870  19.1436830  17.8416000  61.9925050  29.8609740  33.4902070
  61.4546140  30.5855800  33.1710770  62.2459010  29.3840080  32.6999410
  63.2450300  17.8294260  35.0158000  63.8349990  17.5210110  35.7035820
  62.4270540  17.3574010  35.1717900  68.0643730  17.4460070  35.2491020
  67.3759250  16.7841610  35.1841010  68.7849750  16.9998340  35.6939480
  68.6944130  14.0411700  21.3081280  68.9746420  13.1979600  21.6640700
  67.9209860  14.2734810  21.8220030  60.0138620  16.3304090  18.7672280
  60.3164520  16.3371520  17.8591430  60.7533210  15.9801950  19.2639940
  64.8487260  31.0960950  33.7488720  64.7745960  31.9996090  34.0561090
  63.9466100  30.7772850  33.7210790  63.2323550  15.2738710  19.7528480
  62.8845550  14.5962700  19.1730930  63.4336320  14.8128220  20.5671870
  65.3972590  30.2619460  21.3715080  66.2923380  30.6004430  21.3933840
  65.4290220  29.5398870  20.7439360  59.0368750  25.6346510  19.6002080
  59.4743620  26.1776180  20.2559660  59.5216480  24.8093460  19.6098420
  56.2514550  28.4235540  27.0522340  56.5817560  27.5556600  26.8200980
  56.6805550  28.6294060  27.8827300  60.8476470  26.7544550  24.7124310
  60.5472010  26.6309520  25.6128220  60.7413960  25.8953140  24.3040040
  56.7404760  29.2906130  29.7903970  56.3035750  29.4706930  30.6228120
  57.3082440  30.0480750  29.6485690  72.3766940  28.7923130  34.0781280
  71.7768930  28.8515690  33.3345200  72.5060840  27.8528110  34.2078130
  73.6168390  26.5340950  19.4150990  72.7861350  26.6017600  19.8858220
  73.7940220  27.4245070  19.1117850  73.0724850  23.2788430  21.9185190
  73.8343760  23.8485080  22.0244880  73.0879220  22.7115630  22.6893500
  56.5729190  21.8026360  26.1492850  55.9178030  21.5338000  25.5052550
  57.4107140  21.6930840  25.6994830  74.0784820  24.1338530  26.7627120
  74.4493650  23.3505850  26.3563090  74.7186750  24.8227630  26.5844420
  71.0618580  25.5175110  32.1757440  70.2478420  25.9472270  32.4383230
  71.4692780  26.1293520  31.5626490  73.1244020  23.5722800  19.0757710
  73.3992860  24.4801680  18.9476930  72.9354760  23.5085330  20.0119700
  69.5219630  16.5967650  20.3711340  69.9404510  16.4098630  19.5308000
  69.2155690  15.7446700  20.6814270  73.0209360  21.5091790  24.0687140
  72.6452960  20.7419720  23.6368430  72.2912480  21.8914490  24.5562070
  57.6105120  22.1878930  30.6896190  57.9778160  22.1006330  31.5692210
  57.0415940  21.4245480  30.5903050  72.4108980  20.6563310  33.7026660
  72.1795070  20.4276060  32.8024610  72.6713530  21.5762860  33.6571550
  57.1621120  19.0988020  34.5954610  56.2677170  19.0654780  34.9348320
  57.7018670  19.2974810  35.3605860  70.8497050  15.8819740  36.4806360
  71.7267230  15.8903140  36.8640360  70.8617890  15.1450580  35.8698710
  55.7867270  19.0125290  22.0918180  54.8831350  19.2755490  21.9169840
  56.2707890  19.2836460  21.3118140  72.2960320  19.7349280  27.3694380
  72.8197800  19.2411930  26.7384550  72.8819740  19.8699640  28.1141950
  72.4750040  19.8189150  30.8913930  71.5252750  19.7852690  31.0058920
  72.6563050  20.7289260  30.6563700  58.3294480  18.0690830  20.0012560
  59.0386180  17.6474050  19.5159840  57.6134420  18.1366060  19.3695910
  57.9768640  14.1230160  19.0415210  58.6996770  14.6639100  19.3596430
  58.2493160  13.8493580  18.1656750  71.7860290  18.9922630  23.3086790
  72.2819410  18.7593500  24.0935670  71.5876360  18.1534470  22.8924430
  57.6660830  13.3736350  28.9437830  58.3137020  12.8233730  28.5032990
  58.0862670  13.6279500  29.7653640  73.2147450  17.6283580  25.8424470
  73.1046730  17.4739620  26.7806740  73.9755040  17.1004520  25.5999880
  71.5613170  13.5677710  32.3007470  72.1985390  14.1811850  32.6666660
  71.7088060  13.6038370  31.3556700  74.1037720  15.4591500  19.0830610
  75.0287030  15.3272680  18.8748900  74.0813510  15.5384320  20.0367060
  74.1776210  16.2302160  21.7087320  73.3827710  16.1647280  22.2380230
  74.3819490  17.1652800  21.6972670  71.1194630  30.2693710  25.7025710
  71.7153700  29.9478280  25.0260130  71.3772780  29.7965530  26.4938980
  57.4192830  13.5292020  31.6863150  57.0707650  13.9855840  32.4521330
  57.0880530  12.6349150  31.7685580  59.0257200  26.7011620  35.8516340
  58.9826830  26.3304530  36.7330800  59.1568210  27.6389190  35.9918160
  62.7263230  28.2571210  31.4526060  62.4854590  28.5245770  30.5656580
  63.6665870  28.4276940  31.5076920  64.9317650  14.7203900  35.2082570
  64.8706540  15.3125730  35.9577980  65.8718030  14.6129860  35.0632830
  67.5692210  14.3773960  34.8474860  68.1832620  14.6953250  34.1855940
  68.1141770  13.8922550  35.4670720  73.9867390  30.2765590  32.2536700
  73.4925670  30.6734460  31.5363830  73.3780680  29.6514800  32.6473980
  58.0913470  13.0568220  34.9613920  58.6396460  12.8756270  34.1980030
  58.1568780  12.2662330  35.4970230  58.8645230  29.6473870  32.9714120
  58.2705550  29.5158570  33.7104160  58.8569070  28.8112010  32.5056220
  68.3100250  12.9406100  31.1744150  67.4360090  13.2741210  30.9717080
  68.2011000  12.4679280  31.9996020  69.2172230  15.1476970  32.5585870
  68.8885590  14.3328730  32.1787600  70.1654530  15.1046780  32.4351560
  71.6706840  30.9189010  29.5323440  71.2109810  31.6704820  29.1581460
  71.0419300  30.1995480  29.4738240  58.4957460  27.0132250  31.9222160
  57.7691520  26.3937540  31.8548110  58.5566610  27.4072860  31.0520240
  62.1002560  29.2277250  28.7071570  62.6167580  28.6164610  28.1819830
  62.7499940  29.7306030  29.1982580  64.8398060  30.1185740  29.5340550
  65.1275870  29.8640040  28.6573560  65.3521280  29.5663100  30.1246120
  66.0575070  13.8575940  30.1137060  65.2746860  14.3321440  30.3933820
  65.7638000  12.9530770  30.0050240  70.6096140  14.5599040  28.1586150
  71.0504230  14.5044140  27.3107750  70.3403730  15.4757050  28.2296330
  72.4734710  14.1914280  26.1694970  72.4123110  13.2475500  26.0225990
  73.2526740  14.2994370  26.7148430  56.7787460  30.3306640  25.1318920
  56.6109500  29.6977320  25.8300810  55.9121970  30.5366040  24.7813110
  57.4015480  14.1623420  22.6350780  58.1594840  14.2752300  22.0614810
  56.9392650  14.9992620  22.5894210  63.9429290  16.2762690  25.6253090
  63.1303800  15.9019580  25.2848970  64.4470930  15.5207770  25.9274280
  68.4454270  12.9405140  26.8636160  69.0483640  13.5125350  27.3384680
  67.7047260  13.5044580  26.6410060  71.5888870  13.3426700  22.1376440
  71.7839500  14.2410150  22.4043870  70.8018740  13.1113780  22.6309390
  58.3850160  29.0239870  22.5769060  57.8597780  29.4047900  21.8731020
  58.3094740  29.6490640  23.2978770  59.7740630  14.6887470  21.1752750
  60.3033390  13.9017270  21.0460700  60.4068950  15.3678660  21.4088280
  61.9678470  14.4262610  24.2298140  61.3381210  13.7249920  24.3968270
  61.4283610  15.1866740  24.0131300  64.9070420  31.0401840  36.9008750
  65.8337730  30.8046110  36.9444710  64.8920850  31.8673840  36.4194780
  73.1415480  30.5827410  23.8983000  73.3167670  29.8965150  23.2543920
  72.4437050  31.1074460  23.5059670  62.0934030  13.7046590  36.6650630
  61.8118300  14.2080190  35.9011450  62.4753730  12.9068340  36.2992760
  60.9843130  30.9722250  21.4518310  61.7161950  30.6881530  20.9042200
  61.2436800  30.7335530  22.3417690  60.1457920  27.0886980  21.4564640
  59.5166800  27.5572080  22.0050470  60.2605750  26.2436200  21.8910830
  68.6949490  13.1200170  37.2431100  68.5814940  13.4394780  38.1382620
  69.5119230  13.5212680  36.9468380  71.4747980  30.2671700  36.7249790
  72.2673300  29.7720930  36.5175750  71.7681130  30.9461840  37.3325400
  67.6007640  21.1392640   7.6065840  67.5201690  20.2247250   7.3357550
  67.1872060  21.6359710   6.9005550  65.7325680  22.9171660   9.4875110
  64.9567780  22.4372100   9.7773680  66.3838610  22.2377310   9.3131270
  59.7491510  23.2291470  10.3650870  58.9176390  22.9740180  10.7647380
  60.3572490  23.3002240  11.1008790  69.7533110  27.3231850   8.2674240
  69.2914640  26.5519090   8.5961410  70.5658660  27.3497920   8.7726690
  59.7292770  27.2631560  10.5608890  60.0320810  26.3729300  10.3819110
  60.4736360  27.8201780  10.3331140  58.1583460  18.1893360   4.1493260
  57.2700160  18.5309330   4.0473140  58.4424650  17.9893680   3.2574090
  56.1216470  20.7899010  10.0332960  56.6932580  20.0221210  10.0336600
  56.1218010  21.0887770   9.1239570  65.9796420  29.6089860   7.8878230
  65.3607860  30.0647360   7.3172670  66.8348200  29.7641320   7.4867930
  65.1734670  25.5928850   9.4945270  65.1042950  24.6518790   9.3334400
  65.9354530  25.6830260  10.0667840  57.3641340  16.1983370  11.8201890
  57.1844180  15.3009120  12.1004650  56.9621420  16.7455240  12.4948840
  66.2039840  18.3999230   9.7214200  66.5804660  17.5271110   9.6087870
  66.1059350  18.7357930   8.8304640  60.3344850  16.7724860   5.1831640
  60.4411600  17.6728590   5.4900400  59.4237210  16.7242830   4.8926290
  69.9863960  15.8949670   6.6542540  70.8073580  15.4046240   6.6968020
  70.0198040  16.4847330   7.4074380  57.9828010  18.6943870  10.4284230
  58.6638120  18.9582240  11.0471630  57.6676060  17.8544740  10.7622240
  62.1752580  19.7411230   9.5156820  62.6830800  20.2392200  10.1561840
  62.7065820  18.9646430   9.3396180  74.2763510  17.9116420  13.2186170
  73.5715680  18.2998130  12.7001280  74.5421430  18.6066710  13.8207100
  60.4588680  14.3809790  13.7820240  60.4607120  14.8982180  12.9766140
  59.6292990  13.9039970  13.7590170  66.8459770  24.4929100   5.2810140
  66.2277040  24.9578550   4.7172860  67.3583020  25.1856580   5.6979650
  61.7091530  24.0204970  11.9593740  61.3760910  24.6473890  12.6014810
  61.8858210  24.5466850  11.1795410  70.2225440  17.8350050   9.4270080
  69.5181010  18.1234940  10.0073190  70.5837600  18.6450160   9.0669640
  60.1404010  16.0919750  11.7890690  60.4820820  16.9361800  11.4944560
  59.2019820  16.2403490  11.9056030  60.9210630  25.9885770  13.7742920
  61.5384630  26.6636850  13.4927370  60.0603750  26.3973750  13.6830420
  56.2142970  25.1785630   2.6549770  55.8370950  25.6672730   1.9234670
  56.4716040  25.8510910   3.2856300  71.8388220  27.4525180  11.6897560
  71.1551740  28.1224290  11.6814230  72.3782510  27.6505830  10.9242420
  73.2912360  17.2804840   9.8179290  72.3437270  17.3143820   9.9494720
  73.6162350  18.0943790  10.2028650  63.8231900  13.5802020   8.1135280
  64.1306880  13.0248910   7.3970780  62.8932600  13.7146480   7.9308270
  69.3746960  29.2969310  10.4042740  69.3874120  28.8931600   9.5365000
  68.8222180  30.0716600  10.3004170  70.6692380  26.0185530   5.4932910
  70.5588710  25.0759860   5.6182330  70.6660630  26.3801170   6.3795670
  68.7732400  24.1999150  11.7325350  69.1901190  23.9859260  10.8978810
  69.4972220  24.4571940  12.3033970  66.2112660  21.6450850   4.8495400
  65.2841940  21.5788230   5.0783870  66.3637480  22.5830980   4.7350640
  72.7194500  22.5986370  11.8241590  71.8913130  22.6679460  11.3491720
  73.3144980  23.1840680  11.3557420  70.2409950  23.2071150   5.3530650
  69.6222370  22.8690700   4.7056950  70.2234400  22.5630910   6.0609840
  69.6836510  19.3855690  12.7696460  69.2707690  20.2109400  13.0236450
  68.9512460  18.8000730  12.5772820  61.8169300  22.1715590   7.6315130
  61.4126300  21.4592840   7.1361030  61.9032420  21.8268830   8.5203170
  62.2851000  25.8583150   9.7954340  61.9879290  25.2528620   9.1162120
  63.2350820  25.8960460   9.6843700  60.5297920  18.9458800  11.4114170
  61.0812510  19.0554140  10.6367420  61.0441430  19.3196400  12.1269400
  70.3736610  29.4315020  13.4577440  69.8967170  30.2387210  13.2650050
  69.6898400  28.7793350  13.6103650  61.3769430  25.5964840  16.4462140
  60.4797960  25.8204810  16.6935540  61.4022300  25.7199780  15.4973540
  68.4174650  22.4457960   2.3603400  68.8567930  21.6080390   2.2141220
  69.1303070  23.0787360   2.4467540  60.2040650  22.4678160  15.0219510
  60.0648420  23.3400960  15.3906910  59.3222010  22.1250970  14.8767450
  66.5270030  27.3854030   6.3284640  66.9665940  28.1278360   5.9140030
  66.4656920  27.6280600   7.2523600  62.0021000  28.4099860  17.2304660
  61.9736430  28.8142810  16.3633090  61.8385970  27.4810220  17.0676260
  58.5173930  21.0660570   5.1321780  58.3971530  21.7922660   4.5203050
  58.2074820  20.2963480   4.6549690  73.9535820  29.1926960  18.5268830
  74.4295540  29.6709850  19.2057910  74.5742980  29.1244450  17.8014330
  56.1559300  24.2375710  10.9390420  56.2339720  24.3724480   9.9946140
  56.7700980  23.5291600  11.1318540  57.4006930  25.9375900   7.3496600
  56.9935010  26.0790490   6.4950200  58.2919940  25.6536060   7.1467810
  73.3569070  26.3839810  15.6868840  73.4832130  26.1451690  14.7686020
  73.3990450  25.5524350  16.1590920  67.2185810  30.0867810  14.2563650
  67.7330480  29.9975820  15.0586080  66.3754890  30.4327510  14.5491560
  69.1940210  30.3723150   3.6847650  69.0341350  30.0826090   4.5829480
  69.0286920  29.5963280   3.1492880  61.6728590  30.1521680   5.4619270
  61.4971070  29.2357220   5.2487070  60.8184330  30.5108970   5.7017070
  68.4616270  29.5073420   6.3194140  68.9173220  28.7262800   6.6332760
  68.8008790  30.2180240   6.8635320  73.2093080  18.4372270  16.6518580
  72.5937350  18.9451940  16.1234040  72.8889500  17.5370600  16.5944520
  56.2118820  25.2789880  13.4784880  56.3749860  24.8095240  12.6604250
  56.6771270  24.7713440  14.1433720  60.9837590  14.4095640   8.5145450
  60.5405740  15.1905180   8.1829970  61.5422580  14.7325530   9.2216390
  65.2707400  17.2764160  14.1180770  64.8086770  17.4847180  14.9300710
  64.8685510  16.4623510  13.8151440  70.2711910  18.4973110  15.2477430
  69.4205500  18.1978860  15.5686500  70.1113700  18.7415120  14.3361250
  67.3661620  19.9974860  17.3476220  67.6915030  19.1638610  17.0078450
  68.1541950  20.5203380  17.4954550  64.0996410  14.0306340   3.3951280
  63.4750590  14.0266210   4.1204590  64.0126530  13.1637300   2.9987250
  63.0213490  14.9542970  10.3735050  63.3185820  15.8605800  10.2927070
  63.5699050  14.4661750   9.7594620  60.7751810  19.5329210   6.2426700
  60.5492730  19.3166380   7.1473320  59.9944340  19.9657670   5.8972670
  68.0049570  19.5392580   4.8417350  67.4058460  20.2628380   4.6580970
  68.5529180  19.4769360   4.0593800  63.2151020  20.4314790  16.9086970
  63.1194620  19.4909520  16.7587370  64.0583000  20.6529860  16.5135040
  66.6114440  18.1756120   6.8720630  67.0044010  18.4928320   6.0589320
  66.9731290  17.2968000   6.9865150  58.3461560  16.8428460  15.0620750
  57.9524950  17.6903670  15.2693530  57.6579960  16.2054830  15.2529390
  64.9206610  16.9263430  18.1317490  64.2304930  16.7335630  18.7663580
  65.6638910  17.2098070  18.6641790  55.6478610  14.7656920   9.0950830
  55.3591660  15.3359780   9.8075810  56.3924370  14.2861370   9.4582060
  67.1969580  20.7661870  10.9671410  66.4650700  21.2748680  11.3161510
  66.7993920  19.9491850  10.6660190  63.6346970  17.4416070   9.3723900
  63.6383030  17.0006020   8.5228440  64.5298090  17.7633400   9.4795720
  59.4849350  17.3242560   8.3318110  59.1449400  17.8017790   9.0885160
  58.7226670  16.8707680   7.9719210  63.6967120  18.4428150   2.3630660
  63.8179940  18.4014630   3.3116480  63.3115630  19.3052300   2.2077390
  67.6595490  16.2195550  10.3794350  67.6768230  16.6704200  11.2236200
  67.4111070  15.3201190  10.5927790  71.0866240  13.6327730  16.2180730
  71.4112010  12.9017390  16.7438710  71.1222750  13.3141370  15.3161720
  57.7857800  24.6541310  15.6380690  57.4012590  24.0134980  16.2363650
  58.0969990  25.3577430  16.2075420  63.9354940  21.5017850  11.1189310
  64.3025070  21.0276420  11.8650650  63.7460000  22.3759420  11.4597650
  56.7995430  16.2461540   7.2482780  56.5142350  15.8817210   8.0861400
  56.7374290  15.5142000   6.6345920  61.7254310  20.5426490  13.4373520
  61.4211380  21.4218470  13.6623880  62.6800770  20.6026280  13.4730960
  60.2536100  24.7487480   4.0340370  59.4798360  24.2085100   3.8739090
  60.9830730  24.2294090   3.6958130  71.0124080  23.7452840   9.8266760
  71.7323200  24.2408130   9.4362870  70.8105900  23.0670730   9.1820630
  66.4734020  15.1390800   3.9696150  65.6598630  14.6403970   3.8941460
  66.2795970  15.9789050   3.5532500  66.3942880  23.8161900  15.7135760
  66.3280190  22.8957570  15.4593350  65.7648020  23.9137340  16.4280400
  69.1882410  19.5110450   2.2658310  70.0762030  19.8227680   2.0909650
  69.1587500  18.6382700   1.8738890  60.2973500  24.4167860   7.6719180
  60.8152170  23.6136120   7.6176070  59.8457520  24.3547000   8.5136010
  65.1843000  25.6834140   2.9446480  65.5258700  26.4276370   2.4489800
  64.3555710  25.9965260   3.3071310  57.7818040  21.3829230  14.5844880
  57.4232980  22.0483080  15.1718220  57.4872600  20.5512780  14.9557500
  60.9831160  21.8413470  17.4684430  60.6831300  21.9870650  16.5712250
  61.7542400  21.2818760  17.3757820  66.3259610  26.6382470  15.4639560
  66.3404150  25.7063430  15.2458470  65.6184710  26.7242230  16.1029330
  72.5370820  23.2789810  14.8108140  71.8119010  23.8718590  14.6137530
  73.0646280  23.2713350  14.0121510  72.4883930  27.6764550   4.4620300
  71.8460090  27.0220170   4.7364020  72.1014590  28.0819640   3.6860970
  68.0670410  25.0049980   8.3091990  68.4194230  24.4078110   7.6493360
  67.1832740  24.6794210   8.4800240  64.1533690  25.7647670   5.7162400
  64.8404820  26.3116880   6.0969990  63.3666110  26.3088400   5.7512010
  63.4560900  22.7693700   5.3287760  63.9123680  23.5798950   5.5547950
  63.1049110  22.4516840   6.1606250  65.7593510  28.2800040  12.5580060
  66.4035730  28.4859420  13.2353480  66.1222950  27.5188440  12.1050910
  59.3572680  13.1131350   5.8010280  59.2287310  13.1049250   6.7495200
  58.5334700  13.4514440   5.4501290  67.0325590  26.2832390  11.2757510
  67.6747820  25.5825550  11.3889680  67.5574940  27.0630830  11.0954400
  68.8063210  27.0827290  14.4793570  69.1419450  27.6693980  15.1571490
  67.8863550  26.9520000  14.7091360  56.3566610  14.8722470  15.2616980
  55.6425130  15.0719390  15.8669590  56.7761650  14.0962040  15.6331780
  70.4597560  24.4852950   2.6610810  70.1719260  24.9465640   3.4488690
  71.2549730  24.0250720   2.9295030  56.6439200  28.8602730  16.2483510
  56.7530320  27.9197470  16.1078900  55.9919760  29.1257480  15.5997240
  64.6351790  27.1318620  17.6481630  64.3148660  26.4127860  18.1927320
  63.9610150  27.8073690  17.7217690  62.6765960  27.9779070   2.5914780
  62.6676060  28.7108760   1.9759290  61.7564320  27.7310650   2.6841740
  58.2772600  23.1993960   3.3361540  57.6700550  23.9392860   3.3456840
  58.7521950  23.2893320   2.5099740  67.8505390  17.3644780  13.0118430
  68.2186210  16.5439990  13.3398000  66.9903590  17.4246670  13.4274080
  71.2167420  16.3201720   3.8205990  70.5880580  16.4247390   3.1064220
  70.7219340  16.5398500   4.6099870  63.1851450  18.5987670   5.2363870
  62.4767600  19.0674010   5.6777480  63.4695930  17.9409680   5.8709060
  64.8107380  20.0184370  13.2356400  65.3092630  20.4930190  13.9008250
  64.9530330  19.0947890  13.4426430  67.2166880  15.3238330   6.6759660
  67.0934660  15.3424460   5.7269170  68.1651440  15.3717270   6.7958060
  64.3043670  30.5593630   5.9487640  64.5585170  30.5215020   5.0267010
  63.3556150  30.4326960   5.9415890  61.3886470  16.9072750   2.6114580
  62.2377000  17.3442900   2.5454770  61.0217740  17.2193010   3.4386640
  72.0174240  16.2352330  14.0784790  71.5147840  16.9757730  14.4178600
  72.8330900  16.6236330  13.7621580  70.3096250  21.4785510   7.5246150
  69.3686390  21.4935740   7.6993840  70.6240320  20.6921470   7.9706450
  58.9824650  20.5930180   1.7683000  59.0628240  19.6457690   1.8800400
  59.8744400  20.9237060   1.8743660  72.3121830  28.6494360   9.2000410
  72.4369250  29.4725530   9.6724220  73.1787390  28.4385090   8.8524560
  59.7839360  30.7425570   8.8717540  60.5201840  30.1941030   9.1426110
  60.1680280  31.6081580   8.7323530  56.6684840  26.8099140   4.7459050
  55.7424620  27.0520280   4.7364460  57.1341270  27.6373400   4.6243800
  58.7897640  29.9271640  18.0603120  59.5910370  30.2483690  18.4738520
  58.2749460  29.5667220  18.7823030  67.6262270  26.0351510  18.0078530
  67.0200430  26.0583110  17.2674280  67.3216380  25.3034550  18.5445780
  69.0562640  29.7631800  16.6187940  70.0084390  29.6789820  16.5688180
  68.9090860  30.4273510  17.2921730  56.5095450  22.4145100  17.0039170
  57.0134470  21.8352380  17.5755400  55.7702870  22.6985330  17.5415540
  63.5633390  23.8216090  16.5374690  62.7979060  24.3901090  16.4529360
  63.7449350  23.5292300  15.6442920  70.7056740  25.5521420  17.0949710
  71.4466210  25.8897180  16.5917170  69.9429420  25.7213480  16.5419480
  58.5418530  20.5574690  17.8989240  58.5823870  20.2588560  18.8074470
  59.3964030  20.9582300  17.7396760  62.3196920  23.1570240   3.0592750
  62.7413340  22.9910110   3.9024140  62.4447760  22.3470470   2.5647890
  60.4824340  19.1366790  15.8663730  59.9520800  18.6457740  15.2387070
  61.1512410  19.5650990  15.3321660  69.3802400  23.6036250  15.6304920
  69.7943420  23.7581330  16.4795340  68.4453400  23.7291470  15.7930700
  69.8524570  20.9432410  17.6344070  70.4345340  20.1884730  17.5464550
  70.0286340  21.4739850  16.8575550  60.9696640  16.1029160  15.9461020
  60.8753510  15.4849910  15.2211890  60.3894030  16.8295450  15.7190930
  63.7358080  14.6602400  12.9788410  63.2875380  14.6826660  12.1333960
  63.1023280  14.2621420  13.5758710  64.1417630  23.5556730  13.6000850
  64.5605740  24.3989460  13.4277090  63.2226260  23.6928770  13.3707630
  66.4781530  21.2872910  14.9838690  66.5977740  20.6914050  15.7233530
  67.3375530  21.3242600  14.5639990  68.8169430  21.8410100  13.5601200
  68.2904650  22.3652720  12.9566340  69.1600770  22.4737490  14.1910930
  61.9925050  29.8609740  14.7158580  61.4546140  30.5855800  14.3967280
  62.2459010  29.3840080  13.9255920  63.2450300  17.8294260  16.2414510
  63.8349990  17.5210110  16.9292330  62.4270540  17.3574010  16.3974410
  68.0643730  17.4460070  16.4747530  67.3759250  16.7841610  16.4097520
  68.7849750  16.9998340  16.9195990  68.6944130  14.0411700   2.5337790
  68.9746420  13.1979600   2.8897210  67.9209860  14.2734810   3.0476540
  64.8487260  31.0960950  14.9745230  64.7745960  31.9996090  15.2817600
  63.9466100  30.7772850  14.9467300  65.3972590  30.2619460   2.5971590
  66.2923380  30.6004430   2.6190350  65.4290220  29.5398870   1.9695870
  56.2514550  28.4235540   8.2778850  56.5817560  27.5556600   8.0457490
  56.6805550  28.6294060   9.1083810  60.8476470  26.7544550   5.9380820
  60.5472010  26.6309520   6.8384730  60.7413960  25.8953140   5.5296550
  56.7404760  29.2906130  11.0160480  56.3035750  29.4706930  11.8484630
  57.3082440  30.0480750  10.8742200  72.3766940  28.7923130  15.3037790
  71.7768930  28.8515690  14.5601710  72.5060840  27.8528110  15.4334640
  73.0724850  23.2788430   3.1441700  73.8343760  23.8485080   3.2501390
  73.0879220  22.7115630   3.9150010  56.5729190  21.8026360   7.3749360
  55.9178030  21.5338000   6.7309060  57.4107140  21.6930840   6.9251340
  74.0784820  24.1338530   7.9883630  74.4493650  23.3505850   7.5819600
  74.7186750  24.8227630   7.8100930  71.0618580  25.5175110  13.4013950
  70.2478420  25.9472270  13.6639740  71.4692780  26.1293520  12.7883000
  73.0209360  21.5091790   5.2943650  72.6452960  20.7419720   4.8624940
  72.2912480  21.8914490   5.7818580  57.6105120  22.1878930  11.9152700
  57.9778160  22.1006330  12.7948720  57.0415940  21.4245480  11.8159560
  72.4108980  20.6563310  14.9283170  72.1795070  20.4276060  14.0281120
  72.6713530  21.5762860  14.8828060  57.1621120  19.0988020  15.8211120
  56.2677170  19.0654780  16.1604830  57.7018670  19.2974810  16.5862370
  70.8497050  15.8819740  17.7062870  71.7267230  15.8903140  18.0896870
  70.8617890  15.1450580  17.0955220  55.7867270  19.0125290   3.3174690
  54.8831350  19.2755490   3.1426350  56.2707890  19.2836460   2.5374650
  72.2960320  19.7349280   8.5950890  72.8197800  19.2411930   7.9641060
  72.8819740  19.8699640   9.3398460  72.4750040  19.8189150  12.1170440
  71.5252750  19.7852690  12.2315430  72.6563050  20.7289260  11.8820210
  71.7860290  18.9922630   4.5343300  72.2819410  18.7593500   5.3192180
  71.5876360  18.1534470   4.1180940  57.6660830  13.3736350  10.1694340
  58.3137020  12.8233730   9.7289500  58.0862670  13.6279500  10.9910150
  73.2147450  17.6283580   7.0680980  73.1046730  17.4739620   8.0063250
  73.9755040  17.1004520   6.8256390  71.5613170  13.5677710  13.5263980
  72.1985390  14.1811850  13.8923170  71.7088060  13.6038370  12.5813210
  74.1776210  16.2302160   2.9343830  73.3827710  16.1647280   3.4636740
  74.3819490  17.1652800   2.9229180  71.1194630  30.2693710   6.9282220
  71.7153700  29.9478280   6.2516640  71.3772780  29.7965530   7.7195490
  57.4192830  13.5292020  12.9119660  57.0707650  13.9855840  13.6777840
  57.0880530  12.6349150  12.9942090  59.0257200  26.7011620  17.0772850
  58.9826830  26.3304530  17.9587310  59.1568210  27.6389190  17.2174670
  62.7263230  28.2571210  12.6782570  62.4854590  28.5245770  11.7913090
  63.6665870  28.4276940  12.7333430  64.9317650  14.7203900  16.4339080
  64.8706540  15.3125730  17.1834490  65.8718030  14.6129860  16.2889340
  67.5692210  14.3773960  16.0731370  68.1832620  14.6953250  15.4112450
  68.1141770  13.8922550  16.6927230  73.9867390  30.2765590  13.4793210
  73.4925670  30.6734460  12.7620340  73.3780680  29.6514800  13.8730490
  58.0913470  13.0568220  16.1870430  58.6396460  12.8756270  15.4236540
  58.1568780  12.2662330  16.7226740  58.8645230  29.6473870  14.1970630
  58.2705550  29.5158570  14.9360670  58.8569070  28.8112010  13.7312730
  68.3100250  12.9406100  12.4000660  67.4360090  13.2741210  12.1973590
  68.2011000  12.4679280  13.2252530  69.2172230  15.1476970  13.7842380
  68.8885590  14.3328730  13.4044110  70.1654530  15.1046780  13.6608070
  71.6706840  30.9189010  10.7579950  71.2109810  31.6704820  10.3837970
  71.0419300  30.1995480  10.6994750  58.4957460  27.0132250  13.1478670
  57.7691520  26.3937540  13.0804620  58.5566610  27.4072860  12.2776750
  62.1002560  29.2277250   9.9328080  62.6167580  28.6164610   9.4076340
  62.7499940  29.7306030  10.4239090  64.8398060  30.1185740  10.7597060
  65.1275870  29.8640040   9.8830070  65.3521280  29.5663100  11.3502630
  66.0575070  13.8575940  11.3393570  65.2746860  14.3321440  11.6190330
  65.7638000  12.9530770  11.2306750  70.6096140  14.5599040   9.3842660
  71.0504230  14.5044140   8.5364260  70.3403730  15.4757050   9.4552840
  72.4734710  14.1914280   7.3951480  72.4123110  13.2475500   7.2482500
  73.2526740  14.2994370   7.9404940  56.7787460  30.3306640   6.3575430
  56.6109500  29.6977320   7.0557320  55.9121970  30.5366040   6.0069620
  57.4015480  14.1623420   3.8607290  58.1594840  14.2752300   3.2871320
  56.9392650  14.9992620   3.8150720  63.9429290  16.2762690   6.8509600
  63.1303800  15.9019580   6.5105480  64.4470930  15.5207770   7.1530790
  68.4454270  12.9405140   8.0892670  69.0483640  13.5125350   8.5641190
  67.7047260  13.5044580   7.8666570  71.5888870  13.3426700   3.3632950
  71.7839500  14.2410150   3.6300380  70.8018740  13.1113780   3.8565900
  58.3850160  29.0239870   3.8025570  57.8597780  29.4047900   3.0987530
  58.3094740  29.6490640   4.5235280  59.7740630  14.6887470   2.4009260
  60.3033390  13.9017270   2.2717210  60.4068950  15.3678660   2.6344790
  61.9678470  14.4262610   5.4554650  61.3381210  13.7249920   5.6224780
  61.4283610  15.1866740   5.2387810  64.9070420  31.0401840  18.1265260
  65.8337730  30.8046110  18.1701220  64.8920850  31.8673840  17.6451290
  73.1415480  30.5827410   5.1239510  73.3167670  29.8965150   4.4800430
  72.4437050  31.1074460   4.7316180  62.0934030  13.7046590  17.8907140
  61.8118300  14.2080190  17.1267960  62.4753730  12.9068340  17.5249270
  60.9843130  30.9722250   2.6774820  61.7161950  30.6881530   2.1298710
  61.2436800  30.7335530   3.5674200  60.1457920  27.0886980   2.6821150
  59.5166800  27.5572080   3.2306980  60.2605750  26.2436200   3.1167340
  68.6949490  13.1200170  18.4687610  68.5814940  13.4394780  19.3639130
  69.5119230  13.5212680  18.1724890  71.4747980  30.2671700  17.9506300
  72.2673300  29.7720930  17.7432260  71.7681130  30.9461840  18.5581910
  65.7325680   4.1428170  47.0362090  64.9567780   3.6628610  47.3260660
  66.3838610   3.4633820  46.8618250  59.7491510   4.4547980  47.9137850
  58.9176390   4.1996690  48.3134360  60.3572490   4.5258750  48.6495770
  69.7533110   8.5488360  45.8161220  69.2914640   7.7775600  46.1448390
  70.5658660   8.5754430  46.3213670  59.7292770   8.4888070  48.1095870
  60.0320810   7.5985810  47.9306090  60.4736360   9.0458290  47.8818120
  65.9796420  10.8346370  45.4365210  65.3607860  11.2903870  44.8659650
  66.8348200  10.9897830  45.0354910  65.1734670   6.8185360  47.0432250
  65.1042950   5.8775300  46.8821380  65.9354530   6.9086770  47.6154820
  66.8459770   5.7185610  42.8297120  66.2277040   6.1835060  42.2659840
  67.3583020   6.4113090  43.2466630  61.7091530   5.2461480  49.5080720
  61.3760910   5.8730400  50.1501790  61.8858210   5.7723360  48.7282390
  60.9210630   7.2142280  51.3229900  61.5384630   7.8893360  51.0414350
  60.0603750   7.6230260  51.2317400  56.2142970   6.4042140  40.2036750
  55.8370950   6.8929240  39.4721650  56.4716040   7.0767420  40.8343280
  71.8388220   8.6781690  49.2384540  71.1551740   9.3480800  49.2301210
  72.3782510   8.8762340  48.4729400  69.3746960  10.5225820  47.9529720
  69.3874120  10.1188110  47.0851980  68.8222180  11.2973110  47.8491150
  70.6692380   7.2442040  43.0419890  70.5588710   6.3016370  43.1669310
  70.6660630   7.6057680  43.9282650  68.7732400   5.4255660  49.2812330
  69.1901190   5.2115770  48.4465790  69.4972220   5.6828450  49.8520950
  66.2112660   2.8707360  42.3982380  65.2841940   2.8044740  42.6270850
  66.3637480   3.8087490  42.2837620  72.7194500   3.8242880  49.3728570
  71.8913130   3.8935970  48.8978700  73.3144980   4.4097190  48.9044400
  70.2409950   4.4327660  42.9017630  69.6222370   4.0947210  42.2543930
  70.2234400   3.7887420  43.6096820  61.8169300   3.3972100  45.1802110
  61.4126300   2.6849350  44.6848010  61.9032420   3.0525340  46.0690150
  62.2851000   7.0839660  47.3441320  61.9879290   6.4785130  46.6649100
  63.2350820   7.1216970  47.2330680  70.3736610  10.6571530  51.0064420
  69.8967170  11.4643720  50.8137030  69.6898400  10.0049860  51.1590630
  68.4174650   3.6714470  39.9090380  68.8567930   2.8336900  39.7628200
  69.1303070   4.3043870  39.9954520  60.2040650   3.6934670  52.5706490
  60.0648420   4.5657470  52.9393890  59.3222010   3.3507480  52.4254430
  66.5270030   8.6110540  43.8771620  66.9665940   9.3534870  43.4627010
  66.4656920   8.8537110  44.8010580  56.1559300   5.4632220  48.4877400
  56.2339720   5.5980990  47.5433120  56.7700980   4.7548110  48.6805520
  57.4006930   7.1632410  44.8983580  56.9935010   7.3047000  44.0437180
  58.2919940   6.8792570  44.6954790  73.3569070   7.6096320  53.2355820
  73.4832130   7.3708200  52.3173000  73.3990450   6.7780860  53.7077900
  67.2185810  11.3124320  51.8050630  67.7330480  11.2232330  52.6073060
  66.3754890  11.6584020  52.0978540  69.1940210  11.5979660  41.2334630
  69.0341350  11.3082600  42.1316460  69.0286920  10.8219790  40.6979860
  61.6728590  11.3778190  43.0106250  61.4971070  10.4613730  42.7974050
  60.8184330  11.7365480  43.2504050  68.8966340   9.1067220  39.7932630
  68.2031500   9.1044510  39.1334910  69.6389200   8.6826540  39.3626800
  68.4616270  10.7329930  43.8681120  68.9173220   9.9519310  44.1819740
  68.8008790  11.4436750  44.4122300  56.2118820   6.5046390  51.0271860
  56.3749860   6.0351750  50.2091230  56.6771270   5.9969950  51.6920700
  57.7857800   5.8797820  53.1867670  57.4012590   5.2391490  53.7850630
  58.0969990   6.5833940  53.7562400  63.9354940   2.7274360  48.6676290
  64.3025070   2.2532930  49.4137630  63.7460000   3.6015930  49.0084630
  61.7254310   1.7683000  50.9860500  61.4211380   2.6474980  51.2110860
  62.6800770   1.8282790  51.0217940  60.2536100   5.9743990  41.5827350
  59.4798360   5.4341610  41.4226070  60.9830730   5.4550600  41.2445110
  71.0124080   4.9709350  47.3753740  71.7323200   5.4664640  46.9849850
  70.8105900   4.2927240  46.7307610  66.3942880   5.0418410  53.2622740
  66.3280190   4.1214080  53.0080330  65.7648020   5.1393850  53.9767380
  60.2973500   5.6424370  45.2206160  60.8152170   4.8392630  45.1663050
  59.8457520   5.5803510  46.0622990  65.1843000   6.9090650  40.4933460
  65.5258700   7.6532880  39.9976780  64.3555710   7.2221770  40.8558290
  57.7818040   2.6085740  52.1331860  57.4232980   3.2739590  52.7205200
  57.4872600   1.7769290  52.5044480  66.3259610   7.8638980  53.0126540
  66.3404150   6.9319940  52.7945450  65.6184710   7.9498740  53.6516310
  71.4596680   2.0478800  39.2825150  71.3760400   2.4793020  38.4321590
  72.1790870   2.5077150  39.7151970  72.5370820   4.5046320  52.3595120
  71.8119010   5.0975100  52.1624510  73.0646280   4.4969860  51.5608490
  72.4883930   8.9021060  42.0107280  71.8460090   8.2476680  42.2851000
  72.1014590   9.3076150  41.2347950  68.0670410   6.2306490  45.8578970
  68.4194230   5.6334620  45.1980340  67.1832740   5.9050720  46.0287220
  64.1533690   6.9904180  43.2649380  64.8404820   7.5373390  43.6456970
  63.3666110   7.5344910  43.2998990  56.2926090   2.6077000  38.7566460
  57.1620940   2.8901800  39.0402380  55.8016410   3.4212870  38.6415270
  63.4560900   3.9950210  42.8774740  63.9123680   4.8055460  43.1034930
  63.1049110   3.6773350  43.7093230  65.7593510   9.5056550  50.1067040
  66.4035730   9.7115930  50.7840460  66.1222950   8.7444950  49.6537890
  67.0325590   7.5088900  48.8244490  67.6747820   6.8082060  48.9376660
  67.5574940   8.2887340  48.6441380  70.8781310   7.7937520  38.5483630
  70.6518890   7.0767960  39.1408270  70.4877510   7.5449960  37.7105380
  68.8063210   8.3083800  52.0280550  69.1419450   8.8950490  52.7058470
  67.8863550   8.1776510  52.2578340  56.6597340  11.8204380  39.3228090
  57.0194980  12.4193720  38.6685360  56.5189680  12.3664270  40.0963120
  70.4597560   5.7109460  40.2097790  70.1719260   6.1722150  40.9975670
  71.2549730   5.2507230  40.4782010  56.6439200  10.0859240  53.7970490
  56.7530320   9.1453980  53.6565880  55.9919760  10.3513990  53.1484220
  62.6765960   9.2035580  40.1401760  62.6676060   9.9365270  39.5246270
  61.7564320   8.9567160  40.2328720  58.2772600   4.4250470  40.8848520
  57.6700550   5.1649370  40.8943820  58.7521950   4.5149830  40.0586720
  65.6625560   9.2663820  38.8026950  65.7637540   9.0627810  37.8728930
  64.7627300   9.0122100  39.0074730  64.3043670  11.7850140  43.4974620
  64.5585170  11.7471530  42.5753990  63.3556150  11.6583470  43.4902870
  70.3096250   2.7042020  45.0733130  69.3686390   2.7192250  45.2480820
  70.6240320   1.9177980  45.5193430  60.2877890   4.3861620  38.6337090
  61.0541160   4.2742980  39.1962520  60.3652580   3.6899590  37.9813860
  72.3121830   9.8750870  46.7487390  72.4369250  10.6982040  47.2211200
  73.1787390   9.6641600  46.4011540  59.7839360  11.9682080  46.4204520
  60.5201840  11.4197540  46.6913090  60.1680280  12.8338090  46.2810510
  56.6684840   8.0355650  42.2946030  55.7424620   8.2776790  42.2851440
  57.1341270   8.8629910  42.1730780  62.8941670  11.1412390  38.2430090
  63.6870280  11.4301220  37.7911880  62.3746020  10.7104560  37.5642570
  71.9471840  10.3682520  39.6666830  71.6613350   9.9547660  38.8521010
  71.7491390  11.2970230  39.5467350  63.4119070   6.3615800  38.1072440
  63.3069710   5.7468150  38.8333820  63.2443290   5.8381690  37.3235450
  63.5633390   5.0472600  54.0861670  62.7979060   5.6157600  54.0016340
  63.7449350   4.7548810  53.1929900  66.6521800   5.4235830  38.7114430
  66.1031900   5.8705130  39.3557170  67.2741060   4.9185080  39.2352100
  62.3196920   4.3826750  40.6079730  62.7413340   4.2166620  41.4511120
  62.4447760   3.5726980  40.1134870  64.8324560   3.4064360  37.8556830
  65.3530220   2.6913380  37.4897980  65.4792960   4.0450230  38.1557340
  69.3802400   4.8292760  53.1791900  69.7943420   4.9837840  54.0282320
  68.4453400   4.9547980  53.3417680  64.1417630   4.7813240  51.1487830
  64.5605740   5.6245970  50.9764070  63.2226260   4.9185280  50.9194610
  66.4781530   2.5129420  52.5325670  66.5977740   1.9170560  53.2720510
  67.3375530   2.5499110  52.1126970  68.8169430   3.0666610  51.1088180
  68.2904650   3.5909230  50.5053320  69.1600770   3.6994000  51.7397910
  61.9925050  11.0866250  52.2645560  61.4546140  11.8112310  51.9454260
  62.2459010  10.6096590  51.4742900  64.8487260  12.3217460  52.5232210
  64.7745960  13.2252600  52.8304580  63.9466100  12.0029360  52.4954280
  65.3972590  11.4875970  40.1458570  66.2923380  11.8260940  40.1677330
  65.4290220  10.7655380  39.5182850  59.0368750   6.8603020  38.3745570
  59.4743620   7.4032690  39.0303150  59.5216480   6.0349970  38.3841910
  56.2514550   9.6492050  45.8265830  56.5817560   8.7813110  45.5944470
  56.6805550   9.8550570  46.6570790  60.8476470   7.9801060  43.4867800
  60.5472010   7.8566030  44.3871710  60.7413960   7.1209650  43.0783530
  56.7404760  10.5162640  48.5647460  56.3035750  10.6963440  49.3971610
  57.3082440  11.2737260  48.4229180  72.3766940  10.0179640  52.8524770
  71.7768930  10.0772200  52.1088690  72.5060840   9.0784620  52.9821620
  73.6168390   7.7597460  38.1894480  72.7861350   7.8274110  38.6601710
  73.7940220   8.6501580  37.8861340  73.0724850   4.5044940  40.6928680
  73.8343760   5.0741590  40.7988370  73.0879220   3.9372140  41.4636990
  56.5729190   3.0282870  44.9236340  55.9178030   2.7594510  44.2796040
  57.4107140   2.9187350  44.4738320  74.0784820   5.3595040  45.5370610
  74.4493650   4.5762360  45.1306580  74.7186750   6.0484140  45.3587910
  71.0618580   6.7431620  50.9500930  70.2478420   7.1728780  51.2126720
  71.4692780   7.3550030  50.3369980  73.1244020   4.7979310  37.8501200
  73.3992860   5.7058190  37.7220420  72.9354760   4.7341840  38.7863190
  73.0209360   2.7348300  42.8430630  72.6452960   1.9676230  42.4111920
  72.2912480   3.1171000  43.3305560  57.6105120   3.4135440  49.4639680
  57.9778160   3.3262840  50.3435700  57.0415940   2.6501990  49.3646540
  71.1194630  11.4950220  44.4769200  71.7153700  11.1734790  43.8003620
  71.3772780  11.0222040  45.2682470  62.7263230   9.4827720  50.2269550
  62.4854590   9.7502280  49.3400070  63.6665870   9.6533450  50.2820410
  73.9867390  11.5022100  51.0280190  73.4925670  11.8990970  50.3107320
  73.3780680  10.8771310  51.4217470  58.8645230  10.8730380  51.7457610
  58.2705550  10.7415080  52.4847650  58.8569070  10.0368520  51.2799710
  71.6706840  12.1445520  48.3066930  71.2109810  12.8961330  47.9324950
  71.0419300  11.4251990  48.2481730  58.4957460   8.2388760  50.6965650
  57.7691520   7.6194050  50.6291600  58.5566610   8.6329370  49.8263730
  62.1002560  10.4533760  47.4815060  62.6167580   9.8421120  46.9563320
  62.7499940  10.9562540  47.9726070  64.8398060  11.3442250  48.3084040
  65.1275870  11.0896550  47.4317050  65.3521280  10.7919610  48.8989610
  56.7787460  11.5563150  43.9062410  56.6109500  10.9233830  44.6044300
  55.9121970  11.7622550  43.5556600  58.3850160  10.2496380  41.3512550
  57.8597780  10.6304410  40.6474510  58.3094740  10.8747150  42.0722260
  73.1415480  11.8083920  42.6726490  73.3167670  11.1221660  42.0287410
  72.4437050  12.3330970  42.2803160  60.9843130  12.1978760  40.2261800
  61.7161950  11.9138040  39.6785690  61.2436800  11.9592040  41.1161180
  60.1457920   8.3143490  40.2308130  59.5166800   8.7828590  40.7793960
  60.2605750   7.4692710  40.6654320  65.7325680   4.1428170  28.2618600
  64.9567780   3.6628610  28.5517170  66.3838610   3.4633820  28.0874760
  59.7491510   4.4547980  29.1394360  58.9176390   4.1996690  29.5390870
  60.3572490   4.5258750  29.8752280  69.7533110   8.5488360  27.0417730
  69.2914640   7.7775600  27.3704900  70.5658660   8.5754430  27.5470180
  59.7292770   8.4888070  29.3352380  60.0320810   7.5985810  29.1562600
  60.4736360   9.0458290  29.1074630  65.9796420  10.8346370  26.6621720
  65.3607860  11.2903870  26.0916160  66.8348200  10.9897830  26.2611420
  65.1734670   6.8185360  28.2688760  65.1042950   5.8775300  28.1077890
  65.9354530   6.9086770  28.8411330  66.8459770   5.7185610  24.0553630
  66.2277040   6.1835060  23.4916350  67.3583020   6.4113090  24.4723140
  61.7091530   5.2461480  30.7337230  61.3760910   5.8730400  31.3758300
  61.8858210   5.7723360  29.9538900  60.9210630   7.2142280  32.5486410
  61.5384630   7.8893360  32.2670860  60.0603750   7.6230260  32.4573910
  56.2142970   6.4042140  21.4293260  55.8370950   6.8929240  20.6978160
  56.4716040   7.0767420  22.0599790  71.8388220   8.6781690  30.4641050
  71.1551740   9.3480800  30.4557720  72.3782510   8.8762340  29.6985910
  69.3746960  10.5225820  29.1786230  69.3874120  10.1188110  28.3108490
  68.8222180  11.2973110  29.0747660  70.6692380   7.2442040  24.2676400
  70.5588710   6.3016370  24.3925820  70.6660630   7.6057680  25.1539160
  68.7732400   5.4255660  30.5068840  69.1901190   5.2115770  29.6722300
  69.4972220   5.6828450  31.0777460  66.2112660   2.8707360  23.6238890
  65.2841940   2.8044740  23.8527360  66.3637480   3.8087490  23.5094130
  72.7194500   3.8242880  30.5985080  71.8913130   3.8935970  30.1235210
  73.3144980   4.4097190  30.1300910  70.2409950   4.4327660  24.1274140
  69.6222370   4.0947210  23.4800440  70.2234400   3.7887420  24.8353330
  61.8169300   3.3972100  26.4058620  61.4126300   2.6849350  25.9104520
  61.9032420   3.0525340  27.2946660  62.2851000   7.0839660  28.5697830
  61.9879290   6.4785130  27.8905610  63.2350820   7.1216970  28.4587190
  70.3736610  10.6571530  32.2320930  69.8967170  11.4643720  32.0393540
  69.6898400  10.0049860  32.3847140  61.3769430   6.8221350  35.2205630
  60.4797960   7.0461320  35.4679030  61.4022300   6.9456290  34.2717030
  68.4174650   3.6714470  21.1346890  68.8567930   2.8336900  20.9884710
  69.1303070   4.3043870  21.2211030  60.2040650   3.6934670  33.7963000
  60.0648420   4.5657470  34.1650400  59.3222010   3.3507480  33.6510940
  66.5270030   8.6110540  25.1028130  66.9665940   9.3534870  24.6883520
  66.4656920   8.8537110  26.0267090  62.0021000   9.6356370  36.0048150
  61.9736430  10.0399320  35.1376580  61.8385970   8.7066730  35.8419750
  73.9535820  10.4183470  37.3012320  74.4295540  10.8966360  37.9801400
  74.5742980  10.3500960  36.5757820  56.1559300   5.4632220  29.7133910
  56.2339720   5.5980990  28.7689630  56.7700980   4.7548110  29.9062030
  57.4006930   7.1632410  26.1240090  56.9935010   7.3047000  25.2693690
  58.2919940   6.8792570  25.9211300  73.3569070   7.6096320  34.4612330
  73.4832130   7.3708200  33.5429510  73.3990450   6.7780860  34.9334410
  67.2185810  11.3124320  33.0307140  67.7330480  11.2232330  33.8329570
  66.3754890  11.6584020  33.3235050  69.1940210  11.5979660  22.4591140
  69.0341350  11.3082600  23.3572970  69.0286920  10.8219790  21.9236370
  61.6728590  11.3778190  24.2362760  61.4971070  10.4613730  24.0230560
  60.8184330  11.7365480  24.4760560  68.8966340   9.1067220  21.0189140
  68.2031500   9.1044510  20.3591420  69.6389200   8.6826540  20.5883310
  68.4616270  10.7329930  25.0937630  68.9173220   9.9519310  25.4076250
  68.8008790  11.4436750  25.6378810  56.2118820   6.5046390  32.2528370
  56.3749860   6.0351750  31.4347740  56.6771270   5.9969950  32.9177210
  57.7857800   5.8797820  34.4124180  57.4012590   5.2391490  35.0107140
  58.0969990   6.5833940  34.9818910  63.9354940   2.7274360  29.8932800
  64.3025070   2.2532930  30.6394140  63.7460000   3.6015930  30.2341140
  61.7254310   1.7683000  32.2117010  61.4211380   2.6474980  32.4367370
  62.6800770   1.8282790  32.2474450  60.2536100   5.9743990  22.8083860
  59.4798360   5.4341610  22.6482580  60.9830730   5.4550600  22.4701620
  71.0124080   4.9709350  28.6010250  71.7323200   5.4664640  28.2106360
  70.8105900   4.2927240  27.9564120  66.3942880   5.0418410  34.4879250
  66.3280190   4.1214080  34.2336840  65.7648020   5.1393850  35.2023890
  60.2973500   5.6424370  26.4462670  60.8152170   4.8392630  26.3919560
  59.8457520   5.5803510  27.2879500  65.1843000   6.9090650  21.7189970
  65.5258700   7.6532880  21.2233290  64.3555710   7.2221770  22.0814800
  57.7818040   2.6085740  33.3588370  57.4232980   3.2739590  33.9461710
  57.4872600   1.7769290  33.7300990  60.9831160   3.0669980  36.2427920
  60.6831300   3.2127160  35.3455740  61.7542400   2.5075270  36.1501310
  66.3259610   7.8638980  34.2383050  66.3404150   6.9319940  34.0201960
  65.6184710   7.9498740  34.8772820  71.4596680   2.0478800  20.5081660
  71.3760400   2.4793020  19.6578100  72.1790870   2.5077150  20.9408480
  72.5370820   4.5046320  33.5851630  71.8119010   5.0975100  33.3881020
  73.0646280   4.4969860  32.7865000  72.4883930   8.9021060  23.2363790
  71.8460090   8.2476680  23.5107510  72.1014590   9.3076150  22.4604460
  68.0670410   6.2306490  27.0835480  68.4194230   5.6334620  26.4236850
  67.1832740   5.9050720  27.2543730  64.1533690   6.9904180  24.4905890
  64.8404820   7.5373390  24.8713480  63.3666110   7.5344910  24.5255500
  56.2926090   2.6077000  19.9822970  57.1620940   2.8901800  20.2658890
  55.8016410   3.4212870  19.8671780  63.4560900   3.9950210  24.1031250
  63.9123680   4.8055460  24.3291440  63.1049110   3.6773350  24.9349740
  65.7593510   9.5056550  31.3323550  66.4035730   9.7115930  32.0096970
  66.1222950   8.7444950  30.8794400  67.0325590   7.5088900  30.0501000
  67.6747820   6.8082060  30.1633170  67.5574940   8.2887340  29.8697890
  70.8781310   7.7937520  19.7740140  70.6518890   7.0767960  20.3664780
  70.4877510   7.5449960  18.9361890  68.8063210   8.3083800  33.2537060
  69.1419450   8.8950490  33.9314980  67.8863550   8.1776510  33.4834850
  56.6597340  11.8204380  20.5484600  57.0194980  12.4193720  19.8941870
  56.5189680  12.3664270  21.3219630  70.4597560   5.7109460  21.4354300
  70.1719260   6.1722150  22.2232180  71.2549730   5.2507230  21.7038520
  56.6439200  10.0859240  35.0227000  56.7530320   9.1453980  34.8822390
  55.9919760  10.3513990  34.3740730  64.6351790   8.3575130  36.4225120
  64.3148660   7.6384370  36.9670810  63.9610150   9.0330200  36.4961180
  62.6765960   9.2035580  21.3658270  62.6676060   9.9365270  20.7502780
  61.7564320   8.9567160  21.4585230  58.2772600   4.4250470  22.1105030
  57.6700550   5.1649370  22.1200330  58.7521950   4.5149830  21.2843230
  65.6625560   9.2663820  20.0283460  65.7637540   9.0627810  19.0985440
  64.7627300   9.0122100  20.2331240  64.3043670  11.7850140  24.7231130
  64.5585170  11.7471530  23.8010500  63.3556150  11.6583470  24.7159380
  70.3096250   2.7042020  26.2989640  69.3686390   2.7192250  26.4737330
  70.6240320   1.9177980  26.7449940  60.2877890   4.3861620  19.8593600
  61.0541160   4.2742980  20.4219030  60.3652580   3.6899590  19.2070370
  72.3121830   9.8750870  27.9743900  72.4369250  10.6982040  28.4467710
  73.1787390   9.6641600  27.6268050  59.7839360  11.9682080  27.6461030
  60.5201840  11.4197540  27.9169600  60.1680280  12.8338090  27.5067020
  56.6684840   8.0355650  23.5202540  55.7424620   8.2776790  23.5107950
  57.1341270   8.8629910  23.3987290  58.7897640  11.1528150  36.8346610
  59.5910370  11.4740200  37.2482010  58.2749460  10.7923730  37.5566520
  62.8941670  11.1412390  19.4686600  63.6870280  11.4301220  19.0168390
  62.3746020  10.7104560  18.7899080  67.6262270   7.2608020  36.7822020
  67.0200430   7.2839620  36.0417770  67.3216380   6.5291060  37.3189270
  69.0562640  10.9888310  35.3931430  70.0084390  10.9046330  35.3431670
  68.9090860  11.6530020  36.0665220  71.9471840  10.3682520  20.8923340
  71.6613350   9.9547660  20.0777520  71.7491390  11.2970230  20.7723860
  56.5095450   3.6401610  35.7782660  57.0134470   3.0608890  36.3498890
  55.7702870   3.9241840  36.3159030  63.4119070   6.3615800  19.3328950
  63.3069710   5.7468150  20.0590330  63.2443290   5.8381690  18.5491960
  63.5633390   5.0472600  35.3118180  62.7979060   5.6157600  35.2272850
  63.7449350   4.7548810  34.4186410  66.6521800   5.4235830  19.9370940
  66.1031900   5.8705130  20.5813680  67.2741060   4.9185080  20.4608610
  70.7056740   6.7777930  35.8693200  71.4466210   7.1153690  35.3660660
  69.9429420   6.9469990  35.3162970  62.3196920   4.3826750  21.8336240
  62.7413340   4.2166620  22.6767630  62.4447760   3.5726980  21.3391380
  64.8324560   3.4064360  19.0813340  65.3530220   2.6913380  18.7154490
  65.4792960   4.0450230  19.3813850  69.3802400   4.8292760  34.4048410
  69.7943420   4.9837840  35.2538830  68.4453400   4.9547980  34.5674190
  64.1417630   4.7813240  32.3744340  64.5605740   5.6245970  32.2020580
  63.2226260   4.9185280  32.1451120  66.4781530   2.5129420  33.7582180
  66.5977740   1.9170560  34.4977020  67.3375530   2.5499110  33.3383480
  68.8169430   3.0666610  32.3344690  68.2904650   3.5909230  31.7309830
  69.1600770   3.6994000  32.9654420  61.9925050  11.0866250  33.4902070
  61.4546140  11.8112310  33.1710770  62.2459010  10.6096590  32.6999410
  64.8487260  12.3217460  33.7488720  64.7745960  13.2252600  34.0561090
  63.9466100  12.0029360  33.7210790  65.3972590  11.4875970  21.3715080
  66.2923380  11.8260940  21.3933840  65.4290220  10.7655380  20.7439360
  59.0368750   6.8603020  19.6002080  59.4743620   7.4032690  20.2559660
  59.5216480   6.0349970  19.6098420  56.2514550   9.6492050  27.0522340
  56.5817560   8.7813110  26.8200980  56.6805550   9.8550570  27.8827300
  60.8476470   7.9801060  24.7124310  60.5472010   7.8566030  25.6128220
  60.7413960   7.1209650  24.3040040  56.7404760  10.5162640  29.7903970
  56.3035750  10.6963440  30.6228120  57.3082440  11.2737260  29.6485690
  72.3766940  10.0179640  34.0781280  71.7768930  10.0772200  33.3345200
  72.5060840   9.0784620  34.2078130  73.6168390   7.7597460  19.4150990
  72.7861350   7.8274110  19.8858220  73.7940220   8.6501580  19.1117850
  73.0724850   4.5044940  21.9185190  73.8343760   5.0741590  22.0244880
  73.0879220   3.9372140  22.6893500  56.5729190   3.0282870  26.1492850
  55.9178030   2.7594510  25.5052550  57.4107140   2.9187350  25.6994830
  74.0784820   5.3595040  26.7627120  74.4493650   4.5762360  26.3563090
  74.7186750   6.0484140  26.5844420  71.0618580   6.7431620  32.1757440
  70.2478420   7.1728780  32.4383230  71.4692780   7.3550030  31.5626490
  73.1244020   4.7979310  19.0757710  73.3992860   5.7058190  18.9476930
  72.9354760   4.7341840  20.0119700  73.0209360   2.7348300  24.0687140
  72.6452960   1.9676230  23.6368430  72.2912480   3.1171000  24.5562070
  57.6105120   3.4135440  30.6896190  57.9778160   3.3262840  31.5692210
  57.0415940   2.6501990  30.5903050  71.1194630  11.4950220  25.7025710
  71.7153700  11.1734790  25.0260130  71.3772780  11.0222040  26.4938980
  59.0257200   7.9268130  35.8516340  58.9826830   7.5561040  36.7330800
  59.1568210   8.8645700  35.9918160  62.7263230   9.4827720  31.4526060
  62.4854590   9.7502280  30.5656580  63.6665870   9.6533450  31.5076920
  73.9867390  11.5022100  32.2536700  73.4925670  11.8990970  31.5363830
  73.3780680  10.8771310  32.6473980  58.8645230  10.8730380  32.9714120
  58.2705550  10.7415080  33.7104160  58.8569070  10.0368520  32.5056220
  71.6706840  12.1445520  29.5323440  71.2109810  12.8961330  29.1581460
  71.0419300  11.4251990  29.4738240  58.4957460   8.2388760  31.9222160
  57.7691520   7.6194050  31.8548110  58.5566610   8.6329370  31.0520240
  62.1002560  10.4533760  28.7071570  62.6167580   9.8421120  28.1819830
  62.7499940  10.9562540  29.1982580  64.8398060  11.3442250  29.5340550
  65.1275870  11.0896550  28.6573560  65.3521280  10.7919610  30.1246120
  56.7787460  11.5563150  25.1318920  56.6109500  10.9233830  25.8300810
  55.9121970  11.7622550  24.7813110  58.3850160  10.2496380  22.5769060
  57.8597780  10.6304410  21.8731020  58.3094740  10.8747150  23.2978770
  64.9070420  12.2658350  36.9008750  65.8337730  12.0302620  36.9444710
  64.8920850  13.0930350  36.4194780  73.1415480  11.8083920  23.8983000
  73.3167670  11.1221660  23.2543920  72.4437050  12.3330970  23.5059670
  60.9843130  12.1978760  21.4518310  61.7161950  11.9138040  20.9042200
  61.2436800  11.9592040  22.3417690  60.1457920   8.3143490  21.4564640
  59.5166800   8.7828590  22.0050470  60.2605750   7.4692710  21.8910830
  71.4747980  11.4928210  36.7249790  72.2673300  10.9977440  36.5175750
  71.7681130  12.1718350  37.3325400  65.7325680   4.1428170   9.4875110
  64.9567780   3.6628610   9.7773680  66.3838610   3.4633820   9.3131270
  59.7491510   4.4547980  10.3650870  58.9176390   4.1996690  10.7647380
  60.3572490   4.5258750  11.1008790  69.7533110   8.5488360   8.2674240
  69.2914640   7.7775600   8.5961410  70.5658660   8.5754430   8.7726690
  59.7292770   8.4888070  10.5608890  60.0320810   7.5985810  10.3819110
  60.4736360   9.0458290  10.3331140  65.9796420  10.8346370   7.8878230
  65.3607860  11.2903870   7.3172670  66.8348200  10.9897830   7.4867930
  65.1734670   6.8185360   9.4945270  65.1042950   5.8775300   9.3334400
  65.9354530   6.9086770  10.0667840  66.8459770   5.7185610   5.2810140
  66.2277040   6.1835060   4.7172860  67.3583020   6.4113090   5.6979650
  61.7091530   5.2461480  11.9593740  61.3760910   5.8730400  12.6014810
  61.8858210   5.7723360  11.1795410  60.9210630   7.2142280  13.7742920
  61.5384630   7.8893360  13.4927370  60.0603750   7.6230260  13.6830420
  56.2142970   6.4042140   2.6549770  55.8370950   6.8929240   1.9234670
  56.4716040   7.0767420   3.2856300  71.8388220   8.6781690  11.6897560
  71.1551740   9.3480800  11.6814230  72.3782510   8.8762340  10.9242420
  69.3746960  10.5225820  10.4042740  69.3874120  10.1188110   9.5365000
  68.8222180  11.2973110  10.3004170  70.6692380   7.2442040   5.4932910
  70.5588710   6.3016370   5.6182330  70.6660630   7.6057680   6.3795670
  68.7732400   5.4255660  11.7325350  69.1901190   5.2115770  10.8978810
  69.4972220   5.6828450  12.3033970  66.2112660   2.8707360   4.8495400
  65.2841940   2.8044740   5.0783870  66.3637480   3.8087490   4.7350640
  72.7194500   3.8242880  11.8241590  71.8913130   3.8935970  11.3491720
  73.3144980   4.4097190  11.3557420  70.2409950   4.4327660   5.3530650
  69.6222370   4.0947210   4.7056950  70.2234400   3.7887420   6.0609840
  61.8169300   3.3972100   7.6315130  61.4126300   2.6849350   7.1361030
  61.9032420   3.0525340   8.5203170  62.2851000   7.0839660   9.7954340
  61.9879290   6.4785130   9.1162120  63.2350820   7.1216970   9.6843700
  70.3736610  10.6571530  13.4577440  69.8967170  11.4643720  13.2650050
  69.6898400  10.0049860  13.6103650  61.3769430   6.8221350  16.4462140
  60.4797960   7.0461320  16.6935540  61.4022300   6.9456290  15.4973540
  68.4174650   3.6714470   2.3603400  68.8567930   2.8336900   2.2141220
  69.1303070   4.3043870   2.4467540  60.2040650   3.6934670  15.0219510
  60.0648420   4.5657470  15.3906910  59.3222010   3.3507480  14.8767450
  66.5270030   8.6110540   6.3284640  66.9665940   9.3534870   5.9140030
  66.4656920   8.8537110   7.2523600  62.0021000   9.6356370  17.2304660
  61.9736430  10.0399320  16.3633090  61.8385970   8.7066730  17.0676260
  73.9535820  10.4183470  18.5268830  74.4295540  10.8966360  19.2057910
  74.5742980  10.3500960  17.8014330  56.1559300   5.4632220  10.9390420
  56.2339720   5.5980990   9.9946140  56.7700980   4.7548110  11.1318540
  57.4006930   7.1632410   7.3496600  56.9935010   7.3047000   6.4950200
  58.2919940   6.8792570   7.1467810  73.3569070   7.6096320  15.6868840
  73.4832130   7.3708200  14.7686020  73.3990450   6.7780860  16.1590920
  67.2185810  11.3124320  14.2563650  67.7330480  11.2232330  15.0586080
  66.3754890  11.6584020  14.5491560  69.1940210  11.5979660   3.6847650
  69.0341350  11.3082600   4.5829480  69.0286920  10.8219790   3.1492880
  61.6728590  11.3778190   5.4619270  61.4971070  10.4613730   5.2487070
  60.8184330  11.7365480   5.7017070  68.4616270  10.7329930   6.3194140
  68.9173220   9.9519310   6.6332760  68.8008790  11.4436750   6.8635320
  56.2118820   6.5046390  13.4784880  56.3749860   6.0351750  12.6604250
  56.6771270   5.9969950  14.1433720  57.7857800   5.8797820  15.6380690
  57.4012590   5.2391490  16.2363650  58.0969990   6.5833940  16.2075420
  63.9354940   2.7274360  11.1189310  64.3025070   2.2532930  11.8650650
  63.7460000   3.6015930  11.4597650  61.7254310   1.7683000  13.4373520
  61.4211380   2.6474980  13.6623880  62.6800770   1.8282790  13.4730960
  60.2536100   5.9743990   4.0340370  59.4798360   5.4341610   3.8739090
  60.9830730   5.4550600   3.6958130  71.0124080   4.9709350   9.8266760
  71.7323200   5.4664640   9.4362870  70.8105900   4.2927240   9.1820630
  66.3942880   5.0418410  15.7135760  66.3280190   4.1214080  15.4593350
  65.7648020   5.1393850  16.4280400  60.2973500   5.6424370   7.6719180
  60.8152170   4.8392630   7.6176070  59.8457520   5.5803510   8.5136010
  65.1843000   6.9090650   2.9446480  65.5258700   7.6532880   2.4489800
  64.3555710   7.2221770   3.3071310  57.7818040   2.6085740  14.5844880
  57.4232980   3.2739590  15.1718220  57.4872600   1.7769290  14.9557500
  60.9831160   3.0669980  17.4684430  60.6831300   3.2127160  16.5712250
  61.7542400   2.5075270  17.3757820  66.3259610   7.8638980  15.4639560
  66.3404150   6.9319940  15.2458470  65.6184710   7.9498740  16.1029330
  72.5370820   4.5046320  14.8108140  71.8119010   5.0975100  14.6137530
  73.0646280   4.4969860  14.0121510  72.4883930   8.9021060   4.4620300
  71.8460090   8.2476680   4.7364020  72.1014590   9.3076150   3.6860970
  68.0670410   6.2306490   8.3091990  68.4194230   5.6334620   7.6493360
  67.1832740   5.9050720   8.4800240  64.1533690   6.9904180   5.7162400
  64.8404820   7.5373390   6.0969990  63.3666110   7.5344910   5.7512010
  63.4560900   3.9950210   5.3287760  63.9123680   4.8055460   5.5547950
  63.1049110   3.6773350   6.1606250  65.7593510   9.5056550  12.5580060
  66.4035730   9.7115930  13.2353480  66.1222950   8.7444950  12.1050910
  67.0325590   7.5088900  11.2757510  67.6747820   6.8082060  11.3889680
  67.5574940   8.2887340  11.0954400  68.8063210   8.3083800  14.4793570
  69.1419450   8.8950490  15.1571490  67.8863550   8.1776510  14.7091360
  70.4597560   5.7109460   2.6610810  70.1719260   6.1722150   3.4488690
  71.2549730   5.2507230   2.9295030  56.6439200  10.0859240  16.2483510
  56.7530320   9.1453980  16.1078900  55.9919760  10.3513990  15.5997240
  64.6351790   8.3575130  17.6481630  64.3148660   7.6384370  18.1927320
  63.9610150   9.0330200  17.7217690  62.6765960   9.2035580   2.5914780
  62.6676060   9.9365270   1.9759290  61.7564320   8.9567160   2.6841740
  58.2772600   4.4250470   3.3361540  57.6700550   5.1649370   3.3456840
  58.7521950   4.5149830   2.5099740  64.3043670  11.7850140   5.9487640
  64.5585170  11.7471530   5.0267010  63.3556150  11.6583470   5.9415890
  70.3096250   2.7042020   7.5246150  69.3686390   2.7192250   7.6993840
  70.6240320   1.9177980   7.9706450  72.3121830   9.8750870   9.2000410
  72.4369250  10.6982040   9.6724220  73.1787390   9.6641600   8.8524560
  59.7839360  11.9682080   8.8717540  60.5201840  11.4197540   9.1426110
  60.1680280  12.8338090   8.7323530  56.6684840   8.0355650   4.7459050
  55.7424620   8.2776790   4.7364460  57.1341270   8.8629910   4.6243800
  58.7897640  11.1528150  18.0603120  59.5910370  11.4740200  18.4738520
  58.2749460  10.7923730  18.7823030  67.6262270   7.2608020  18.0078530
  67.0200430   7.2839620  17.2674280  67.3216380   6.5291060  18.5445780
  69.0562640  10.9888310  16.6187940  70.0084390  10.9046330  16.5688180
  68.9090860  11.6530020  17.2921730  56.5095450   3.6401610  17.0039170
  57.0134470   3.0608890  17.5755400  55.7702870   3.9241840  17.5415540
  63.5633390   5.0472600  16.5374690  62.7979060   5.6157600  16.4529360
  63.7449350   4.7548810  15.6442920  70.7056740   6.7777930  17.0949710
  71.4466210   7.1153690  16.5917170  69.9429420   6.9469990  16.5419480
  62.3196920   4.3826750   3.0592750  62.7413340   4.2166620   3.9024140
  62.4447760   3.5726980   2.5647890  69.3802400   4.8292760  15.6304920
  69.7943420   4.9837840  16.4795340  68.4453400   4.9547980  15.7930700
  64.1417630   4.7813240  13.6000850  64.5605740   5.6245970  13.4277090
  63.2226260   4.9185280  13.3707630  66.4781530   2.5129420  14.9838690
  66.5977740   1.9170560  15.7233530  67.3375530   2.5499110  14.5639990
  68.8169430   3.0666610  13.5601200  68.2904650   3.5909230  12.9566340
  69.1600770   3.6994000  14.1910930  61.9925050  11.0866250  14.7158580
  61.4546140  11.8112310  14.3967280  62.2459010  10.6096590  13.9255920
  64.8487260  12.3217460  14.9745230  64.7745960  13.2252600  15.2817600
  63.9466100  12.0029360  14.9467300  65.3972590  11.4875970   2.5971590
  66.2923380  11.8260940   2.6190350  65.4290220  10.7655380   1.9695870
  56.2514550   9.6492050   8.2778850  56.5817560   8.7813110   8.0457490
  56.6805550   9.8550570   9.1083810  60.8476470   7.9801060   5.9380820
  60.5472010   7.8566030   6.8384730  60.7413960   7.1209650   5.5296550
  56.7404760  10.5162640  11.0160480  56.3035750  10.6963440  11.8484630
  57.3082440  11.2737260  10.8742200  72.3766940  10.0179640  15.3037790
  71.7768930  10.0772200  14.5601710  72.5060840   9.0784620  15.4334640
  73.0724850   4.5044940   3.1441700  73.8343760   5.0741590   3.2501390
  73.0879220   3.9372140   3.9150010  56.5729190   3.0282870   7.3749360
  55.9178030   2.7594510   6.7309060  57.4107140   2.9187350   6.9251340
  74.0784820   5.3595040   7.9883630  74.4493650   4.5762360   7.5819600
  74.7186750   6.0484140   7.8100930  71.0618580   6.7431620  13.4013950
  70.2478420   7.1728780  13.6639740  71.4692780   7.3550030  12.7883000
  73.0209360   2.7348300   5.2943650  72.6452960   1.9676230   4.8624940
  72.2912480   3.1171000   5.7818580  57.6105120   3.4135440  11.9152700
  57.9778160   3.3262840  12.7948720  57.0415940   2.6501990  11.8159560
  71.1194630  11.4950220   6.9282220  71.7153700  11.1734790   6.2516640
  71.3772780  11.0222040   7.7195490  59.0257200   7.9268130  17.0772850
  58.9826830   7.5561040  17.9587310  59.1568210   8.8645700  17.2174670
  62.7263230   9.4827720  12.6782570  62.4854590   9.7502280  11.7913090
  63.6665870   9.6533450  12.7333430  73.9867390  11.5022100  13.4793210
  73.4925670  11.8990970  12.7620340  73.3780680  10.8771310  13.8730490
  58.8645230  10.8730380  14.1970630  58.2705550  10.7415080  14.9360670
  58.8569070  10.0368520  13.7312730  71.6706840  12.1445520  10.7579950
  71.2109810  12.8961330  10.3837970  71.0419300  11.4251990  10.6994750
  58.4957460   8.2388760  13.1478670  57.7691520   7.6194050  13.0804620
  58.5566610   8.6329370  12.2776750  62.1002560  10.4533760   9.9328080
  62.6167580   9.8421120   9.4076340  62.7499940  10.9562540  10.4239090
  64.8398060  11.3442250  10.7597060  65.1275870  11.0896550   9.8830070
  65.3521280  10.7919610  11.3502630  56.7787460  11.5563150   6.3575430
  56.6109500  10.9233830   7.0557320  55.9121970  11.7622550   6.0069620
  58.3850160  10.2496380   3.8025570  57.8597780  10.6304410   3.0987530
  58.3094740  10.8747150   4.5235280  64.9070420  12.2658350  18.1265260
  65.8337730  12.0302620  18.1701220  64.8920850  13.0930350  17.6451290
  73.1415480  11.8083920   5.1239510  73.3167670  11.1221660   4.4800430
  72.4437050  12.3330970   4.7316180  60.9843130  12.1978760   2.6774820
  61.7161950  11.9138040   2.1298710  61.2436800  11.9592040   3.5674200
  60.1457920   8.3143490   2.6821150  59.5166800   8.7828590   3.2306980
  60.2605750   7.4692710   3.1167340  71.4747980  11.4928210  17.9506300
  72.2673300  10.9977440  17.7432260  71.7681130  12.1718350  18.5581910
  48.8264150  96.2366600  45.1552820  48.7458200  95.3221210  44.8844530
  48.4128570  96.7333670  44.4492530  46.9582190  98.0145620  47.0362090
  46.1824290  97.5346060  47.3260660  47.6095120  97.3351270  46.8618250
  40.9748020  98.3265430  47.9137850  40.1432900  98.0714140  48.3134360
  41.5829000  98.3976200  48.6495770  39.3839970  93.2867320  41.6980240
  38.4956670  93.6283290  41.5960120  39.6681160  93.0867640  40.8061070
  37.3472980  95.8872970  47.5819940  37.9189090  95.1195170  47.5823580
  37.3474520  96.1861730  46.6726550  38.5897850  91.2957330  49.3688870
  38.4100690  90.3983080  49.6491630  38.1877930  91.8429200  50.0435820
  47.4296350  93.4973190  47.2701180  47.8061170  92.6245070  47.1574850
  47.3315860  93.8331890  46.3791620  41.5601360  91.8698820  42.7318620
  41.6668110  92.7702550  43.0387380  40.6493720  91.8216790  42.4413270
  51.2120470  90.9923630  44.2029520  52.0330090  90.5020200  44.2455000
  51.2454550  91.5821290  44.9561360  39.2084520  93.7917830  47.9771210
  39.8894630  94.0556200  48.5958610  38.8932570  92.9518700  48.3109220
  43.4009090  94.8385190  47.0643800  43.9087310  95.3366160  47.7048820
  43.9322330  94.0620390  46.8883160  55.5020020  93.0090380  50.7673150
  54.7972190  93.3972090  50.2488260  55.7677940  93.7040670  51.3694080
  41.6845190  89.4783750  51.3307220  41.6863630  89.9956140  50.5253120
  40.8549500  89.0013930  51.3077150  51.4481950  92.9324010  46.9757060
  50.7437520  93.2208900  47.5560170  51.8094110  93.7424120  46.6156620
  41.3660520  91.1893710  49.3377670  41.7077330  92.0335760  49.0431540
  40.4276330  91.3377450  49.4543010  54.5168870  92.3778800  47.3666270
  53.5693780  92.4117780  47.4981700  54.8418860  93.1917750  47.7515630
  45.0488410  88.6775980  45.6622260  45.3563390  88.1222870  44.9457760
  44.1189110  88.8120440  45.4795250  47.4369170  96.7424810  42.3982380
  46.5098450  96.6762190  42.6270850  47.5893990  97.6804940  42.2837620
  47.4238250  93.0141810  39.3949540  46.4841920  93.1755770  39.4802000
  47.7421510  93.7327490  38.8485530  53.9451010  97.6960330  49.3728570
  53.1169640  97.7653420  48.8978700  54.5401490  98.2814640  48.9044400
  51.4666460  98.3045110  42.9017630  50.8478880  97.9664660  42.2543930
  51.4490910  97.6604870  43.6096820  50.9093020  94.4829650  50.3183440
  50.4964200  95.3083360  50.5723430  50.1768970  93.8974690  50.1259800
  43.0425810  97.2689550  45.1802110  42.6382810  96.5566800  44.6848010
  43.1288930  96.9242790  46.0690150  41.7554430  94.0432760  48.9601150
  42.3069020  94.1528100  48.1854400  42.2697940  94.4170360  49.6756380
  49.6431160  97.5431920  39.9090380  50.0824440  96.7054350  39.7628200
  50.3559580  98.1761320  39.9954520  41.4297160  97.5652120  52.5706490
  41.2904930  98.4374920  52.9393890  40.5478520  97.2224930  52.4254430
  53.2248300  88.7974730  38.2231420  52.9120960  88.8901560  39.1230490
  53.9860770  89.3755760  38.1728850  39.7430440  96.1634530  42.6808760
  39.6228040  96.8896620  42.0690030  39.4331330  95.3937440  42.2036670
  54.4349590  93.5346230  54.2005560  53.8193860  94.0425900  53.6721020
  54.1146010  92.6344560  54.1431500  42.2094100  89.5069600  46.0632430
  41.7662250  90.2879140  45.7316950  42.7679090  89.8299490  46.7703370
  46.4963910  92.3738120  51.6667750  46.0343280  92.5821140  52.4787690
  46.0942020  91.5597470  51.3638420  51.4968420  93.5947070  52.7964410
  50.6462010  93.2952820  53.1173480  51.3370210  93.8389080  51.8848230
  45.3252920  89.1280300  40.9438260  44.7007100  89.1240170  41.6691570
  45.2383040  88.2611260  40.5474230  44.2470000  90.0516930  47.9222030
  44.5442330  90.9579760  47.8414050  44.7955560  89.5635710  47.3081600
  42.0008320  94.6303170  43.7913680  41.7749240  94.4140340  44.6960300
  41.2200850  95.0631630  43.4459650  49.2306080  94.6366540  42.3904330
  48.6314970  95.3602340  42.2067950  49.7785690  94.5743320  41.6080780
  47.8370950  93.2730080  44.4207610  48.2300520  93.5902280  43.6076300
  48.1987800  92.3941960  44.5352130  39.5718070  91.9402420  52.6107730
  39.1781460  92.7877630  52.8180510  38.8836470  91.3028790  52.8016370
  36.8735120  89.8630880  46.6437810  36.5848170  90.4333740  47.3562790
  37.6180880  89.3835330  47.0069040  37.0605350  93.8051000  37.8540530
  36.9780020  94.7481760  37.9955520  36.7088410  93.6625910  36.9752880
  48.4226090  95.8635830  48.5158390  47.6907210  96.3722640  48.8648490
  48.0250430  95.0465810  48.2147170  44.8603480  92.5390030  46.9210880
  44.8639540  92.0979980  46.0715420  45.7554600  92.8607360  47.0282700
  40.7105860  92.4216520  45.8805090  40.3705910  92.8991750  46.6372140
  39.9483180  91.9681640  45.5206190  44.9223630  93.5402110  39.9117640
  45.0436450  93.4988590  40.8603460  44.5372140  94.4026260  39.7564370
  48.8852000  91.3169510  47.9281330  48.9024740  91.7678160  48.7723180
  48.6367580  90.4175150  48.1414770  43.9345130  95.8503250  39.3100940
  43.3662030  95.4021500  38.6836850  44.6434130  96.2096030  38.7766090
  45.1611450  96.5991810  48.6676290  45.5281580  96.1250380  49.4137630
  44.9716510  97.4733380  49.0084630  38.0251940  91.3435500  44.7969760
  37.7398860  90.9791170  45.6348380  37.9630800  90.6115960  44.1832900
  42.9510820  95.6400450  50.9860500  42.6467890  96.5192430  51.2110860
  43.9057280  95.7000240  51.0217940  47.6990530  90.2364760  41.5183130
  46.8855140  89.7377930  41.4428440  47.5052480  91.0763010  41.1019480
  50.4138920  94.6084410  39.8145290  51.3018540  94.9201640  39.6396630
  50.3844010  93.7356660  39.4225870  39.0074550  96.4803190  52.1331860
  38.6489490  97.1457040  52.7205200  38.7129110  95.6486740  52.5044480
  52.6853190  95.9196250  39.2825150  52.6016910  96.3510470  38.4321590
  53.4047380  96.3794600  39.7151970  37.5182600  96.4794450  38.7566460
  38.3877450  96.7619250  39.0402380  37.0272920  97.2930320  38.6415270
  40.5829190  88.2105310  43.3497260  40.4543820  88.2023210  44.2982180
  39.7591210  88.5488400  42.9988270  37.5823120  89.9696430  52.8103960
  36.8681640  90.1693350  53.4156570  38.0018160  89.1936000  53.1818760
  49.0761900  92.4618740  50.5605410  49.4442720  91.6413950  50.8884980
  48.2160100  92.5220630  50.9761060  52.4423930  91.4175680  41.3692970
  51.8137090  91.5221350  40.6551200  51.9475850  91.6372460  42.1586850
  44.4107960  93.6961630  42.7850850  43.7024110  94.1647970  43.2264460
  44.6952440  93.0383640  43.4196040  46.0363890  95.1158330  50.7843380
  46.5349140  95.5904150  51.4495230  46.1786840  94.1921850  50.9913410
  48.4423390  90.4212290  44.2246640  48.3191170  90.4398420  43.2756150
  49.3907950  90.4691230  44.3445040  42.6142980  92.0046710  40.1601560
  43.4633510  92.4416860  40.0941750  42.2474250  92.3166970  40.9873620
  53.2430750  91.3326290  51.6271770  52.7404350  92.0731690  51.9665580
  54.0587410  91.7210290  51.3108560  51.5352760  96.5759470  45.0733130
  50.5942900  96.5909700  45.2480820  51.8496830  95.7895430  45.5193430
  41.5134400  98.2579070  38.6337090  42.2797670  98.1460430  39.1962520
  41.5909090  97.5617040  37.9813860  40.2081160  95.6904140  39.3169980
  40.2884750  94.7431650  39.4287380  41.1000910  96.0211020  39.4230640
  43.5453430  98.2544200  40.6079730  43.9669850  98.0884070  41.4511120
  43.6704270  97.4444430  40.1134870  41.7080850  94.2340750  53.4150710
  41.1777310  93.7431700  52.7874050  42.3768920  94.6624950  52.8808640
  46.0581070  97.2781810  37.8556830  46.5786730  96.5630830  37.4897980
  46.7049470  97.9167680  38.1557340  42.1953150  91.2003120  53.4948000
  42.1010020  90.5823870  52.7698870  41.6150540  91.9269410  53.2677910
  44.9614590  89.7576360  50.5275390  44.5131890  89.7800620  49.6820940
  44.3279790  89.3595380  51.1245690  47.7038040  96.3846870  52.5325670
  47.8234250  95.7888010  53.2720510  48.5632040  96.4216560  52.1126970
  50.0425940  96.9384060  51.1088180  49.5161160  97.4626680  50.5053320
  50.3857280  97.5711450  51.7397910  42.4412330  94.3277430  37.5537890
  42.2401390  93.4644790  37.9151230  42.2704380  94.2410790  36.6159490
  49.9200640  89.1385660  40.0824770  50.2002930  88.2953560  40.4384190
  49.1466370  89.3708770  40.5963520  41.2395130  91.4278050  37.5415770
  41.5421030  91.4345480  36.6334920  41.9789720  91.0775910  38.0383430
  44.4580060  90.3712670  38.5271970  44.1102060  89.6936660  37.9474420
  44.6592830  89.9102180  39.3415360  37.7985700  96.9000320  44.9236340
  37.1434540  96.6311960  44.2796040  38.6363650  96.7904800  44.4738320
  50.7476140  91.6941610  39.1454830  51.1661020  91.5072590  38.3051490
  50.4412200  90.8420660  39.4557760  54.2465870  96.6065750  42.8430630
  53.8709470  95.8393680  42.4111920  53.5168990  96.9888450  43.3305560
  38.8361630  97.2852890  49.4639680  39.2034670  97.1980290  50.3435700
  38.2672450  96.5219440  49.3646540  53.6365490  95.7537270  52.4770150
  53.4051580  95.5250020  51.5768100  53.8970040  96.6736820  52.4315040
  38.3877630  94.1961980  53.3698100  37.4933680  94.1628740  53.7091810
  38.9275180  94.3948770  54.1349350  37.0123780  94.1099250  40.8661670
  36.1087860  94.3729450  40.6913330  37.4964400  94.3810420  40.0861630
  53.5216830  94.8323240  46.1437870  54.0454310  94.3385890  45.5128040
  54.1076250  94.9673600  46.8885440  53.7006550  94.9163110  49.6657420
  52.7509260  94.8826650  49.7802410  53.8819560  95.8263220  49.4307190
  39.5550990  93.1664790  38.7756050  40.2642690  92.7448010  38.2903330
  38.8390930  93.2340020  38.1439400  39.2025150  89.2204120  37.8158700
  39.9253280  89.7613060  38.1339920  39.4749670  88.9467540  36.9400240
  53.0116800  94.0896590  42.0830280  53.5075920  93.8567460  42.8679160
  52.8132870  93.2508430  41.6667920  38.8917340  88.4710310  47.7181320
  39.5393530  87.9207690  47.2776480  39.3119180  88.7253460  48.5397130
  54.4403960  92.7257540  44.6167960  54.3303240  92.5713580  45.5550230
  55.2011550  92.1978480  44.3743370  52.7869680  88.6651670  51.0750960
  53.4241900  89.2785810  51.4410150  52.9344570  88.7012330  50.1300190
  55.3294230  90.5565460  37.8574100  56.2543540  90.4246640  37.6492390
  55.3070020  90.6358280  38.8110550  55.4032720  91.3276120  40.4830810
  54.6084220  91.2621240  41.0123720  55.6076000  92.2626760  40.4716160
  38.6449340  88.6265980  50.4606640  38.2964160  89.0829800  51.2264820
  38.3137040  87.7323110  50.5429070  49.5356760  88.0380060  49.9487640
  48.6616600  88.3715170  49.7460570  49.4267510  87.5653240  50.7739510
  50.4428740  90.2450930  51.3329360  50.1142100  89.4302690  50.9531090
  51.3911040  90.2020740  51.2095050  47.2831580  88.9549900  48.8880550
  46.5003370  89.4295400  49.1677310  46.9894510  88.0504730  48.7793730
  51.8352650  89.6573000  46.9329640  52.2760740  89.6018100  46.0851240
  51.5660240  90.5731010  47.0039820  53.6991220  89.2888240  44.9438460
  53.6379620  88.3449460  44.7969480  54.4783250  89.3968330  45.4891920
  38.6271990  89.2597380  41.4094270  39.3851350  89.3726260  40.8358300
  38.1649160  90.0966580  41.3637700  45.1685800  91.3736650  44.3996580
  44.3560310  90.9993540  44.0592460  45.6727440  90.6181730  44.7017770
  49.6710780  88.0379100  45.6379650  50.2740150  88.6099310  46.1128170
  48.9303770  88.6018540  45.4153550  52.8145380  88.4400660  40.9119930
  53.0096010  89.3384110  41.1787360  52.0275250  88.2087740  41.4052880
  40.9997140  89.7861430  39.9496240  41.5289900  88.9991230  39.8204190
  41.6325460  90.4652620  40.1831770  43.1934980  89.5236570  43.0041630
  42.5637720  88.8223880  43.1711760  42.6540120  90.2840700  42.7874790
  48.8264150  96.2366600  26.3809330  48.7458200  95.3221210  26.1101040
  48.4128570  96.7333670  25.6749040  46.9582190  98.0145620  28.2618600
  46.1824290  97.5346060  28.5517170  47.6095120  97.3351270  28.0874760
  40.9748020  98.3265430  29.1394360  40.1432900  98.0714140  29.5390870
  41.5829000  98.3976200  29.8752280  39.3839970  93.2867320  22.9236750
  38.4956670  93.6283290  22.8216630  39.6681160  93.0867640  22.0317580
  37.3472980  95.8872970  28.8076450  37.9189090  95.1195170  28.8080090
  37.3474520  96.1861730  27.8983060  38.5897850  91.2957330  30.5945380
  38.4100690  90.3983080  30.8748140  38.1877930  91.8429200  31.2692330
  47.4296350  93.4973190  28.4957690  47.8061170  92.6245070  28.3831360
  47.3315860  93.8331890  27.6048130  41.5601360  91.8698820  23.9575130
  41.6668110  92.7702550  24.2643890  40.6493720  91.8216790  23.6669780
  51.2120470  90.9923630  25.4286030  52.0330090  90.5020200  25.4711510
  51.2454550  91.5821290  26.1817870  39.2084520  93.7917830  29.2027720
  39.8894630  94.0556200  29.8215120  38.8932570  92.9518700  29.5365730
  43.4009090  94.8385190  28.2900310  43.9087310  95.3366160  28.9305330
  43.9322330  94.0620390  28.1139670  55.5020020  93.0090380  31.9929660
  54.7972190  93.3972090  31.4744770  55.7677940  93.7040670  32.5950590
  41.6845190  89.4783750  32.5563730  41.6863630  89.9956140  31.7509630
  40.8549500  89.0013930  32.5333660  51.4481950  92.9324010  28.2013570
  50.7437520  93.2208900  28.7816680  51.8094110  93.7424120  27.8413130
  41.3660520  91.1893710  30.5634180  41.7077330  92.0335760  30.2688050
  40.4276330  91.3377450  30.6799520  54.5168870  92.3778800  28.5922780
  53.5693780  92.4117780  28.7238210  54.8418860  93.1917750  28.9772140
  45.0488410  88.6775980  26.8878770  45.3563390  88.1222870  26.1714270
  44.1189110  88.8120440  26.7051760  47.4369170  96.7424810  23.6238890
  46.5098450  96.6762190  23.8527360  47.5893990  97.6804940  23.5094130
  47.4238250  93.0141810  20.6206050  46.4841920  93.1755770  20.7058510
  47.7421510  93.7327490  20.0742040  53.9451010  97.6960330  30.5985080
  53.1169640  97.7653420  30.1235210  54.5401490  98.2814640  30.1300910
  51.4666460  98.3045110  24.1274140  50.8478880  97.9664660  23.4800440
  51.4490910  97.6604870  24.8353330  50.9093020  94.4829650  31.5439950
  50.4964200  95.3083360  31.7979940  50.1768970  93.8974690  31.3516310
  43.0425810  97.2689550  26.4058620  42.6382810  96.5566800  25.9104520
  43.1288930  96.9242790  27.2946660  41.7554430  94.0432760  30.1857660
  42.3069020  94.1528100  29.4110910  42.2697940  94.4170360  30.9012890
  49.6431160  97.5431920  21.1346890  50.0824440  96.7054350  20.9884710
  50.3559580  98.1761320  21.2211030  41.4297160  97.5652120  33.7963000
  41.2904930  98.4374920  34.1650400  40.5478520  97.2224930  33.6510940
  53.2248300  88.7974730  19.4487930  52.9120960  88.8901560  20.3487000
  53.9860770  89.3755760  19.3985360  39.7430440  96.1634530  23.9065270
  39.6228040  96.8896620  23.2946540  39.4331330  95.3937440  23.4293180
  54.4349590  93.5346230  35.4262070  53.8193860  94.0425900  34.8977530
  54.1146010  92.6344560  35.3688010  42.2094100  89.5069600  27.2888940
  41.7662250  90.2879140  26.9573460  42.7679090  89.8299490  27.9959880
  46.4963910  92.3738120  32.8924260  46.0343280  92.5821140  33.7044200
  46.0942020  91.5597470  32.5894930  51.4968420  93.5947070  34.0220920
  50.6462010  93.2952820  34.3429990  51.3370210  93.8389080  33.1104740
  48.5918130  95.0948820  36.1219710  48.9171540  94.2612570  35.7821940
  49.3798460  95.6177340  36.2698040  45.3252920  89.1280300  22.1694770
  44.7007100  89.1240170  22.8948080  45.2383040  88.2611260  21.7730740
  44.2470000  90.0516930  29.1478540  44.5442330  90.9579760  29.0670560
  44.7955560  89.5635710  28.5338110  42.0008320  94.6303170  25.0170190
  41.7749240  94.4140340  25.9216810  41.2200850  95.0631630  24.6716160
  49.2306080  94.6366540  23.6160840  48.6314970  95.3602340  23.4324460
  49.7785690  94.5743320  22.8337290  44.4407530  95.5288750  35.6830460
  44.3451130  94.5883480  35.5330860  45.2839510  95.7503820  35.2878530
  47.8370950  93.2730080  25.6464120  48.2300520  93.5902280  24.8332810
  48.1987800  92.3941960  25.7608640  39.5718070  91.9402420  33.8364240
  39.1781460  92.7877630  34.0437020  38.8836470  91.3028790  34.0272880
  46.1463120  92.0237390  36.9060980  45.4561440  91.8309590  37.5407070
  46.8895420  92.3072030  37.4385280  36.8735120  89.8630880  27.8694320
  36.5848170  90.4333740  28.5819300  37.6180880  89.3835330  28.2325550
  37.0605350  93.8051000  19.0797040  36.9780020  94.7481760  19.2212030
  36.7088410  93.6625910  18.2009390  48.4226090  95.8635830  29.7414900
  47.6907210  96.3722640  30.0905000  48.0250430  95.0465810  29.4403680
  44.8603480  92.5390030  28.1467390  44.8639540  92.0979980  27.2971930
  45.7554600  92.8607360  28.2539210  40.7105860  92.4216520  27.1061600
  40.3705910  92.8991750  27.8628650  39.9483180  91.9681640  26.7462700
  44.9223630  93.5402110  21.1374150  45.0436450  93.4988590  22.0859970
  44.5372140  94.4026260  20.9820880  48.8852000  91.3169510  29.1537840
  48.9024740  91.7678160  29.9979690  48.6367580  90.4175150  29.3671280
  43.9345130  95.8503250  20.5357450  43.3662030  95.4021500  19.9093360
  44.6434130  96.2096030  20.0022600  52.3122750  88.7301690  34.9924220
  52.6368520  87.9991350  35.5182200  52.3479260  88.4115330  34.0905210
  45.1611450  96.5991810  29.8932800  45.5281580  96.1250380  30.6394140
  44.9716510  97.4733380  30.2341140  38.0251940  91.3435500  26.0226270
  37.7398860  90.9791170  26.8604890  37.9630800  90.6115960  25.4089410
  42.9510820  95.6400450  32.2117010  42.6467890  96.5192430  32.4367370
  43.9057280  95.7000240  32.2474450  47.6990530  90.2364760  22.7439640
  46.8855140  89.7377930  22.6684950  47.5052480  91.0763010  22.3275990
  50.4138920  94.6084410  21.0401800  51.3018540  94.9201640  20.8653140
  50.3844010  93.7356660  20.6482380  39.0074550  96.4803190  33.3588370
  38.6489490  97.1457040  33.9461710  38.7129110  95.6486740  33.7300990
  42.2087670  96.9387430  36.2427920  41.9087810  97.0844610  35.3455740
  42.9798910  96.3792720  36.1501310  52.6853190  95.9196250  20.5081660
  52.6016910  96.3510470  19.6578100  53.4047380  96.3794600  20.9408480
  37.5182600  96.4794450  19.9822970  38.3877450  96.7619250  20.2658890
  37.0272920  97.2930320  19.8671780  40.5829190  88.2105310  24.5753770
  40.4543820  88.2023210  25.5238690  39.7591210  88.5488400  24.2244780
  37.5823120  89.9696430  34.0360470  36.8681640  90.1693350  34.6413080
  38.0018160  89.1936000  34.4075270  49.0761900  92.4618740  31.7861920
  49.4442720  91.6413950  32.1141490  48.2160100  92.5220630  32.2017570
  52.4423930  91.4175680  22.5949480  51.8137090  91.5221350  21.8807710
  51.9475850  91.6372460  23.3843360  44.4107960  93.6961630  24.0107360
  43.7024110  94.1647970  24.4520970  44.6952440  93.0383640  24.6452550
  46.0363890  95.1158330  32.0099890  46.5349140  95.5904150  32.6751740
  46.1786840  94.1921850  32.2169920  48.4423390  90.4212290  25.4503150
  48.3191170  90.4398420  24.5012660  49.3907950  90.4691230  25.5701550
  42.6142980  92.0046710  21.3858070  43.4633510  92.4416860  21.3198260
  42.2474250  92.3166970  22.2130130  53.2430750  91.3326290  32.8528280
  52.7404350  92.0731690  33.1922090  54.0587410  91.7210290  32.5365070
  51.5352760  96.5759470  26.2989640  50.5942900  96.5909700  26.4737330
  51.8496830  95.7895430  26.7449940  41.5134400  98.2579070  19.8593600
  42.2797670  98.1460430  20.4219030  41.5909090  97.5617040  19.2070370
  40.2081160  95.6904140  20.5426490  40.2884750  94.7431650  20.6543890
  41.1000910  96.0211020  20.6487150  37.7351960  97.5119060  35.7782660
  38.2390980  96.9326340  36.3498890  36.9959380  97.7959290  36.3159030
  39.7675040  95.6548650  36.6732730  39.8080380  95.3562520  37.5817960
  40.6220540  96.0556260  36.5140250  43.5453430  98.2544200  21.8336240
  43.9669850  98.0884070  22.6767630  43.6704270  97.4444430  21.3391380
  41.7080850  94.2340750  34.6407220  41.1777310  93.7431700  34.0130560
  42.3768920  94.6624950  34.1065150  46.0581070  97.2781810  19.0813340
  46.5786730  96.5630830  18.7154490  46.7049470  97.9167680  19.3813850
  51.0781080  96.0406370  36.4087560  51.6601850  95.2858690  36.3208040
  51.2542850  96.5713810  35.6319040  42.1953150  91.2003120  34.7204510
  42.1010020  90.5823870  33.9955380  41.6150540  91.9269410  34.4934420
  44.9614590  89.7576360  31.7531900  44.5131890  89.7800620  30.9077450
  44.3279790  89.3595380  32.3502200  47.7038040  96.3846870  33.7582180
  47.8234250  95.7888010  34.4977020  48.5632040  96.4216560  33.3383480
  50.0425940  96.9384060  32.3344690  49.5161160  97.4626680  31.7309830
  50.3857280  97.5711450  32.9654420  42.4412330  94.3277430  18.7794400
  42.2401390  93.4644790  19.1407740  42.2704380  94.2410790  17.8416000
  44.4706810  92.9268220  35.0158000  45.0606500  92.6184070  35.7035820
  43.6527050  92.4547970  35.1717900  49.2900240  92.5434030  35.2491020
  48.6015760  91.8815570  35.1841010  50.0106260  92.0972300  35.6939480
  49.9200640  89.1385660  21.3081280  50.2002930  88.2953560  21.6640700
  49.1466370  89.3708770  21.8220030  41.2395130  91.4278050  18.7672280
  41.5421030  91.4345480  17.8591430  41.9789720  91.0775910  19.2639940
  44.4580060  90.3712670  19.7528480  44.1102060  89.6936660  19.1730930
  44.6592830  89.9102180  20.5671870  37.7985700  96.9000320  26.1492850
  37.1434540  96.6311960  25.5052550  38.6363650  96.7904800  25.6994830
  50.7476140  91.6941610  20.3711340  51.1661020  91.5072590  19.5308000
  50.4412200  90.8420660  20.6814270  54.2465870  96.6065750  24.0687140
  53.8709470  95.8393680  23.6368430  53.5168990  96.9888450  24.5562070
  38.8361630  97.2852890  30.6896190  39.2034670  97.1980290  31.5692210
  38.2672450  96.5219440  30.5903050  53.6365490  95.7537270  33.7026660
  53.4051580  95.5250020  32.8024610  53.8970040  96.6736820  33.6571550
  38.3877630  94.1961980  34.5954610  37.4933680  94.1628740  34.9348320
  38.9275180  94.3948770  35.3605860  52.0753560  90.9793700  36.4806360
  52.9523740  90.9877100  36.8640360  52.0874400  90.2424540  35.8698710
  37.0123780  94.1099250  22.0918180  36.1087860  94.3729450  21.9169840
  37.4964400  94.3810420  21.3118140  53.5216830  94.8323240  27.3694380
  54.0454310  94.3385890  26.7384550  54.1076250  94.9673600  28.1141950
  53.7006550  94.9163110  30.8913930  52.7509260  94.8826650  31.0058920
  53.8819560  95.8263220  30.6563700  39.5550990  93.1664790  20.0012560
  40.2642690  92.7448010  19.5159840  38.8390930  93.2340020  19.3695910
  39.2025150  89.2204120  19.0415210  39.9253280  89.7613060  19.3596430
  39.4749670  88.9467540  18.1656750  53.0116800  94.0896590  23.3086790
  53.5075920  93.8567460  24.0935670  52.8132870  93.2508430  22.8924430
  38.8917340  88.4710310  28.9437830  39.5393530  87.9207690  28.5032990
  39.3119180  88.7253460  29.7653640  54.4403960  92.7257540  25.8424470
  54.3303240  92.5713580  26.7806740  55.2011550  92.1978480  25.5999880
  52.7869680  88.6651670  32.3007470  53.4241900  89.2785810  32.6666660
  52.9344570  88.7012330  31.3556700  55.3294230  90.5565460  19.0830610
  56.2543540  90.4246640  18.8748900  55.3070020  90.6358280  20.0367060
  55.4032720  91.3276120  21.7087320  54.6084220  91.2621240  22.2380230
  55.6076000  92.2626760  21.6972670  38.6449340  88.6265980  31.6863150
  38.2964160  89.0829800  32.4521330  38.3137040  87.7323110  31.7685580
  46.1574160  89.8177860  35.2082570  46.0963050  90.4099690  35.9577980
  47.0974540  89.7103820  35.0632830  48.7948720  89.4747920  34.8474860
  49.4089130  89.7927210  34.1855940  49.3398280  88.9896510  35.4670720
  39.3169980  88.1542180  34.9613920  39.8652970  87.9730230  34.1980030
  39.3825290  87.3636290  35.4970230  49.5356760  88.0380060  31.1744150
  48.6616600  88.3715170  30.9717080  49.4267510  87.5653240  31.9996020
  50.4428740  90.2450930  32.5585870  50.1142100  89.4302690  32.1787600
  51.3911040  90.2020740  32.4351560  47.2831580  88.9549900  30.1137060
  46.5003370  89.4295400  30.3933820  46.9894510  88.0504730  30.0050240
  51.8352650  89.6573000  28.1586150  52.2760740  89.6018100  27.3107750
  51.5660240  90.5731010  28.2296330  53.6991220  89.2888240  26.1694970
  53.6379620  88.3449460  26.0225990  54.4783250  89.3968330  26.7148430
  38.6271990  89.2597380  22.6350780  39.3851350  89.3726260  22.0614810
  38.1649160  90.0966580  22.5894210  45.1685800  91.3736650  25.6253090
  44.3560310  90.9993540  25.2848970  45.6727440  90.6181730  25.9274280
  49.6710780  88.0379100  26.8636160  50.2740150  88.6099310  27.3384680
  48.9303770  88.6018540  26.6410060  52.8145380  88.4400660  22.1376440
  53.0096010  89.3384110  22.4043870  52.0275250  88.2087740  22.6309390
  40.9997140  89.7861430  21.1752750  41.5289900  88.9991230  21.0460700
  41.6325460  90.4652620  21.4088280  43.1934980  89.5236570  24.2298140
  42.5637720  88.8223880  24.3968270  42.6540120  90.2840700  24.0131300
  43.3190540  88.8020550  36.6650630  43.0374810  89.3054150  35.9011450
  43.7010240  88.0042300  36.2992760  49.9206000  88.2174130  37.2431100
  49.8071450  88.5368740  38.1382620  50.7375740  88.6186640  36.9468380
  48.8264150  96.2366600   7.6065840  48.7458200  95.3221210   7.3357550
  48.4128570  96.7333670   6.9005550  46.9582190  98.0145620   9.4875110
  46.1824290  97.5346060   9.7773680  47.6095120  97.3351270   9.3131270
  40.9748020  98.3265430  10.3650870  40.1432900  98.0714140  10.7647380
  41.5829000  98.3976200  11.1008790  39.3839970  93.2867320   4.1493260
  38.4956670  93.6283290   4.0473140  39.6681160  93.0867640   3.2574090
  37.3472980  95.8872970  10.0332960  37.9189090  95.1195170  10.0336600
  37.3474520  96.1861730   9.1239570  38.5897850  91.2957330  11.8201890
  38.4100690  90.3983080  12.1004650  38.1877930  91.8429200  12.4948840
  47.4296350  93.4973190   9.7214200  47.8061170  92.6245070   9.6087870
  47.3315860  93.8331890   8.8304640  41.5601360  91.8698820   5.1831640
  41.6668110  92.7702550   5.4900400  40.6493720  91.8216790   4.8926290
  51.2120470  90.9923630   6.6542540  52.0330090  90.5020200   6.6968020
  51.2454550  91.5821290   7.4074380  39.2084520  93.7917830  10.4284230
  39.8894630  94.0556200  11.0471630  38.8932570  92.9518700  10.7622240
  43.4009090  94.8385190   9.5156820  43.9087310  95.3366160  10.1561840
  43.9322330  94.0620390   9.3396180  55.5020020  93.0090380  13.2186170
  54.7972190  93.3972090  12.7001280  55.7677940  93.7040670  13.8207100
  41.6845190  89.4783750  13.7820240  41.6863630  89.9956140  12.9766140
  40.8549500  89.0013930  13.7590170  51.4481950  92.9324010   9.4270080
  50.7437520  93.2208900  10.0073190  51.8094110  93.7424120   9.0669640
  41.3660520  91.1893710  11.7890690  41.7077330  92.0335760  11.4944560
  40.4276330  91.3377450  11.9056030  54.5168870  92.3778800   9.8179290
  53.5693780  92.4117780   9.9494720  54.8418860  93.1917750  10.2028650
  45.0488410  88.6775980   8.1135280  45.3563390  88.1222870   7.3970780
  44.1189110  88.8120440   7.9308270  47.4369170  96.7424810   4.8495400
  46.5098450  96.6762190   5.0783870  47.5893990  97.6804940   4.7350640
  53.9451010  97.6960330  11.8241590  53.1169640  97.7653420  11.3491720
  54.5401490  98.2814640  11.3557420  51.4666460  98.3045110   5.3530650
  50.8478880  97.9664660   4.7056950  51.4490910  97.6604870   6.0609840
  50.9093020  94.4829650  12.7696460  50.4964200  95.3083360  13.0236450
  50.1768970  93.8974690  12.5772820  43.0425810  97.2689550   7.6315130
  42.6382810  96.5566800   7.1361030  43.1288930  96.9242790   8.5203170
  41.7554430  94.0432760  11.4114170  42.3069020  94.1528100  10.6367420
  42.2697940  94.4170360  12.1269400  49.6431160  97.5431920   2.3603400
  50.0824440  96.7054350   2.2141220  50.3559580  98.1761320   2.4467540
  41.4297160  97.5652120  15.0219510  41.2904930  98.4374920  15.3906910
  40.5478520  97.2224930  14.8767450  39.7430440  96.1634530   5.1321780
  39.6228040  96.8896620   4.5203050  39.4331330  95.3937440   4.6549690
  54.4349590  93.5346230  16.6518580  53.8193860  94.0425900  16.1234040
  54.1146010  92.6344560  16.5944520  42.2094100  89.5069600   8.5145450
  41.7662250  90.2879140   8.1829970  42.7679090  89.8299490   9.2216390
  46.4963910  92.3738120  14.1180770  46.0343280  92.5821140  14.9300710
  46.0942020  91.5597470  13.8151440  51.4968420  93.5947070  15.2477430
  50.6462010  93.2952820  15.5686500  51.3370210  93.8389080  14.3361250
  48.5918130  95.0948820  17.3476220  48.9171540  94.2612570  17.0078450
  49.3798460  95.6177340  17.4954550  45.3252920  89.1280300   3.3951280
  44.7007100  89.1240170   4.1204590  45.2383040  88.2611260   2.9987250
  44.2470000  90.0516930  10.3735050  44.5442330  90.9579760  10.2927070
  44.7955560  89.5635710   9.7594620  42.0008320  94.6303170   6.2426700
  41.7749240  94.4140340   7.1473320  41.2200850  95.0631630   5.8972670
  49.2306080  94.6366540   4.8417350  48.6314970  95.3602340   4.6580970
  49.7785690  94.5743320   4.0593800  44.4407530  95.5288750  16.9086970
  44.3451130  94.5883480  16.7587370  45.2839510  95.7503820  16.5135040
  47.8370950  93.2730080   6.8720630  48.2300520  93.5902280   6.0589320
  48.1987800  92.3941960   6.9865150  39.5718070  91.9402420  15.0620750
  39.1781460  92.7877630  15.2693530  38.8836470  91.3028790  15.2529390
  46.1463120  92.0237390  18.1317490  45.4561440  91.8309590  18.7663580
  46.8895420  92.3072030  18.6641790  36.8735120  89.8630880   9.0950830
  36.5848170  90.4333740   9.8075810  37.6180880  89.3835330   9.4582060
  48.4226090  95.8635830  10.9671410  47.6907210  96.3722640  11.3161510
  48.0250430  95.0465810  10.6660190  44.8603480  92.5390030   9.3723900
  44.8639540  92.0979980   8.5228440  45.7554600  92.8607360   9.4795720
  40.7105860  92.4216520   8.3318110  40.3705910  92.8991750   9.0885160
  39.9483180  91.9681640   7.9719210  44.9223630  93.5402110   2.3630660
  45.0436450  93.4988590   3.3116480  44.5372140  94.4026260   2.2077390
  48.8852000  91.3169510  10.3794350  48.9024740  91.7678160  11.2236200
  48.6367580  90.4175150  10.5927790  52.3122750  88.7301690  16.2180730
  52.6368520  87.9991350  16.7438710  52.3479260  88.4115330  15.3161720
  45.1611450  96.5991810  11.1189310  45.5281580  96.1250380  11.8650650
  44.9716510  97.4733380  11.4597650  38.0251940  91.3435500   7.2482780
  37.7398860  90.9791170   8.0861400  37.9630800  90.6115960   6.6345920
  42.9510820  95.6400450  13.4373520  42.6467890  96.5192430  13.6623880
  43.9057280  95.7000240  13.4730960  47.6990530  90.2364760   3.9696150
  46.8855140  89.7377930   3.8941460  47.5052480  91.0763010   3.5532500
  50.4138920  94.6084410   2.2658310  51.3018540  94.9201640   2.0909650
  50.3844010  93.7356660   1.8738890  39.0074550  96.4803190  14.5844880
  38.6489490  97.1457040  15.1718220  38.7129110  95.6486740  14.9557500
  42.2087670  96.9387430  17.4684430  41.9087810  97.0844610  16.5712250
  42.9798910  96.3792720  17.3757820  40.5829190  88.2105310   5.8010280
  40.4543820  88.2023210   6.7495200  39.7591210  88.5488400   5.4501290
  37.5823120  89.9696430  15.2616980  36.8681640  90.1693350  15.8669590
  38.0018160  89.1936000  15.6331780  49.0761900  92.4618740  13.0118430
  49.4442720  91.6413950  13.3398000  48.2160100  92.5220630  13.4274080
  52.4423930  91.4175680   3.8205990  51.8137090  91.5221350   3.1064220
  51.9475850  91.6372460   4.6099870  44.4107960  93.6961630   5.2363870
  43.7024110  94.1647970   5.6777480  44.6952440  93.0383640   5.8709060
  46.0363890  95.1158330  13.2356400  46.5349140  95.5904150  13.9008250
  46.1786840  94.1921850  13.4426430  48.4423390  90.4212290   6.6759660
  48.3191170  90.4398420   5.7269170  49.3907950  90.4691230   6.7958060
  42.6142980  92.0046710   2.6114580  43.4633510  92.4416860   2.5454770
  42.2474250  92.3166970   3.4386640  53.2430750  91.3326290  14.0784790
  52.7404350  92.0731690  14.4178600  54.0587410  91.7210290  13.7621580
  51.5352760  96.5759470   7.5246150  50.5942900  96.5909700   7.6993840
  51.8496830  95.7895430   7.9706450  40.2081160  95.6904140   1.7683000
  40.2884750  94.7431650   1.8800400  41.1000910  96.0211020   1.8743660
  37.7351960  97.5119060  17.0039170  38.2390980  96.9326340  17.5755400
  36.9959380  97.7959290  17.5415540  39.7675040  95.6548650  17.8989240
  39.8080380  95.3562520  18.8074470  40.6220540  96.0556260  17.7396760
  43.5453430  98.2544200   3.0592750  43.9669850  98.0884070   3.9024140
  43.6704270  97.4444430   2.5647890  41.7080850  94.2340750  15.8663730
  41.1777310  93.7431700  15.2387070  42.3768920  94.6624950  15.3321660
  51.0781080  96.0406370  17.6344070  51.6601850  95.2858690  17.5464550
  51.2542850  96.5713810  16.8575550  42.1953150  91.2003120  15.9461020
  42.1010020  90.5823870  15.2211890  41.6150540  91.9269410  15.7190930
  44.9614590  89.7576360  12.9788410  44.5131890  89.7800620  12.1333960
  44.3279790  89.3595380  13.5758710  47.7038040  96.3846870  14.9838690
  47.8234250  95.7888010  15.7233530  48.5632040  96.4216560  14.5639990
  50.0425940  96.9384060  13.5601200  49.5161160  97.4626680  12.9566340
  50.3857280  97.5711450  14.1910930  44.4706810  92.9268220  16.2414510
  45.0606500  92.6184070  16.9292330  43.6527050  92.4547970  16.3974410
  49.2900240  92.5434030  16.4747530  48.6015760  91.8815570  16.4097520
  50.0106260  92.0972300  16.9195990  49.9200640  89.1385660   2.5337790
  50.2002930  88.2953560   2.8897210  49.1466370  89.3708770   3.0476540
  37.7985700  96.9000320   7.3749360  37.1434540  96.6311960   6.7309060
  38.6363650  96.7904800   6.9251340  54.2465870  96.6065750   5.2943650
  53.8709470  95.8393680   4.8624940  53.5168990  96.9888450   5.7818580
  38.8361630  97.2852890  11.9152700  39.2034670  97.1980290  12.7948720
  38.2672450  96.5219440  11.8159560  53.6365490  95.7537270  14.9283170
  53.4051580  95.5250020  14.0281120  53.8970040  96.6736820  14.8828060
  38.3877630  94.1961980  15.8211120  37.4933680  94.1628740  16.1604830
  38.9275180  94.3948770  16.5862370  52.0753560  90.9793700  17.7062870
  52.9523740  90.9877100  18.0896870  52.0874400  90.2424540  17.0955220
  37.0123780  94.1099250   3.3174690  36.1087860  94.3729450   3.1426350
  37.4964400  94.3810420   2.5374650  53.5216830  94.8323240   8.5950890
  54.0454310  94.3385890   7.9641060  54.1076250  94.9673600   9.3398460
  53.7006550  94.9163110  12.1170440  52.7509260  94.8826650  12.2315430
  53.8819560  95.8263220  11.8820210  53.0116800  94.0896590   4.5343300
  53.5075920  93.8567460   5.3192180  52.8132870  93.2508430   4.1180940
  38.8917340  88.4710310  10.1694340  39.5393530  87.9207690   9.7289500
  39.3119180  88.7253460  10.9910150  54.4403960  92.7257540   7.0680980
  54.3303240  92.5713580   8.0063250  55.2011550  92.1978480   6.8256390
  52.7869680  88.6651670  13.5263980  53.4241900  89.2785810  13.8923170
  52.9344570  88.7012330  12.5813210  55.4032720  91.3276120   2.9343830
  54.6084220  91.2621240   3.4636740  55.6076000  92.2626760   2.9229180
  38.6449340  88.6265980  12.9119660  38.2964160  89.0829800  13.6777840
  38.3137040  87.7323110  12.9942090  46.1574160  89.8177860  16.4339080
  46.0963050  90.4099690  17.1834490  47.0974540  89.7103820  16.2889340
  48.7948720  89.4747920  16.0731370  49.4089130  89.7927210  15.4112450
  49.3398280  88.9896510  16.6927230  39.3169980  88.1542180  16.1870430
  39.8652970  87.9730230  15.4236540  39.3825290  87.3636290  16.7226740
  49.5356760  88.0380060  12.4000660  48.6616600  88.3715170  12.1973590
  49.4267510  87.5653240  13.2252530  50.4428740  90.2450930  13.7842380
  50.1142100  89.4302690  13.4044110  51.3911040  90.2020740  13.6608070
  47.2831580  88.9549900  11.3393570  46.5003370  89.4295400  11.6190330
  46.9894510  88.0504730  11.2306750  51.8352650  89.6573000   9.3842660
  52.2760740  89.6018100   8.5364260  51.5660240  90.5731010   9.4552840
  53.6991220  89.2888240   7.3951480  53.6379620  88.3449460   7.2482500
  54.4783250  89.3968330   7.9404940  38.6271990  89.2597380   3.8607290
  39.3851350  89.3726260   3.2871320  38.1649160  90.0966580   3.8150720
  45.1685800  91.3736650   6.8509600  44.3560310  90.9993540   6.5105480
  45.6727440  90.6181730   7.1530790  49.6710780  88.0379100   8.0892670
  50.2740150  88.6099310   8.5641190  48.9303770  88.6018540   7.8666570
  52.8145380  88.4400660   3.3632950  53.0096010  89.3384110   3.6300380
  52.0275250  88.2087740   3.8565900  40.9997140  89.7861430   2.4009260
  41.5289900  88.9991230   2.2717210  41.6325460  90.4652620   2.6344790
  43.1934980  89.5236570   5.4554650  42.5637720  88.8223880   5.6224780
  42.6540120  90.2840700   5.2387810  43.3190540  88.8020550  17.8907140
  43.0374810  89.3054150  17.1267960  43.7010240  88.0042300  17.5249270
  49.9206000  88.2174130  18.4687610  49.8071450  88.5368740  19.3639130
  50.7375740  88.6186640  18.1724890  48.8264150  77.4623110  45.1552820
  48.7458200  76.5477720  44.8844530  48.4128570  77.9590180  44.4492530
  46.9582190  79.2402130  47.0362090  46.1824290  78.7602570  47.3260660
  47.6095120  78.5607780  46.8618250  40.9748020  79.5521940  47.9137850
  40.1432900  79.2970650  48.3134360  41.5829000  79.6232710  48.6495770
  50.9789620  83.6462320  45.8161220  50.5171150  82.8749560  46.1448390
  51.7915170  83.6728390  46.3213670  40.9549280  83.5862030  48.1095870
  41.2577320  82.6959770  47.9306090  41.6992870  84.1432250  47.8818120
  39.3839970  74.5123830  41.6980240  38.4956670  74.8539800  41.5960120
  39.6681160  74.3124150  40.8061070  37.3472980  77.1129480  47.5819940
  37.9189090  76.3451680  47.5823580  37.3474520  77.4118240  46.6726550
  47.2052930  85.9320330  45.4365210  46.5864370  86.3877830  44.8659650
  48.0604710  86.0871790  45.0354910  46.3991180  81.9159320  47.0432250
  46.3299460  80.9749260  46.8821380  47.1611040  82.0060730  47.6154820
  38.5897850  72.5213840  49.3688870  38.4100690  71.6239590  49.6491630
  38.1877930  73.0685710  50.0435820  47.4296350  74.7229700  47.2701180
  47.8061170  73.8501580  47.1574850  47.3315860  75.0588400  46.3791620
  41.5601360  73.0955330  42.7318620  41.6668110  73.9959060  43.0387380
  40.6493720  73.0473300  42.4413270  51.2120470  72.2180140  44.2029520
  52.0330090  71.7276710  44.2455000  51.2454550  72.8077800  44.9561360
  39.2084520  75.0174340  47.9771210  39.8894630  75.2812710  48.5958610
  38.8932570  74.1775210  48.3109220  43.4009090  76.0641700  47.0643800
  43.9087310  76.5622670  47.7048820  43.9322330  75.2876900  46.8883160
  55.5020020  74.2346890  50.7673150  54.7972190  74.6228600  50.2488260
  55.7677940  74.9297180  51.3694080  41.6845190  70.7040260  51.3307220
  41.6863630  71.2212650  50.5253120  40.8549500  70.2270440  51.3077150
  48.0716280  80.8159570  42.8297120  47.4533550  81.2809020  42.2659840
  48.5839530  81.5087050  43.2466630  42.9348040  80.3435440  49.5080720
  42.6017420  80.9704360  50.1501790  43.1114720  80.8697320  48.7282390
  51.4481950  74.1580520  46.9757060  50.7437520  74.4465410  47.5560170
  51.8094110  74.9680630  46.6156620  41.3660520  72.4150220  49.3377670
  41.7077330  73.2592270  49.0431540  40.4276330  72.5633960  49.4543010
  42.1467140  82.3116240  51.3229900  42.7641140  82.9867320  51.0414350
  41.2860260  82.7204220  51.2317400  37.4399480  81.5016100  40.2036750
  37.0627460  81.9903200  39.4721650  37.6972550  82.1741380  40.8343280
  53.0644730  83.7755650  49.2384540  52.3808250  84.4454760  49.2301210
  53.6039020  83.9736300  48.4729400  54.5168870  73.6035310  47.3666270
  53.5693780  73.6374290  47.4981700  54.8418860  74.4174260  47.7515630
  45.0488410  69.9032490  45.6622260  45.3563390  69.3479380  44.9457760
  44.1189110  70.0376950  45.4795250  50.6003470  85.6199780  47.9529720
  50.6130630  85.2162070  47.0851980  50.0478690  86.3947070  47.8491150
  51.8948890  82.3416000  43.0419890  51.7845220  81.3990330  43.1669310
  51.8917140  82.7031640  43.9282650  49.9988910  80.5229620  49.2812330
  50.4157700  80.3089730  48.4465790  50.7228730  80.7802410  49.8520950
  47.4369170  77.9681320  42.3982380  46.5098450  77.9018700  42.6270850
  47.5893990  78.9061450  42.2837620  47.4238250  74.2398320  39.3949540
  46.4841920  74.4012280  39.4802000  47.7421510  74.9584000  38.8485530
  53.9451010  78.9216840  49.3728570  53.1169640  78.9909930  48.8978700
  54.5401490  79.5071150  48.9044400  51.4666460  79.5301620  42.9017630
  50.8478880  79.1921170  42.2543930  51.4490910  78.8861380  43.6096820
  50.9093020  75.7086160  50.3183440  50.4964200  76.5339870  50.5723430
  50.1768970  75.1231200  50.1259800  43.0425810  78.4946060  45.1802110
  42.6382810  77.7823310  44.6848010  43.1288930  78.1499300  46.0690150
  43.5107510  82.1813620  47.3441320  43.2135800  81.5759090  46.6649100
  44.4607330  82.2190930  47.2330680  41.7554430  75.2689270  48.9601150
  42.3069020  75.3784610  48.1854400  42.2697940  75.6426870  49.6756380
  51.5993120  85.7545490  51.0064420  51.1223680  86.5617680  50.8137030
  50.9154910  85.1023820  51.1590630  49.6431160  78.7688430  39.9090380
  50.0824440  77.9310860  39.7628200  50.3559580  79.4017830  39.9954520
  41.4297160  78.7908630  52.5706490  41.2904930  79.6631430  52.9393890
  40.5478520  78.4481440  52.4254430  47.7526540  83.7084500  43.8771620
  48.1922450  84.4508830  43.4627010  47.6913430  83.9511070  44.8010580
  53.2248300  70.0231240  38.2231420  52.9120960  70.1158070  39.1230490
  53.9860770  70.6012270  38.1728850  39.7430440  77.3891040  42.6808760
  39.6228040  78.1153130  42.0690030  39.4331330  76.6193950  42.2036670
  37.3815810  80.5606180  48.4877400  37.4596230  80.6954950  47.5433120
  37.9957490  79.8522070  48.6805520  38.6263440  82.2606370  44.8983580
  38.2191520  82.4020960  44.0437180  39.5176450  81.9766530  44.6954790
  54.5825580  82.7070280  53.2355820  54.7088640  82.4682160  52.3173000
  54.6246960  81.8754820  53.7077900  48.4442320  86.4098280  51.8050630
  48.9586990  86.3206290  52.6073060  47.6011400  86.7557980  52.0978540
  50.4196720  86.6953620  41.2334630  50.2597860  86.4056560  42.1316460
  50.2543430  85.9193750  40.6979860  42.8985100  86.4752150  43.0106250
  42.7227580  85.5587690  42.7974050  42.0440840  86.8339440  43.2504050
  50.1222850  84.2041180  39.7932630  49.4288010  84.2018470  39.1334910
  50.8645710  83.7800500  39.3626800  49.6872780  85.8303890  43.8681120
  50.1429730  85.0493270  44.1819740  50.0265300  86.5410710  44.4122300
  54.4349590  74.7602740  54.2005560  53.8193860  75.2682410  53.6721020
  54.1146010  73.8601070  54.1431500  37.4375330  81.6020350  51.0271860
  37.6006370  81.1325710  50.2091230  37.9027780  81.0943910  51.6920700
  42.2094100  70.7326110  46.0632430  41.7662250  71.5135650  45.7316950
  42.7679090  71.0556000  46.7703370  46.4963910  73.5994630  51.6667750
  46.0343280  73.8077650  52.4787690  46.0942020  72.7853980  51.3638420
  51.4968420  74.8203580  52.7964410  50.6462010  74.5209330  53.1173480
  51.3370210  75.0645590  51.8848230  45.3252920  70.3536810  40.9438260
  44.7007100  70.3496680  41.6691570  45.2383040  69.4867770  40.5474230
  44.2470000  71.2773440  47.9222030  44.5442330  72.1836270  47.8414050
  44.7955560  70.7892220  47.3081600  42.0008320  75.8559680  43.7913680
  41.7749240  75.6396850  44.6960300  41.2200850  76.2888140  43.4459650
  49.2306080  75.8623050  42.3904330  48.6314970  76.5858850  42.2067950
  49.7785690  75.7999830  41.6080780  47.8370950  74.4986590  44.4207610
  48.2300520  74.8158790  43.6076300  48.1987800  73.6198470  44.5352130
  39.5718070  73.1658930  52.6107730  39.1781460  74.0134140  52.8180510
  38.8836470  72.5285300  52.8016370  36.8735120  71.0887390  46.6437810
  36.5848170  71.6590250  47.3562790  37.6180880  70.6091840  47.0069040
  37.0605350  75.0307510  37.8540530  36.9780020  75.9738270  37.9955520
  36.7088410  74.8882420  36.9752880  48.4226090  77.0892340  48.5158390
  47.6907210  77.5979150  48.8648490  48.0250430  76.2722320  48.2147170
  44.8603480  73.7646540  46.9210880  44.8639540  73.3236490  46.0715420
  45.7554600  74.0863870  47.0282700  40.7105860  73.6473030  45.8805090
  40.3705910  74.1248260  46.6372140  39.9483180  73.1938150  45.5206190
  44.9223630  74.7658620  39.9117640  45.0436450  74.7245100  40.8603460
  44.5372140  75.6282770  39.7564370  48.8852000  72.5426020  47.9281330
  48.9024740  72.9934670  48.7723180  48.6367580  71.6431660  48.1414770
  43.9345130  77.0759760  39.3100940  43.3662030  76.6278010  38.6836850
  44.6434130  77.4352540  38.7766090  39.0114310  80.9771780  53.1867670
  38.6269100  80.3365450  53.7850630  39.3226500  81.6807900  53.7562400
  45.1611450  77.8248320  48.6676290  45.5281580  77.3506890  49.4137630
  44.9716510  78.6989890  49.0084630  38.0251940  72.5692010  44.7969760
  37.7398860  72.2047680  45.6348380  37.9630800  71.8372470  44.1832900
  42.9510820  76.8656960  50.9860500  42.6467890  77.7448940  51.2110860
  43.9057280  76.9256750  51.0217940  41.4792610  81.0717950  41.5827350
  40.7054870  80.5315570  41.4226070  42.2087240  80.5524560  41.2445110
  52.2380590  80.0683310  47.3753740  52.9579710  80.5638600  46.9849850
  52.0362410  79.3901200  46.7307610  47.6990530  71.4621270  41.5183130
  46.8855140  70.9634440  41.4428440  47.5052480  72.3019520  41.1019480
  47.6199390  80.1392370  53.2622740  47.5536700  79.2188040  53.0080330
  46.9904530  80.2367810  53.9767380  50.4138920  75.8340920  39.8145290
  51.3018540  76.1458150  39.6396630  50.3844010  74.9613170  39.4225870
  41.5230010  80.7398330  45.2206160  42.0408680  79.9366590  45.1663050
  41.0714030  80.6777470  46.0622990  46.4099510  82.0064610  40.4933460
  46.7515210  82.7506840  39.9976780  45.5812220  82.3195730  40.8558290
  39.0074550  77.7059700  52.1331860  38.6489490  78.3713550  52.7205200
  38.7129110  76.8743250  52.5044480  47.5516120  82.9612940  53.0126540
  47.5660660  82.0293900  52.7945450  46.8441220  83.0472700  53.6516310
  52.6853190  77.1452760  39.2825150  52.6016910  77.5766980  38.4321590
  53.4047380  77.6051110  39.7151970  53.7627330  79.6020280  52.3595120
  53.0375520  80.1949060  52.1624510  54.2902790  79.5943820  51.5608490
  53.7140440  83.9995020  42.0107280  53.0716600  83.3450640  42.2851000
  53.3271100  84.4050110  41.2347950  49.2926920  81.3280450  45.8578970
  49.6450740  80.7308580  45.1980340  48.4089250  81.0024680  46.0287220
  45.3790200  82.0878140  43.2649380  46.0661330  82.6347350  43.6456970
  44.5922620  82.6318870  43.2998990  37.5182600  77.7050960  38.7566460
  38.3877450  77.9875760  39.0402380  37.0272920  78.5186830  38.6415270
  44.6817410  79.0924170  42.8774740  45.1380190  79.9029420  43.1034930
  44.3305620  78.7747310  43.7093230  46.9850020  84.6030510  50.1067040
  47.6292240  84.8089890  50.7840460  47.3479460  83.8418910  49.6537890
  40.5829190  69.4361820  43.3497260  40.4543820  69.4279720  44.2982180
  39.7591210  69.7744910  42.9988270  48.2582100  82.6062860  48.8244490
  48.9004330  81.9056020  48.9376660  48.7831450  83.3861300  48.6441380
  52.1037820  82.8911480  38.5483630  51.8775400  82.1741920  39.1408270
  51.7134020  82.6423920  37.7105380  50.0319720  83.4057760  52.0280550
  50.3675960  83.9924450  52.7058470  49.1120060  83.2750470  52.2578340
  37.8853850  86.9178340  39.3228090  38.2451490  87.5167680  38.6685360
  37.7446190  87.4638230  40.0963120  37.5823120  71.1952940  52.8103960
  36.8681640  71.3949860  53.4156570  38.0018160  70.4192510  53.1818760
  51.6854070  80.8083420  40.2097790  51.3975770  81.2696110  40.9975670
  52.4806240  80.3481190  40.4782010  37.8695710  85.1833200  53.7970490
  37.9786830  84.2427940  53.6565880  37.2176270  85.4487950  53.1484220
  43.9022470  84.3009540  40.1401760  43.8932570  85.0339230  39.5246270
  42.9820830  84.0541120  40.2328720  39.5029110  79.5224430  40.8848520
  38.8957060  80.2623330  40.8943820  39.9778460  79.6123790  40.0586720
  49.0761900  73.6875250  50.5605410  49.4442720  72.8670460  50.8884980
  48.2160100  73.7477140  50.9761060  52.4423930  72.6432190  41.3692970
  51.8137090  72.7477860  40.6551200  51.9475850  72.8628970  42.1586850
  46.8882070  84.3637780  38.8026950  46.9894050  84.1601770  37.8728930
  45.9883810  84.1096060  39.0074730  44.4107960  74.9218140  42.7850850
  43.7024110  75.3904480  43.2264460  44.6952440  74.2640150  43.4196040
  46.0363890  76.3414840  50.7843380  46.5349140  76.8160660  51.4495230
  46.1786840  75.4178360  50.9913410  48.4423390  71.6468800  44.2246640
  48.3191170  71.6654930  43.2756150  49.3907950  71.6947740  44.3445040
  45.5300180  86.8824100  43.4974620  45.7841680  86.8445490  42.5753990
  44.5812660  86.7557430  43.4902870  42.6142980  73.2303220  40.1601560
  43.4633510  73.6673370  40.0941750  42.2474250  73.5423480  40.9873620
  53.2430750  72.5582800  51.6271770  52.7404350  73.2988200  51.9665580
  54.0587410  72.9466800  51.3108560  51.5352760  77.8015980  45.0733130
  50.5942900  77.8166210  45.2480820  51.8496830  77.0151940  45.5193430
  41.5134400  79.4835580  38.6337090  42.2797670  79.3716940  39.1962520
  41.5909090  78.7873550  37.9813860  40.2081160  76.9160650  39.3169980
  40.2884750  75.9688160  39.4287380  41.1000910  77.2467530  39.4230640
  53.5378340  84.9724830  46.7487390  53.6625760  85.7956000  47.2211200
  54.4043900  84.7615560  46.4011540  41.0095870  87.0656040  46.4204520
  41.7458350  86.5171500  46.6913090  41.3936790  87.9312050  46.2810510
  37.8941350  83.1329610  42.2946030  36.9681130  83.3750750  42.2851440
  38.3597780  83.9603870  42.1730780  44.1198180  86.2386350  38.2430090
  44.9126790  86.5275180  37.7911880  43.6002530  85.8078520  37.5642570
  53.1728350  85.4656480  39.6666830  52.8869860  85.0521620  38.8521010
  52.9747900  86.3944190  39.5467350  44.6375580  81.4589760  38.1072440
  44.5326220  80.8442110  38.8333820  44.4699800  80.9355650  37.3235450
  44.7889900  80.1446560  54.0861670  44.0235570  80.7131560  54.0016340
  44.9705860  79.8522770  53.1929900  47.8778310  80.5209790  38.7114430
  47.3288410  80.9679090  39.3557170  48.4997570  80.0159040  39.2352100
  43.5453430  79.4800710  40.6079730  43.9669850  79.3140580  41.4511120
  43.6704270  78.6700940  40.1134870  41.7080850  75.4597260  53.4150710
  41.1777310  74.9688210  52.7874050  42.3768920  75.8881460  52.8808640
  46.0581070  78.5038320  37.8556830  46.5786730  77.7887340  37.4897980
  46.7049470  79.1424190  38.1557340  50.6058910  79.9266720  53.1791900
  51.0199930  80.0811800  54.0282320  49.6709910  80.0521940  53.3417680
  42.1953150  72.4259630  53.4948000  42.1010020  71.8080380  52.7698870
  41.6150540  73.1525920  53.2677910  44.9614590  70.9832870  50.5275390
  44.5131890  71.0057130  49.6820940  44.3279790  70.5851890  51.1245690
  45.3674140  79.8787200  51.1487830  45.7862250  80.7219930  50.9764070
  44.4482770  80.0159240  50.9194610  47.7038040  77.6103380  52.5325670
  47.8234250  77.0144520  53.2720510  48.5632040  77.6473070  52.1126970
  50.0425940  78.1640570  51.1088180  49.5161160  78.6883190  50.5053320
  50.3857280  78.7967960  51.7397910  42.4412330  75.5533940  37.5537890
  42.2401390  74.6901300  37.9151230  42.2704380  75.4667300  36.6159490
  43.2181560  86.1840210  52.2645560  42.6802650  86.9086270  51.9454260
  43.4715520  85.7070550  51.4742900  49.9200640  70.3642170  40.0824770
  50.2002930  69.5210070  40.4384190  49.1466370  70.5965280  40.5963520
  41.2395130  72.6534560  37.5415770  41.5421030  72.6601990  36.6334920
  41.9789720  72.3032420  38.0383430  46.0743770  87.4191420  52.5232210
  46.0002470  88.3226560  52.8304580  45.1722610  87.1003320  52.4954280
  44.4580060  71.5969180  38.5271970  44.1102060  70.9193170  37.9474420
  44.6592830  71.1358690  39.3415360  46.6229100  86.5849930  40.1458570
  47.5179890  86.9234900  40.1677330  46.6546730  85.8629340  39.5182850
  40.2625260  81.9576980  38.3745570  40.7000130  82.5006650  39.0303150
  40.7472990  81.1323930  38.3841910  37.4771060  84.7466010  45.8265830
  37.8074070  83.8787070  45.5944470  37.9062060  84.9524530  46.6570790
  42.0732980  83.0775020  43.4867800  41.7728520  82.9539990  44.3871710
  41.9670470  82.2183610  43.0783530  37.9661270  85.6136600  48.5647460
  37.5292260  85.7937400  49.3971610  38.5338950  86.3711220  48.4229180
  53.6023450  85.1153600  52.8524770  53.0025440  85.1746160  52.1088690
  53.7317350  84.1758580  52.9821620  54.8424900  82.8571420  38.1894480
  54.0117860  82.9248070  38.6601710  55.0196730  83.7475540  37.8861340
  54.2981360  79.6018900  40.6928680  55.0600270  80.1715550  40.7988370
  54.3135730  79.0346100  41.4636990  37.7985700  78.1256830  44.9236340
  37.1434540  77.8568470  44.2796040  38.6363650  78.0161310  44.4738320
  55.3041330  80.4569000  45.5370610  55.6750160  79.6736320  45.1306580
  55.9443260  81.1458100  45.3587910  52.2875090  81.8405580  50.9500930
  51.4734930  82.2702740  51.2126720  52.6949290  82.4523990  50.3369980
  54.3500530  79.8953270  37.8501200  54.6249370  80.8032150  37.7220420
  54.1611270  79.8315800  38.7863190  50.7476140  72.9198120  39.1454830
  51.1661020  72.7329100  38.3051490  50.4412200  72.0677170  39.4557760
  54.2465870  77.8322260  42.8430630  53.8709470  77.0650190  42.4111920
  53.5168990  78.2144960  43.3305560  38.8361630  78.5109400  49.4639680
  39.2034670  78.4236800  50.3435700  38.2672450  77.7475950  49.3646540
  53.6365490  76.9793780  52.4770150  53.4051580  76.7506530  51.5768100
  53.8970040  77.8993330  52.4315040  38.3877630  75.4218490  53.3698100
  37.4933680  75.3885250  53.7091810  38.9275180  75.6205280  54.1349350
  37.0123780  75.3355760  40.8661670  36.1087860  75.5985960  40.6913330
  37.4964400  75.6066930  40.0861630  53.5216830  76.0579750  46.1437870
  54.0454310  75.5642400  45.5128040  54.1076250  76.1930110  46.8885440
  53.7006550  76.1419620  49.6657420  52.7509260  76.1083160  49.7802410
  53.8819560  77.0519730  49.4307190  39.5550990  74.3921300  38.7756050
  40.2642690  73.9704520  38.2903330  38.8390930  74.4596530  38.1439400
  39.2025150  70.4460630  37.8158700  39.9253280  70.9869570  38.1339920
  39.4749670  70.1724050  36.9400240  53.0116800  75.3153100  42.0830280
  53.5075920  75.0823970  42.8679160  52.8132870  74.4764940  41.6667920
  38.8917340  69.6966820  47.7181320  39.5393530  69.1464200  47.2776480
  39.3119180  69.9509970  48.5397130  54.4403960  73.9514050  44.6167960
  54.3303240  73.7970090  45.5550230  55.2011550  73.4234990  44.3743370
  52.7869680  69.8908180  51.0750960  53.4241900  70.5042320  51.4410150
  52.9344570  69.9268840  50.1300190  55.3294230  71.7821970  37.8574100
  56.2543540  71.6503150  37.6492390  55.3070020  71.8614790  38.8110550
  55.4032720  72.5532630  40.4830810  54.6084220  72.4877750  41.0123720
  55.6076000  73.4883270  40.4716160  52.3451140  86.5924180  44.4769200
  52.9410210  86.2708750  43.8003620  52.6029290  86.1196000  45.2682470
  38.6449340  69.8522490  50.4606640  38.2964160  70.3086310  51.2264820
  38.3137040  68.9579620  50.5429070  43.9519740  84.5801680  50.2269550
  43.7111100  84.8476240  49.3400070  44.8922380  84.7507410  50.2820410
  55.2123900  86.5996060  51.0280190  54.7182180  86.9964930  50.3107320
  54.6037190  85.9745270  51.4217470  40.0901740  85.9704340  51.7457610
  39.4962060  85.8389040  52.4847650  40.0825580  85.1342480  51.2799710
  49.5356760  69.2636570  49.9487640  48.6616600  69.5971680  49.7460570
  49.4267510  68.7909750  50.7739510  50.4428740  71.4707440  51.3329360
  50.1142100  70.6559200  50.9531090  51.3911040  71.4277250  51.2095050
  52.8963350  87.2419480  48.3066930  52.4366320  87.9935290  47.9324950
  52.2675810  86.5225950  48.2481730  39.7213970  83.3362720  50.6965650
  38.9948030  82.7168010  50.6291600  39.7823120  83.7303330  49.8263730
  43.3259070  85.5507720  47.4815060  43.8424090  84.9395080  46.9563320
  43.9756450  86.0536500  47.9726070  46.0654570  86.4416210  48.3084040
  46.3532380  86.1870510  47.4317050  46.5777790  85.8893570  48.8989610
  47.2831580  70.1806410  48.8880550  46.5003370  70.6551910  49.1677310
  46.9894510  69.2761240  48.7793730  51.8352650  70.8829510  46.9329640
  52.2760740  70.8274610  46.0851240  51.5660240  71.7987520  47.0039820
  53.6991220  70.5144750  44.9438460  53.6379620  69.5705970  44.7969480
  54.4783250  70.6224840  45.4891920  38.0043970  86.6537110  43.9062410
  37.8366010  86.0207790  44.6044300  37.1378480  86.8596510  43.5556600
  38.6271990  70.4853890  41.4094270  39.3851350  70.5982770  40.8358300
  38.1649160  71.3223090  41.3637700  45.1685800  72.5993160  44.3996580
  44.3560310  72.2250050  44.0592460  45.6727440  71.8438240  44.7017770
  49.6710780  69.2635610  45.6379650  50.2740150  69.8355820  46.1128170
  48.9303770  69.8275050  45.4153550  52.8145380  69.6657170  40.9119930
  53.0096010  70.5640620  41.1787360  52.0275250  69.4344250  41.4052880
  39.6106670  85.3470340  41.3512550  39.0854290  85.7278370  40.6474510
  39.5351250  85.9721110  42.0722260  40.9997140  71.0117940  39.9496240
  41.5289900  70.2247740  39.8204190  41.6325460  71.6909130  40.1831770
  43.1934980  70.7493080  43.0041630  42.5637720  70.0480390  43.1711760
  42.6540120  71.5097210  42.7874790  54.3671990  86.9057880  42.6726490
  54.5424180  86.2195620  42.0287410  53.6693560  87.4304930  42.2803160
  42.2099640  87.2952720  40.2261800  42.9418460  87.0112000  39.6785690
  42.4693310  87.0566000  41.1161180  41.3714430  83.4117450  40.2308130
  40.7423310  83.8802550  40.7793960  41.4862260  82.5666670  40.6654320
  48.8264150  77.4623110  26.3809330  48.7458200  76.5477720  26.1101040
  48.4128570  77.9590180  25.6749040  46.9582190  79.2402130  28.2618600
  46.1824290  78.7602570  28.5517170  47.6095120  78.5607780  28.0874760
  40.9748020  79.5521940  29.1394360  40.1432900  79.2970650  29.5390870
  41.5829000  79.6232710  29.8752280  50.9789620  83.6462320  27.0417730
  50.5171150  82.8749560  27.3704900  51.7915170  83.6728390  27.5470180
  40.9549280  83.5862030  29.3352380  41.2577320  82.6959770  29.1562600
  41.6992870  84.1432250  29.1074630  39.3839970  74.5123830  22.9236750
  38.4956670  74.8539800  22.8216630  39.6681160  74.3124150  22.0317580
  37.3472980  77.1129480  28.8076450  37.9189090  76.3451680  28.8080090
  37.3474520  77.4118240  27.8983060  47.2052930  85.9320330  26.6621720
  46.5864370  86.3877830  26.0916160  48.0604710  86.0871790  26.2611420
  46.3991180  81.9159320  28.2688760  46.3299460  80.9749260  28.1077890
  47.1611040  82.0060730  28.8411330  38.5897850  72.5213840  30.5945380
  38.4100690  71.6239590  30.8748140  38.1877930  73.0685710  31.2692330
  47.4296350  74.7229700  28.4957690  47.8061170  73.8501580  28.3831360
  47.3315860  75.0588400  27.6048130  41.5601360  73.0955330  23.9575130
  41.6668110  73.9959060  24.2643890  40.6493720  73.0473300  23.6669780
  51.2120470  72.2180140  25.4286030  52.0330090  71.7276710  25.4711510
  51.2454550  72.8077800  26.1817870  39.2084520  75.0174340  29.2027720
  39.8894630  75.2812710  29.8215120  38.8932570  74.1775210  29.5365730
  43.4009090  76.0641700  28.2900310  43.9087310  76.5622670  28.9305330
  43.9322330  75.2876900  28.1139670  41.6845190  70.7040260  32.5563730
  41.6863630  71.2212650  31.7509630  40.8549500  70.2270440  32.5333660
  48.0716280  80.8159570  24.0553630  47.4533550  81.2809020  23.4916350
  48.5839530  81.5087050  24.4723140  42.9348040  80.3435440  30.7337230
  42.6017420  80.9704360  31.3758300  43.1114720  80.8697320  29.9538900
  41.3660520  72.4150220  30.5634180  41.7077330  73.2592270  30.2688050
  40.4276330  72.5633960  30.6799520  42.1467140  82.3116240  32.5486410
  42.7641140  82.9867320  32.2670860  41.2860260  82.7204220  32.4573910
  37.4399480  81.5016100  21.4293260  37.0627460  81.9903200  20.6978160
  37.6972550  82.1741380  22.0599790  53.0644730  83.7755650  30.4641050
  52.3808250  84.4454760  30.4557720  53.6039020  83.9736300  29.6985910
  50.6003470  85.6199780  29.1786230  50.6130630  85.2162070  28.3108490
  50.0478690  86.3947070  29.0747660  51.8948890  82.3416000  24.2676400
  51.7845220  81.3990330  24.3925820  51.8917140  82.7031640  25.1539160
  49.9988910  80.5229620  30.5068840  50.4157700  80.3089730  29.6722300
  50.7228730  80.7802410  31.0777460  47.4369170  77.9681320  23.6238890
  46.5098450  77.9018700  23.8527360  47.5893990  78.9061450  23.5094130
  47.4238250  74.2398320  20.6206050  46.4841920  74.4012280  20.7058510
  47.7421510  74.9584000  20.0742040  53.9451010  78.9216840  30.5985080
  53.1169640  78.9909930  30.1235210  54.5401490  79.5071150  30.1300910
  51.4666460  79.5301620  24.1274140  50.8478880  79.1921170  23.4800440
  51.4490910  78.8861380  24.8353330  50.9093020  75.7086160  31.5439950
  50.4964200  76.5339870  31.7979940  50.1768970  75.1231200  31.3516310
  43.0425810  78.4946060  26.4058620  42.6382810  77.7823310  25.9104520
  43.1288930  78.1499300  27.2946660  43.5107510  82.1813620  28.5697830
  43.2135800  81.5759090  27.8905610  44.4607330  82.2190930  28.4587190
  41.7554430  75.2689270  30.1857660  42.3069020  75.3784610  29.4110910
  42.2697940  75.6426870  30.9012890  51.5993120  85.7545490  32.2320930
  51.1223680  86.5617680  32.0393540  50.9154910  85.1023820  32.3847140
  42.6025940  81.9195310  35.2205630  41.7054470  82.1435280  35.4679030
  42.6278810  82.0430250  34.2717030  49.6431160  78.7688430  21.1346890
  50.0824440  77.9310860  20.9884710  50.3559580  79.4017830  21.2211030
  41.4297160  78.7908630  33.7963000  41.2904930  79.6631430  34.1650400
  40.5478520  78.4481440  33.6510940  47.7526540  83.7084500  25.1028130
  48.1922450  84.4508830  24.6883520  47.6913430  83.9511070  26.0267090
  43.2277510  84.7330330  36.0048150  43.1992940  85.1373280  35.1376580
  43.0642480  83.8040690  35.8419750  53.2248300  70.0231240  19.4487930
  52.9120960  70.1158070  20.3487000  53.9860770  70.6012270  19.3985360
  39.7430440  77.3891040  23.9065270  39.6228040  78.1153130  23.2946540
  39.4331330  76.6193950  23.4293180  55.1792330  85.5157430  37.3012320
  55.6552050  85.9940320  37.9801400  55.7999490  85.4474920  36.5757820
  37.3815810  80.5606180  29.7133910  37.4596230  80.6954950  28.7689630
  37.9957490  79.8522070  29.9062030  38.6263440  82.2606370  26.1240090
  38.2191520  82.4020960  25.2693690  39.5176450  81.9766530  25.9211300
  54.5825580  82.7070280  34.4612330  54.7088640  82.4682160  33.5429510
  54.6246960  81.8754820  34.9334410  48.4442320  86.4098280  33.0307140
  48.9586990  86.3206290  33.8329570  47.6011400  86.7557980  33.3235050
  50.4196720  86.6953620  22.4591140  50.2597860  86.4056560  23.3572970
  50.2543430  85.9193750  21.9236370  42.8985100  86.4752150  24.2362760
  42.7227580  85.5587690  24.0230560  42.0440840  86.8339440  24.4760560
  50.1222850  84.2041180  21.0189140  49.4288010  84.2018470  20.3591420
  50.8645710  83.7800500  20.5883310  49.6872780  85.8303890  25.0937630
  50.1429730  85.0493270  25.4076250  50.0265300  86.5410710  25.6378810
  54.4349590  74.7602740  35.4262070  53.8193860  75.2682410  34.8977530
  54.1146010  73.8601070  35.3688010  37.4375330  81.6020350  32.2528370
  37.6006370  81.1325710  31.4347740  37.9027780  81.0943910  32.9177210
  46.4963910  73.5994630  32.8924260  46.0343280  73.8077650  33.7044200
  46.0942020  72.7853980  32.5894930  51.4968420  74.8203580  34.0220920
  50.6462010  74.5209330  34.3429990  51.3370210  75.0645590  33.1104740
  48.5918130  76.3205330  36.1219710  48.9171540  75.4869080  35.7821940
  49.3798460  76.8433850  36.2698040  45.3252920  70.3536810  22.1694770
  44.7007100  70.3496680  22.8948080  45.2383040  69.4867770  21.7730740
  42.0008320  75.8559680  25.0170190  41.7749240  75.6396850  25.9216810
  41.2200850  76.2888140  24.6716160  49.2306080  75.8623050  23.6160840
  48.6314970  76.5858850  23.4324460  49.7785690  75.7999830  22.8337290
  44.4407530  76.7545260  35.6830460  44.3451130  75.8139990  35.5330860
  45.2839510  76.9760330  35.2878530  47.8370950  74.4986590  25.6464120
  48.2300520  74.8158790  24.8332810  48.1987800  73.6198470  25.7608640
  39.5718070  73.1658930  33.8364240  39.1781460  74.0134140  34.0437020
  38.8836470  72.5285300  34.0272880  46.1463120  73.2493900  36.9060980
  45.4561440  73.0566100  37.5407070  46.8895420  73.5328540  37.4385280
  36.8735120  71.0887390  27.8694320  36.5848170  71.6590250  28.5819300
  37.6180880  70.6091840  28.2325550  37.0605350  75.0307510  19.0797040
  36.9780020  75.9738270  19.2212030  36.7088410  74.8882420  18.2009390
  48.4226090  77.0892340  29.7414900  47.6907210  77.5979150  30.0905000
  48.0250430  76.2722320  29.4403680  44.8603480  73.7646540  28.1467390
  44.8639540  73.3236490  27.2971930  45.7554600  74.0863870  28.2539210
  40.7105860  73.6473030  27.1061600  40.3705910  74.1248260  27.8628650
  39.9483180  73.1938150  26.7462700  44.9223630  74.7658620  21.1374150
  45.0436450  74.7245100  22.0859970  44.5372140  75.6282770  20.9820880
  48.8852000  72.5426020  29.1537840  48.9024740  72.9934670  29.9979690
  48.6367580  71.6431660  29.3671280  43.9345130  77.0759760  20.5357450
  43.3662030  76.6278010  19.9093360  44.6434130  77.4352540  20.0022600
  52.3122750  69.9558200  34.9924220  52.6368520  69.2247860  35.5182200
  52.3479260  69.6371840  34.0905210  39.0114310  80.9771780  34.4124180
  38.6269100  80.3365450  35.0107140  39.3226500  81.6807900  34.9818910
  45.1611450  77.8248320  29.8932800  45.5281580  77.3506890  30.6394140
  44.9716510  78.6989890  30.2341140  38.0251940  72.5692010  26.0226270
  37.7398860  72.2047680  26.8604890  37.9630800  71.8372470  25.4089410
  42.9510820  76.8656960  32.2117010  42.6467890  77.7448940  32.4367370
  43.9057280  76.9256750  32.2474450  41.4792610  81.0717950  22.8083860
  40.7054870  80.5315570  22.6482580  42.2087240  80.5524560  22.4701620
  52.2380590  80.0683310  28.6010250  52.9579710  80.5638600  28.2106360
  52.0362410  79.3901200  27.9564120  47.6990530  71.4621270  22.7439640
  46.8855140  70.9634440  22.6684950  47.5052480  72.3019520  22.3275990
  47.6199390  80.1392370  34.4879250  47.5536700  79.2188040  34.2336840
  46.9904530  80.2367810  35.2023890  50.4138920  75.8340920  21.0401800
  51.3018540  76.1458150  20.8653140  50.3844010  74.9613170  20.6482380
  41.5230010  80.7398330  26.4462670  42.0408680  79.9366590  26.3919560
  41.0714030  80.6777470  27.2879500  46.4099510  82.0064610  21.7189970
  46.7515210  82.7506840  21.2233290  45.5812220  82.3195730  22.0814800
  39.0074550  77.7059700  33.3588370  38.6489490  78.3713550  33.9461710
  38.7129110  76.8743250  33.7300990  42.2087670  78.1643940  36.2427920
  41.9087810  78.3101120  35.3455740  42.9798910  77.6049230  36.1501310
  47.5516120  82.9612940  34.2383050  47.5660660  82.0293900  34.0201960
  46.8441220  83.0472700  34.8772820  52.6853190  77.1452760  20.5081660
  52.6016910  77.5766980  19.6578100  53.4047380  77.6051110  20.9408480
  53.7627330  79.6020280  33.5851630  53.0375520  80.1949060  33.3881020
  54.2902790  79.5943820  32.7865000  53.7140440  83.9995020  23.2363790
  53.0716600  83.3450640  23.5107510  53.3271100  84.4050110  22.4604460
  49.2926920  81.3280450  27.0835480  49.6450740  80.7308580  26.4236850
  48.4089250  81.0024680  27.2543730  45.3790200  82.0878140  24.4905890
  46.0661330  82.6347350  24.8713480  44.5922620  82.6318870  24.5255500
  37.5182600  77.7050960  19.9822970  38.3877450  77.9875760  20.2658890
  37.0272920  78.5186830  19.8671780  44.6817410  79.0924170  24.1031250
  45.1380190  79.9029420  24.3291440  44.3305620  78.7747310  24.9349740
  46.9850020  84.6030510  31.3323550  47.6292240  84.8089890  32.0096970
  47.3479460  83.8418910  30.8794400  48.2582100  82.6062860  30.0501000
  48.9004330  81.9056020  30.1633170  48.7831450  83.3861300  29.8697890
  52.1037820  82.8911480  19.7740140  51.8775400  82.1741920  20.3664780
  51.7134020  82.6423920  18.9361890  50.0319720  83.4057760  33.2537060
  50.3675960  83.9924450  33.9314980  49.1120060  83.2750470  33.4834850
  37.8853850  86.9178340  20.5484600  38.2451490  87.5167680  19.8941870
  37.7446190  87.4638230  21.3219630  37.5823120  71.1952940  34.0360470
  36.8681640  71.3949860  34.6413080  38.0018160  70.4192510  34.4075270
  51.6854070  80.8083420  21.4354300  51.3975770  81.2696110  22.2232180
  52.4806240  80.3481190  21.7038520  37.8695710  85.1833200  35.0227000
  37.9786830  84.2427940  34.8822390  37.2176270  85.4487950  34.3740730
  45.8608300  83.4549090  36.4225120  45.5405170  82.7358330  36.9670810
  45.1866660  84.1304160  36.4961180  43.9022470  84.3009540  21.3658270
  43.8932570  85.0339230  20.7502780  42.9820830  84.0541120  21.4585230
  39.5029110  79.5224430  22.1105030  38.8957060  80.2623330  22.1200330
  39.9778460  79.6123790  21.2843230  49.0761900  73.6875250  31.7861920
  49.4442720  72.8670460  32.1141490  48.2160100  73.7477140  32.2017570
  52.4423930  72.6432190  22.5949480  51.8137090  72.7477860  21.8807710
  51.9475850  72.8628970  23.3843360  46.8882070  84.3637780  20.0283460
  46.9894050  84.1601770  19.0985440  45.9883810  84.1096060  20.2331240
  44.4107960  74.9218140  24.0107360  43.7024110  75.3904480  24.4520970
  44.6952440  74.2640150  24.6452550  46.0363890  76.3414840  32.0099890
  46.5349140  76.8160660  32.6751740  46.1786840  75.4178360  32.2169920
  45.5300180  86.8824100  24.7231130  45.7841680  86.8445490  23.8010500
  44.5812660  86.7557430  24.7159380  42.6142980  73.2303220  21.3858070
  43.4633510  73.6673370  21.3198260  42.2474250  73.5423480  22.2130130
  53.2430750  72.5582800  32.8528280  52.7404350  73.2988200  33.1922090
  54.0587410  72.9466800  32.5365070  41.5134400  79.4835580  19.8593600
  42.2797670  79.3716940  20.4219030  41.5909090  78.7873550  19.2070370
  40.2081160  76.9160650  20.5426490  40.2884750  75.9688160  20.6543890
  41.1000910  77.2467530  20.6487150  53.5378340  84.9724830  27.9743900
  53.6625760  85.7956000  28.4467710  54.4043900  84.7615560  27.6268050
  41.0095870  87.0656040  27.6461030  41.7458350  86.5171500  27.9169600
  41.3936790  87.9312050  27.5067020  37.8941350  83.1329610  23.5202540
  36.9681130  83.3750750  23.5107950  38.3597780  83.9603870  23.3987290
  40.0154150  86.2502110  36.8346610  40.8166880  86.5714160  37.2482010
  39.5005970  85.8897690  37.5566520  44.1198180  86.2386350  19.4686600
  44.9126790  86.5275180  19.0168390  43.6002530  85.8078520  18.7899080
  48.8518780  82.3581980  36.7822020  48.2456940  82.3813580  36.0417770
  48.5472890  81.6265020  37.3189270  50.2819150  86.0862270  35.3931430
  51.2340900  86.0020290  35.3431670  50.1347370  86.7503980  36.0665220
  53.1728350  85.4656480  20.8923340  52.8869860  85.0521620  20.0777520
  52.9747900  86.3944190  20.7723860  37.7351960  78.7375570  35.7782660
  38.2390980  78.1582850  36.3498890  36.9959380  79.0215800  36.3159030
  44.6375580  81.4589760  19.3328950  44.5326220  80.8442110  20.0590330
  44.4699800  80.9355650  18.5491960  44.7889900  80.1446560  35.3118180
  44.0235570  80.7131560  35.2272850  44.9705860  79.8522770  34.4186410
  47.8778310  80.5209790  19.9370940  47.3288410  80.9679090  20.5813680
  48.4997570  80.0159040  20.4608610  51.9313250  81.8751890  35.8693200
  52.6722720  82.2127650  35.3660660  51.1685930  82.0443950  35.3162970
  39.7675040  76.8805160  36.6732730  39.8080380  76.5819030  37.5817960
  40.6220540  77.2812770  36.5140250  43.5453430  79.4800710  21.8336240
  43.9669850  79.3140580  22.6767630  43.6704270  78.6700940  21.3391380
  41.7080850  75.4597260  34.6407220  41.1777310  74.9688210  34.0130560
  42.3768920  75.8881460  34.1065150  46.0581070  78.5038320  19.0813340
  46.5786730  77.7887340  18.7154490  46.7049470  79.1424190  19.3813850
  50.6058910  79.9266720  34.4048410  51.0199930  80.0811800  35.2538830
  49.6709910  80.0521940  34.5674190  51.0781080  77.2662880  36.4087560
  51.6601850  76.5115200  36.3208040  51.2542850  77.7970320  35.6319040
  42.1953150  72.4259630  34.7204510  42.1010020  71.8080380  33.9955380
  41.6150540  73.1525920  34.4934420  44.9614590  70.9832870  31.7531900
  44.5131890  71.0057130  30.9077450  44.3279790  70.5851890  32.3502200
  45.3674140  79.8787200  32.3744340  45.7862250  80.7219930  32.2020580
  44.4482770  80.0159240  32.1451120  47.7038040  77.6103380  33.7582180
  47.8234250  77.0144520  34.4977020  48.5632040  77.6473070  33.3383480
  50.0425940  78.1640570  32.3344690  49.5161160  78.6883190  31.7309830
  50.3857280  78.7967960  32.9654420  42.4412330  75.5533940  18.7794400
  42.2401390  74.6901300  19.1407740  42.2704380  75.4667300  17.8416000
  43.2181560  86.1840210  33.4902070  42.6802650  86.9086270  33.1710770
  43.4715520  85.7070550  32.6999410  44.4706810  74.1524730  35.0158000
  45.0606500  73.8440580  35.7035820  43.6527050  73.6804480  35.1717900
  49.2900240  73.7690540  35.2491020  48.6015760  73.1072080  35.1841010
  50.0106260  73.3228810  35.6939480  49.9200640  70.3642170  21.3081280
  50.2002930  69.5210070  21.6640700  49.1466370  70.5965280  21.8220030
  41.2395130  72.6534560  18.7672280  41.5421030  72.6601990  17.8591430
  41.9789720  72.3032420  19.2639940  46.0743770  87.4191420  33.7488720
  46.0002470  88.3226560  34.0561090  45.1722610  87.1003320  33.7210790
  44.4580060  71.5969180  19.7528480  44.1102060  70.9193170  19.1730930
  44.6592830  71.1358690  20.5671870  46.6229100  86.5849930  21.3715080
  47.5179890  86.9234900  21.3933840  46.6546730  85.8629340  20.7439360
  40.2625260  81.9576980  19.6002080  40.7000130  82.5006650  20.2559660
  40.7472990  81.1323930  19.6098420  37.4771060  84.7466010  27.0522340
  37.8074070  83.8787070  26.8200980  37.9062060  84.9524530  27.8827300
  42.0732980  83.0775020  24.7124310  41.7728520  82.9539990  25.6128220
  41.9670470  82.2183610  24.3040040  37.9661270  85.6136600  29.7903970
  37.5292260  85.7937400  30.6228120  38.5338950  86.3711220  29.6485690
  53.6023450  85.1153600  34.0781280  53.0025440  85.1746160  33.3345200
  53.7317350  84.1758580  34.2078130  54.8424900  82.8571420  19.4150990
  54.0117860  82.9248070  19.8858220  55.0196730  83.7475540  19.1117850
  54.2981360  79.6018900  21.9185190  55.0600270  80.1715550  22.0244880
  54.3135730  79.0346100  22.6893500  37.7985700  78.1256830  26.1492850
  37.1434540  77.8568470  25.5052550  38.6363650  78.0161310  25.6994830
  55.3041330  80.4569000  26.7627120  55.6750160  79.6736320  26.3563090
  55.9443260  81.1458100  26.5844420  52.2875090  81.8405580  32.1757440
  51.4734930  82.2702740  32.4383230  52.6949290  82.4523990  31.5626490
  54.3500530  79.8953270  19.0757710  54.6249370  80.8032150  18.9476930
  54.1611270  79.8315800  20.0119700  50.7476140  72.9198120  20.3711340
  51.1661020  72.7329100  19.5308000  50.4412200  72.0677170  20.6814270
  38.8361630  78.5109400  30.6896190  39.2034670  78.4236800  31.5692210
  38.2672450  77.7475950  30.5903050  53.6365490  76.9793780  33.7026660
  53.4051580  76.7506530  32.8024610  53.8970040  77.8993330  33.6571550
  38.3877630  75.4218490  34.5954610  37.4933680  75.3885250  34.9348320
  38.9275180  75.6205280  35.3605860  52.0753560  72.2050210  36.4806360
  52.9523740  72.2133610  36.8640360  52.0874400  71.4681050  35.8698710
  37.0123780  75.3355760  22.0918180  36.1087860  75.5985960  21.9169840
  37.4964400  75.6066930  21.3118140  39.5550990  74.3921300  20.0012560
  40.2642690  73.9704520  19.5159840  38.8390930  74.4596530  19.3695910
  39.2025150  70.4460630  19.0415210  39.9253280  70.9869570  19.3596430
  39.4749670  70.1724050  18.1656750  53.0116800  75.3153100  23.3086790
  53.5075920  75.0823970  24.0935670  52.8132870  74.4764940  22.8924430
  55.3294230  71.7821970  19.0830610  56.2543540  71.6503150  18.8748900
  55.3070020  71.8614790  20.0367060  55.4032720  72.5532630  21.7087320
  54.6084220  72.4877750  22.2380230  55.6076000  73.4883270  21.6972670
  52.3451140  86.5924180  25.7025710  52.9410210  86.2708750  25.0260130
  52.6029290  86.1196000  26.4938980  38.6449340  69.8522490  31.6863150
  38.2964160  70.3086310  32.4521330  38.3137040  68.9579620  31.7685580
  40.2513710  83.0242090  35.8516340  40.2083340  82.6535000  36.7330800
  40.3824720  83.9619660  35.9918160  43.9519740  84.5801680  31.4526060
  43.7111100  84.8476240  30.5656580  44.8922380  84.7507410  31.5076920
  46.1574160  71.0434370  35.2082570  46.0963050  71.6356200  35.9577980
  47.0974540  70.9360330  35.0632830  48.7948720  70.7004430  34.8474860
  49.4089130  71.0183720  34.1855940  49.3398280  70.2153020  35.4670720
  55.2123900  86.5996060  32.2536700  54.7182180  86.9964930  31.5363830
  54.6037190  85.9745270  32.6473980  39.3169980  69.3798690  34.9613920
  39.8652970  69.1986740  34.1980030  39.3825290  68.5892800  35.4970230
  40.0901740  85.9704340  32.9714120  39.4962060  85.8389040  33.7104160
  40.0825580  85.1342480  32.5056220  50.4428740  71.4707440  32.5585870
  50.1142100  70.6559200  32.1787600  51.3911040  71.4277250  32.4351560
  52.8963350  87.2419480  29.5323440  52.4366320  87.9935290  29.1581460
  52.2675810  86.5225950  29.4738240  39.7213970  83.3362720  31.9222160
  38.9948030  82.7168010  31.8548110  39.7823120  83.7303330  31.0520240
  43.3259070  85.5507720  28.7071570  43.8424090  84.9395080  28.1819830
  43.9756450  86.0536500  29.1982580  46.0654570  86.4416210  29.5340550
  46.3532380  86.1870510  28.6573560  46.5777790  85.8893570  30.1246120
  38.0043970  86.6537110  25.1318920  37.8366010  86.0207790  25.8300810
  37.1378480  86.8596510  24.7813110  38.6271990  70.4853890  22.6350780
  39.3851350  70.5982770  22.0614810  38.1649160  71.3223090  22.5894210
  52.8145380  69.6657170  22.1376440  53.0096010  70.5640620  22.4043870
  52.0275250  69.4344250  22.6309390  39.6106670  85.3470340  22.5769060
  39.0854290  85.7278370  21.8731020  39.5351250  85.9721110  23.2978770
  40.9997140  71.0117940  21.1752750  41.5289900  70.2247740  21.0460700
  41.6325460  71.6909130  21.4088280  46.1326930  87.3632310  36.9008750
  47.0594240  87.1276580  36.9444710  46.1177360  88.1904310  36.4194780
  54.3671990  86.9057880  23.8983000  54.5424180  86.2195620  23.2543920
  53.6693560  87.4304930  23.5059670  43.3190540  70.0277060  36.6650630
  43.0374810  70.5310660  35.9011450  43.7010240  69.2298810  36.2992760
  42.2099640  87.2952720  21.4518310  42.9418460  87.0112000  20.9042200
  42.4693310  87.0566000  22.3417690  41.3714430  83.4117450  21.4564640
  40.7423310  83.8802550  22.0050470  41.4862260  82.5666670  21.8910830
  49.9206000  69.4430640  37.2431100  49.8071450  69.7625250  38.1382620
  50.7375740  69.8443150  36.9468380  52.7004490  86.5902170  36.7249790
  53.4929810  86.0951400  36.5175750  52.9937640  87.2692310  37.3325400
  48.8264150  77.4623110   7.6065840  48.7458200  76.5477720   7.3357550
  48.4128570  77.9590180   6.9005550  46.9582190  79.2402130   9.4875110
  46.1824290  78.7602570   9.7773680  47.6095120  78.5607780   9.3131270
  40.9748020  79.5521940  10.3650870  40.1432900  79.2970650  10.7647380
  41.5829000  79.6232710  11.1008790  50.9789620  83.6462320   8.2674240
  50.5171150  82.8749560   8.5961410  51.7915170  83.6728390   8.7726690
  40.9549280  83.5862030  10.5608890  41.2577320  82.6959770  10.3819110
  41.6992870  84.1432250  10.3331140  39.3839970  74.5123830   4.1493260
  38.4956670  74.8539800   4.0473140  39.6681160  74.3124150   3.2574090
  37.3472980  77.1129480  10.0332960  37.9189090  76.3451680  10.0336600
  37.3474520  77.4118240   9.1239570  47.2052930  85.9320330   7.8878230
  46.5864370  86.3877830   7.3172670  48.0604710  86.0871790   7.4867930
  46.3991180  81.9159320   9.4945270  46.3299460  80.9749260   9.3334400
  47.1611040  82.0060730  10.0667840  38.5897850  72.5213840  11.8201890
  38.4100690  71.6239590  12.1004650  38.1877930  73.0685710  12.4948840
  47.4296350  74.7229700   9.7214200  47.8061170  73.8501580   9.6087870
  47.3315860  75.0588400   8.8304640  41.5601360  73.0955330   5.1831640
  41.6668110  73.9959060   5.4900400  40.6493720  73.0473300   4.8926290
  51.2120470  72.2180140   6.6542540  52.0330090  71.7276710   6.6968020
  51.2454550  72.8077800   7.4074380  39.2084520  75.0174340  10.4284230
  39.8894630  75.2812710  11.0471630  38.8932570  74.1775210  10.7622240
  43.4009090  76.0641700   9.5156820  43.9087310  76.5622670  10.1561840
  43.9322330  75.2876900   9.3396180  55.5020020  74.2346890  13.2186170
  54.7972190  74.6228600  12.7001280  55.7677940  74.9297180  13.8207100
  41.6845190  70.7040260  13.7820240  41.6863630  71.2212650  12.9766140
  40.8549500  70.2270440  13.7590170  48.0716280  80.8159570   5.2810140
  47.4533550  81.2809020   4.7172860  48.5839530  81.5087050   5.6979650
  42.9348040  80.3435440  11.9593740  42.6017420  80.9704360  12.6014810
  43.1114720  80.8697320  11.1795410  51.4481950  74.1580520   9.4270080
  50.7437520  74.4465410  10.0073190  51.8094110  74.9680630   9.0669640
  41.3660520  72.4150220  11.7890690  41.7077330  73.2592270  11.4944560
  40.4276330  72.5633960  11.9056030  42.1467140  82.3116240  13.7742920
  42.7641140  82.9867320  13.4927370  41.2860260  82.7204220  13.6830420
  37.4399480  81.5016100   2.6549770  37.0627460  81.9903200   1.9234670
  37.6972550  82.1741380   3.2856300  53.0644730  83.7755650  11.6897560
  52.3808250  84.4454760  11.6814230  53.6039020  83.9736300  10.9242420
  54.5168870  73.6035310   9.8179290  53.5693780  73.6374290   9.9494720
  54.8418860  74.4174260  10.2028650  45.0488410  69.9032490   8.1135280
  45.3563390  69.3479380   7.3970780  44.1189110  70.0376950   7.9308270
  50.6003470  85.6199780  10.4042740  50.6130630  85.2162070   9.5365000
  50.0478690  86.3947070  10.3004170  51.8948890  82.3416000   5.4932910
  51.7845220  81.3990330   5.6182330  51.8917140  82.7031640   6.3795670
  49.9988910  80.5229620  11.7325350  50.4157700  80.3089730  10.8978810
  50.7228730  80.7802410  12.3033970  47.4369170  77.9681320   4.8495400
  46.5098450  77.9018700   5.0783870  47.5893990  78.9061450   4.7350640
  53.9451010  78.9216840  11.8241590  53.1169640  78.9909930  11.3491720
  54.5401490  79.5071150  11.3557420  51.4666460  79.5301620   5.3530650
  50.8478880  79.1921170   4.7056950  51.4490910  78.8861380   6.0609840
  50.9093020  75.7086160  12.7696460  50.4964200  76.5339870  13.0236450
  50.1768970  75.1231200  12.5772820  43.0425810  78.4946060   7.6315130
  42.6382810  77.7823310   7.1361030  43.1288930  78.1499300   8.5203170
  43.5107510  82.1813620   9.7954340  43.2135800  81.5759090   9.1162120
  44.4607330  82.2190930   9.6843700  41.7554430  75.2689270  11.4114170
  42.3069020  75.3784610  10.6367420  42.2697940  75.6426870  12.1269400
  51.5993120  85.7545490  13.4577440  51.1223680  86.5617680  13.2650050
  50.9154910  85.1023820  13.6103650  42.6025940  81.9195310  16.4462140
  41.7054470  82.1435280  16.6935540  42.6278810  82.0430250  15.4973540
  49.6431160  78.7688430   2.3603400  50.0824440  77.9310860   2.2141220
  50.3559580  79.4017830   2.4467540  41.4297160  78.7908630  15.0219510
  41.2904930  79.6631430  15.3906910  40.5478520  78.4481440  14.8767450
  47.7526540  83.7084500   6.3284640  48.1922450  84.4508830   5.9140030
  47.6913430  83.9511070   7.2523600  43.2277510  84.7330330  17.2304660
  43.1992940  85.1373280  16.3633090  43.0642480  83.8040690  17.0676260
  39.7430440  77.3891040   5.1321780  39.6228040  78.1153130   4.5203050
  39.4331330  76.6193950   4.6549690  55.1792330  85.5157430  18.5268830
  55.6552050  85.9940320  19.2057910  55.7999490  85.4474920  17.8014330
  37.3815810  80.5606180  10.9390420  37.4596230  80.6954950   9.9946140
  37.9957490  79.8522070  11.1318540  38.6263440  82.2606370   7.3496600
  38.2191520  82.4020960   6.4950200  39.5176450  81.9766530   7.1467810
  54.5825580  82.7070280  15.6868840  54.7088640  82.4682160  14.7686020
  54.6246960  81.8754820  16.1590920  48.4442320  86.4098280  14.2563650
  48.9586990  86.3206290  15.0586080  47.6011400  86.7557980  14.5491560
  50.4196720  86.6953620   3.6847650  50.2597860  86.4056560   4.5829480
  50.2543430  85.9193750   3.1492880  42.8985100  86.4752150   5.4619270
  42.7227580  85.5587690   5.2487070  42.0440840  86.8339440   5.7017070
  49.6872780  85.8303890   6.3194140  50.1429730  85.0493270   6.6332760
  50.0265300  86.5410710   6.8635320  54.4349590  74.7602740  16.6518580
  53.8193860  75.2682410  16.1234040  54.1146010  73.8601070  16.5944520
  37.4375330  81.6020350  13.4784880  37.6006370  81.1325710  12.6604250
  37.9027780  81.0943910  14.1433720  42.2094100  70.7326110   8.5145450
  41.7662250  71.5135650   8.1829970  42.7679090  71.0556000   9.2216390
  46.4963910  73.5994630  14.1180770  46.0343280  73.8077650  14.9300710
  46.0942020  72.7853980  13.8151440  51.4968420  74.8203580  15.2477430
  50.6462010  74.5209330  15.5686500  51.3370210  75.0645590  14.3361250
  48.5918130  76.3205330  17.3476220  48.9171540  75.4869080  17.0078450
  49.3798460  76.8433850  17.4954550  45.3252920  70.3536810   3.3951280
  44.7007100  70.3496680   4.1204590  45.2383040  69.4867770   2.9987250
  44.2470000  71.2773440  10.3735050  44.5442330  72.1836270  10.2927070
  44.7955560  70.7892220   9.7594620  42.0008320  75.8559680   6.2426700
  41.7749240  75.6396850   7.1473320  41.2200850  76.2888140   5.8972670
  49.2306080  75.8623050   4.8417350  48.6314970  76.5858850   4.6580970
  49.7785690  75.7999830   4.0593800  44.4407530  76.7545260  16.9086970
  44.3451130  75.8139990  16.7587370  45.2839510  76.9760330  16.5135040
  47.8370950  74.4986590   6.8720630  48.2300520  74.8158790   6.0589320
  48.1987800  73.6198470   6.9865150  39.5718070  73.1658930  15.0620750
  39.1781460  74.0134140  15.2693530  38.8836470  72.5285300  15.2529390
  46.1463120  73.2493900  18.1317490  45.4561440  73.0566100  18.7663580
  46.8895420  73.5328540  18.6641790  36.8735120  71.0887390   9.0950830
  36.5848170  71.6590250   9.8075810  37.6180880  70.6091840   9.4582060
  48.4226090  77.0892340  10.9671410  47.6907210  77.5979150  11.3161510
  48.0250430  76.2722320  10.6660190  44.8603480  73.7646540   9.3723900
  44.8639540  73.3236490   8.5228440  45.7554600  74.0863870   9.4795720
  40.7105860  73.6473030   8.3318110  40.3705910  74.1248260   9.0885160
  39.9483180  73.1938150   7.9719210  44.9223630  74.7658620   2.3630660
  45.0436450  74.7245100   3.3116480  44.5372140  75.6282770   2.2077390
  48.8852000  72.5426020  10.3794350  48.9024740  72.9934670  11.2236200
  48.6367580  71.6431660  10.5927790  52.3122750  69.9558200  16.2180730
  52.6368520  69.2247860  16.7438710  52.3479260  69.6371840  15.3161720
  39.0114310  80.9771780  15.6380690  38.6269100  80.3365450  16.2363650
  39.3226500  81.6807900  16.2075420  45.1611450  77.8248320  11.1189310
  45.5281580  77.3506890  11.8650650  44.9716510  78.6989890  11.4597650
  38.0251940  72.5692010   7.2482780  37.7398860  72.2047680   8.0861400
  37.9630800  71.8372470   6.6345920  42.9510820  76.8656960  13.4373520
  42.6467890  77.7448940  13.6623880  43.9057280  76.9256750  13.4730960
  41.4792610  81.0717950   4.0340370  40.7054870  80.5315570   3.8739090
  42.2087240  80.5524560   3.6958130  52.2380590  80.0683310   9.8266760
  52.9579710  80.5638600   9.4362870  52.0362410  79.3901200   9.1820630
  47.6990530  71.4621270   3.9696150  46.8855140  70.9634440   3.8941460
  47.5052480  72.3019520   3.5532500  47.6199390  80.1392370  15.7135760
  47.5536700  79.2188040  15.4593350  46.9904530  80.2367810  16.4280400
  50.4138920  75.8340920   2.2658310  51.3018540  76.1458150   2.0909650
  50.3844010  74.9613170   1.8738890  41.5230010  80.7398330   7.6719180
  42.0408680  79.9366590   7.6176070  41.0714030  80.6777470   8.5136010
  46.4099510  82.0064610   2.9446480  46.7515210  82.7506840   2.4489800
  45.5812220  82.3195730   3.3071310  39.0074550  77.7059700  14.5844880
  38.6489490  78.3713550  15.1718220  38.7129110  76.8743250  14.9557500
  42.2087670  78.1643940  17.4684430  41.9087810  78.3101120  16.5712250
  42.9798910  77.6049230  17.3757820  47.5516120  82.9612940  15.4639560
  47.5660660  82.0293900  15.2458470  46.8441220  83.0472700  16.1029330
  53.7627330  79.6020280  14.8108140  53.0375520  80.1949060  14.6137530
  54.2902790  79.5943820  14.0121510  53.7140440  83.9995020   4.4620300
  53.0716600  83.3450640   4.7364020  53.3271100  84.4050110   3.6860970
  49.2926920  81.3280450   8.3091990  49.6450740  80.7308580   7.6493360
  48.4089250  81.0024680   8.4800240  45.3790200  82.0878140   5.7162400
  46.0661330  82.6347350   6.0969990  44.5922620  82.6318870   5.7512010
  44.6817410  79.0924170   5.3287760  45.1380190  79.9029420   5.5547950
  44.3305620  78.7747310   6.1606250  46.9850020  84.6030510  12.5580060
  47.6292240  84.8089890  13.2353480  47.3479460  83.8418910  12.1050910
  40.5829190  69.4361820   5.8010280  40.4543820  69.4279720   6.7495200
  39.7591210  69.7744910   5.4501290  48.2582100  82.6062860  11.2757510
  48.9004330  81.9056020  11.3889680  48.7831450  83.3861300  11.0954400
  50.0319720  83.4057760  14.4793570  50.3675960  83.9924450  15.1571490
  49.1120060  83.2750470  14.7091360  37.5823120  71.1952940  15.2616980
  36.8681640  71.3949860  15.8669590  38.0018160  70.4192510  15.6331780
  51.6854070  80.8083420   2.6610810  51.3975770  81.2696110   3.4488690
  52.4806240  80.3481190   2.9295030  37.8695710  85.1833200  16.2483510
  37.9786830  84.2427940  16.1078900  37.2176270  85.4487950  15.5997240
  45.8608300  83.4549090  17.6481630  45.5405170  82.7358330  18.1927320
  45.1866660  84.1304160  17.7217690  43.9022470  84.3009540   2.5914780
  43.8932570  85.0339230   1.9759290  42.9820830  84.0541120   2.6841740
  39.5029110  79.5224430   3.3361540  38.8957060  80.2623330   3.3456840
  39.9778460  79.6123790   2.5099740  49.0761900  73.6875250  13.0118430
  49.4442720  72.8670460  13.3398000  48.2160100  73.7477140  13.4274080
  52.4423930  72.6432190   3.8205990  51.8137090  72.7477860   3.1064220
  51.9475850  72.8628970   4.6099870  44.4107960  74.9218140   5.2363870
  43.7024110  75.3904480   5.6777480  44.6952440  74.2640150   5.8709060
  46.0363890  76.3414840  13.2356400  46.5349140  76.8160660  13.9008250
  46.1786840  75.4178360  13.4426430  48.4423390  71.6468800   6.6759660
  48.3191170  71.6654930   5.7269170  49.3907950  71.6947740   6.7958060
  45.5300180  86.8824100   5.9487640  45.7841680  86.8445490   5.0267010
  44.5812660  86.7557430   5.9415890  42.6142980  73.2303220   2.6114580
  43.4633510  73.6673370   2.5454770  42.2474250  73.5423480   3.4386640
  53.2430750  72.5582800  14.0784790  52.7404350  73.2988200  14.4178600
  54.0587410  72.9466800  13.7621580  51.5352760  77.8015980   7.5246150
  50.5942900  77.8166210   7.6993840  51.8496830  77.0151940   7.9706450
  40.2081160  76.9160650   1.7683000  40.2884750  75.9688160   1.8800400
  41.1000910  77.2467530   1.8743660  53.5378340  84.9724830   9.2000410
  53.6625760  85.7956000   9.6724220  54.4043900  84.7615560   8.8524560
  41.0095870  87.0656040   8.8717540  41.7458350  86.5171500   9.1426110
  41.3936790  87.9312050   8.7323530  37.8941350  83.1329610   4.7459050
  36.9681130  83.3750750   4.7364460  38.3597780  83.9603870   4.6243800
  40.0154150  86.2502110  18.0603120  40.8166880  86.5714160  18.4738520
  39.5005970  85.8897690  18.7823030  48.8518780  82.3581980  18.0078530
  48.2456940  82.3813580  17.2674280  48.5472890  81.6265020  18.5445780
  50.2819150  86.0862270  16.6187940  51.2340900  86.0020290  16.5688180
  50.1347370  86.7503980  17.2921730  37.7351960  78.7375570  17.0039170
  38.2390980  78.1582850  17.5755400  36.9959380  79.0215800  17.5415540
  44.7889900  80.1446560  16.5374690  44.0235570  80.7131560  16.4529360
  44.9705860  79.8522770  15.6442920  51.9313250  81.8751890  17.0949710
  52.6722720  82.2127650  16.5917170  51.1685930  82.0443950  16.5419480
  39.7675040  76.8805160  17.8989240  39.8080380  76.5819030  18.8074470
  40.6220540  77.2812770  17.7396760  43.5453430  79.4800710   3.0592750
  43.9669850  79.3140580   3.9024140  43.6704270  78.6700940   2.5647890
  41.7080850  75.4597260  15.8663730  41.1777310  74.9688210  15.2387070
  42.3768920  75.8881460  15.3321660  50.6058910  79.9266720  15.6304920
  51.0199930  80.0811800  16.4795340  49.6709910  80.0521940  15.7930700
  51.0781080  77.2662880  17.6344070  51.6601850  76.5115200  17.5464550
  51.2542850  77.7970320  16.8575550  42.1953150  72.4259630  15.9461020
  42.1010020  71.8080380  15.2211890  41.6150540  73.1525920  15.7190930
  44.9614590  70.9832870  12.9788410  44.5131890  71.0057130  12.1333960
  44.3279790  70.5851890  13.5758710  45.3674140  79.8787200  13.6000850
  45.7862250  80.7219930  13.4277090  44.4482770  80.0159240  13.3707630
  47.7038040  77.6103380  14.9838690  47.8234250  77.0144520  15.7233530
  48.5632040  77.6473070  14.5639990  50.0425940  78.1640570  13.5601200
  49.5161160  78.6883190  12.9566340  50.3857280  78.7967960  14.1910930
  43.2181560  86.1840210  14.7158580  42.6802650  86.9086270  14.3967280
  43.4715520  85.7070550  13.9255920  44.4706810  74.1524730  16.2414510
  45.0606500  73.8440580  16.9292330  43.6527050  73.6804480  16.3974410
  49.2900240  73.7690540  16.4747530  48.6015760  73.1072080  16.4097520
  50.0106260  73.3228810  16.9195990  49.9200640  70.3642170   2.5337790
  50.2002930  69.5210070   2.8897210  49.1466370  70.5965280   3.0476540
  46.0743770  87.4191420  14.9745230  46.0002470  88.3226560  15.2817600
  45.1722610  87.1003320  14.9467300  46.6229100  86.5849930   2.5971590
  47.5179890  86.9234900   2.6190350  46.6546730  85.8629340   1.9695870
  37.4771060  84.7466010   8.2778850  37.8074070  83.8787070   8.0457490
  37.9062060  84.9524530   9.1083810  42.0732980  83.0775020   5.9380820
  41.7728520  82.9539990   6.8384730  41.9670470  82.2183610   5.5296550
  37.9661270  85.6136600  11.0160480  37.5292260  85.7937400  11.8484630
  38.5338950  86.3711220  10.8742200  53.6023450  85.1153600  15.3037790
  53.0025440  85.1746160  14.5601710  53.7317350  84.1758580  15.4334640
  54.2981360  79.6018900   3.1441700  55.0600270  80.1715550   3.2501390
  54.3135730  79.0346100   3.9150010  37.7985700  78.1256830   7.3749360
  37.1434540  77.8568470   6.7309060  38.6363650  78.0161310   6.9251340
  55.3041330  80.4569000   7.9883630  55.6750160  79.6736320   7.5819600
  55.9443260  81.1458100   7.8100930  52.2875090  81.8405580  13.4013950
  51.4734930  82.2702740  13.6639740  52.6949290  82.4523990  12.7883000
  54.2465870  77.8322260   5.2943650  53.8709470  77.0650190   4.8624940
  53.5168990  78.2144960   5.7818580  38.8361630  78.5109400  11.9152700
  39.2034670  78.4236800  12.7948720  38.2672450  77.7475950  11.8159560
  53.6365490  76.9793780  14.9283170  53.4051580  76.7506530  14.0281120
  53.8970040  77.8993330  14.8828060  38.3877630  75.4218490  15.8211120
  37.4933680  75.3885250  16.1604830  38.9275180  75.6205280  16.5862370
  52.0753560  72.2050210  17.7062870  52.9523740  72.2133610  18.0896870
  52.0874400  71.4681050  17.0955220  37.0123780  75.3355760   3.3174690
  36.1087860  75.5985960   3.1426350  37.4964400  75.6066930   2.5374650
  53.5216830  76.0579750   8.5950890  54.0454310  75.5642400   7.9641060
  54.1076250  76.1930110   9.3398460  53.7006550  76.1419620  12.1170440
  52.7509260  76.1083160  12.2315430  53.8819560  77.0519730  11.8820210
  53.0116800  75.3153100   4.5343300  53.5075920  75.0823970   5.3192180
  52.8132870  74.4764940   4.1180940  38.8917340  69.6966820  10.1694340
  39.5393530  69.1464200   9.7289500  39.3119180  69.9509970  10.9910150
  54.4403960  73.9514050   7.0680980  54.3303240  73.7970090   8.0063250
  55.2011550  73.4234990   6.8256390  52.7869680  69.8908180  13.5263980
  53.4241900  70.5042320  13.8923170  52.9344570  69.9268840  12.5813210
  55.4032720  72.5532630   2.9343830  54.6084220  72.4877750   3.4636740
  55.6076000  73.4883270   2.9229180  52.3451140  86.5924180   6.9282220
  52.9410210  86.2708750   6.2516640  52.6029290  86.1196000   7.7195490
  38.6449340  69.8522490  12.9119660  38.2964160  70.3086310  13.6777840
  38.3137040  68.9579620  12.9942090  40.2513710  83.0242090  17.0772850
  40.2083340  82.6535000  17.9587310  40.3824720  83.9619660  17.2174670
  43.9519740  84.5801680  12.6782570  43.7111100  84.8476240  11.7913090
  44.8922380  84.7507410  12.7333430  46.1574160  71.0434370  16.4339080
  46.0963050  71.6356200  17.1834490  47.0974540  70.9360330  16.2889340
  48.7948720  70.7004430  16.0731370  49.4089130  71.0183720  15.4112450
  49.3398280  70.2153020  16.6927230  55.2123900  86.5996060  13.4793210
  54.7182180  86.9964930  12.7620340  54.6037190  85.9745270  13.8730490
  39.3169980  69.3798690  16.1870430  39.8652970  69.1986740  15.4236540
  39.3825290  68.5892800  16.7226740  40.0901740  85.9704340  14.1970630
  39.4962060  85.8389040  14.9360670  40.0825580  85.1342480  13.7312730
  49.5356760  69.2636570  12.4000660  48.6616600  69.5971680  12.1973590
  49.4267510  68.7909750  13.2252530  50.4428740  71.4707440  13.7842380
  50.1142100  70.6559200  13.4044110  51.3911040  71.4277250  13.6608070
  52.8963350  87.2419480  10.7579950  52.4366320  87.9935290  10.3837970
  52.2675810  86.5225950  10.6994750  39.7213970  83.3362720  13.1478670
  38.9948030  82.7168010  13.0804620  39.7823120  83.7303330  12.2776750
  43.3259070  85.5507720   9.9328080  43.8424090  84.9395080   9.4076340
  43.9756450  86.0536500  10.4239090  46.0654570  86.4416210  10.7597060
  46.3532380  86.1870510   9.8830070  46.5777790  85.8893570  11.3502630
  47.2831580  70.1806410  11.3393570  46.5003370  70.6551910  11.6190330
  46.9894510  69.2761240  11.2306750  51.8352650  70.8829510   9.3842660
  52.2760740  70.8274610   8.5364260  51.5660240  71.7987520   9.4552840
  53.6991220  70.5144750   7.3951480  53.6379620  69.5705970   7.2482500
  54.4783250  70.6224840   7.9404940  38.0043970  86.6537110   6.3575430
  37.8366010  86.0207790   7.0557320  37.1378480  86.8596510   6.0069620
  38.6271990  70.4853890   3.8607290  39.3851350  70.5982770   3.2871320
  38.1649160  71.3223090   3.8150720  45.1685800  72.5993160   6.8509600
  44.3560310  72.2250050   6.5105480  45.6727440  71.8438240   7.1530790
  49.6710780  69.2635610   8.0892670  50.2740150  69.8355820   8.5641190
  48.9303770  69.8275050   7.8666570  52.8145380  69.6657170   3.3632950
  53.0096010  70.5640620   3.6300380  52.0275250  69.4344250   3.8565900
  39.6106670  85.3470340   3.8025570  39.0854290  85.7278370   3.0987530
  39.5351250  85.9721110   4.5235280  40.9997140  71.0117940   2.4009260
  41.5289900  70.2247740   2.2717210  41.6325460  71.6909130   2.6344790
  43.1934980  70.7493080   5.4554650  42.5637720  70.0480390   5.6224780
  42.6540120  71.5097210   5.2387810  46.1326930  87.3632310  18.1265260
  47.0594240  87.1276580  18.1701220  46.1177360  88.1904310  17.6451290
  54.3671990  86.9057880   5.1239510  54.5424180  86.2195620   4.4800430
  53.6693560  87.4304930   4.7316180  43.3190540  70.0277060  17.8907140
  43.0374810  70.5310660  17.1267960  43.7010240  69.2298810  17.5249270
  42.2099640  87.2952720   2.6774820  42.9418460  87.0112000   2.1298710
  42.4693310  87.0566000   3.5674200  41.3714430  83.4117450   2.6821150
  40.7423310  83.8802550   3.2306980  41.4862260  82.5666670   3.1167340
  49.9206000  69.4430640  18.4687610  49.8071450  69.7625250  19.3639130
  50.7375740  69.8443150  18.1724890  52.7004490  86.5902170  17.9506300
  53.4929810  86.0951400  17.7432260  52.9937640  87.2692310  18.5581910
  48.8264150  58.6879620  45.1552820  48.7458200  57.7734230  44.8844530
  48.4128570  59.1846690  44.4492530  46.9582190  60.4658640  47.0362090
  46.1824290  59.9859080  47.3260660  47.6095120  59.7864290  46.8618250
  40.9748020  60.7778450  47.9137850  40.1432900  60.5227160  48.3134360
  41.5829000  60.8489220  48.6495770  50.9789620  64.8718830  45.8161220
  50.5171150  64.1006070  46.1448390  51.7915170  64.8984900  46.3213670
  40.9549280  64.8118540  48.1095870  41.2577320  63.9216280  47.9306090
  41.6992870  65.3688760  47.8818120  39.3839970  55.7380340  41.6980240
  38.4956670  56.0796310  41.5960120  39.6681160  55.5380660  40.8061070
  37.3472980  58.3385990  47.5819940  37.9189090  57.5708190  47.5823580
  37.3474520  58.6374750  46.6726550  47.2052930  67.1576840  45.4365210
  46.5864370  67.6134340  44.8659650  48.0604710  67.3128300  45.0354910
  46.3991180  63.1415830  47.0432250  46.3299460  62.2005770  46.8821380
  47.1611040  63.2317240  47.6154820  38.5897850  53.7470350  49.3688870
  38.4100690  52.8496100  49.6491630  38.1877930  54.2942220  50.0435820
  47.4296350  55.9486210  47.2701180  47.8061170  55.0758090  47.1574850
  47.3315860  56.2844910  46.3791620  41.5601360  54.3211840  42.7318620
  41.6668110  55.2215570  43.0387380  40.6493720  54.2729810  42.4413270
  51.2120470  53.4436650  44.2029520  52.0330090  52.9533220  44.2455000
  51.2454550  54.0334310  44.9561360  39.2084520  56.2430850  47.9771210
  39.8894630  56.5069220  48.5958610  38.8932570  55.4031720  48.3109220
  43.4009090  57.2898210  47.0643800  43.9087310  57.7879180  47.7048820
  43.9322330  56.5133410  46.8883160  55.5020020  55.4603400  50.7673150
  54.7972190  55.8485110  50.2488260  55.7677940  56.1553690  51.3694080
  41.6845190  51.9296770  51.3307220  41.6863630  52.4469160  50.5253120
  40.8549500  51.4526950  51.3077150  48.0716280  62.0416080  42.8297120
  47.4533550  62.5065530  42.2659840  48.5839530  62.7343560  43.2466630
  42.9348040  61.5691950  49.5080720  42.6017420  62.1960870  50.1501790
  43.1114720  62.0953830  48.7282390  51.4481950  55.3837030  46.9757060
  50.7437520  55.6721920  47.5560170  51.8094110  56.1937140  46.6156620
  41.3660520  53.6406730  49.3377670  41.7077330  54.4848780  49.0431540
  40.4276330  53.7890470  49.4543010  42.1467140  63.5372750  51.3229900
  42.7641140  64.2123830  51.0414350  41.2860260  63.9460730  51.2317400
  37.4399480  62.7272610  40.2036750  37.0627460  63.2159710  39.4721650
  37.6972550  63.3997890  40.8343280  53.0644730  65.0012160  49.2384540
  52.3808250  65.6711270  49.2301210  53.6039020  65.1992810  48.4729400
  54.5168870  54.8291820  47.3666270  53.5693780  54.8630800  47.4981700
  54.8418860  55.6430770  47.7515630  45.0488410  51.1289000  45.6622260
  45.3563390  50.5735890  44.9457760  44.1189110  51.2633460  45.4795250
  50.6003470  66.8456290  47.9529720  50.6130630  66.4418580  47.0851980
  50.0478690  67.6203580  47.8491150  51.8948890  63.5672510  43.0419890
  51.7845220  62.6246840  43.1669310  51.8917140  63.9288150  43.9282650
  49.9988910  61.7486130  49.2812330  50.4157700  61.5346240  48.4465790
  50.7228730  62.0058920  49.8520950  47.4369170  59.1937830  42.3982380
  46.5098450  59.1275210  42.6270850  47.5893990  60.1317960  42.2837620
  47.4238250  55.4654830  39.3949540  46.4841920  55.6268790  39.4802000
  47.7421510  56.1840510  38.8485530  53.9451010  60.1473350  49.3728570
  53.1169640  60.2166440  48.8978700  54.5401490  60.7327660  48.9044400
  51.4666460  60.7558130  42.9017630  50.8478880  60.4177680  42.2543930
  51.4490910  60.1117890  43.6096820  50.9093020  56.9342670  50.3183440
  50.4964200  57.7596380  50.5723430  50.1768970  56.3487710  50.1259800
  43.0425810  59.7202570  45.1802110  42.6382810  59.0079820  44.6848010
  43.1288930  59.3755810  46.0690150  43.5107510  63.4070130  47.3441320
  43.2135800  62.8015600  46.6649100  44.4607330  63.4447440  47.2330680
  41.7554430  56.4945780  48.9601150  42.3069020  56.6041120  48.1854400
  42.2697940  56.8683380  49.6756380  51.5993120  66.9802000  51.0064420
  51.1223680  67.7874190  50.8137030  50.9154910  66.3280330  51.1590630
  49.6431160  59.9944940  39.9090380  50.0824440  59.1567370  39.7628200
  50.3559580  60.6274340  39.9954520  41.4297160  60.0165140  52.5706490
  41.2904930  60.8887940  52.9393890  40.5478520  59.6737950  52.4254430
  47.7526540  64.9341010  43.8771620  48.1922450  65.6765340  43.4627010
  47.6913430  65.1767580  44.8010580  53.2248300  51.2487750  38.2231420
  52.9120960  51.3414580  39.1230490  53.9860770  51.8268780  38.1728850
  39.7430440  58.6147550  42.6808760  39.6228040  59.3409640  42.0690030
  39.4331330  57.8450460  42.2036670  37.3815810  61.7862690  48.4877400
  37.4596230  61.9211460  47.5433120  37.9957490  61.0778580  48.6805520
  38.6263440  63.4862880  44.8983580  38.2191520  63.6277470  44.0437180
  39.5176450  63.2023040  44.6954790  54.5825580  63.9326790  53.2355820
  54.7088640  63.6938670  52.3173000  54.6246960  63.1011330  53.7077900
  48.4442320  67.6354790  51.8050630  48.9586990  67.5462800  52.6073060
  47.6011400  67.9814490  52.0978540  50.4196720  67.9210130  41.2334630
  50.2597860  67.6313070  42.1316460  50.2543430  67.1450260  40.6979860
  42.8985100  67.7008660  43.0106250  42.7227580  66.7844200  42.7974050
  42.0440840  68.0595950  43.2504050  50.1222850  65.4297690  39.7932630
  49.4288010  65.4274980  39.1334910  50.8645710  65.0057010  39.3626800
  49.6872780  67.0560400  43.8681120  50.1429730  66.2749780  44.1819740
  50.0265300  67.7667220  44.4122300  54.4349590  55.9859250  54.2005560
  53.8193860  56.4938920  53.6721020  54.1146010  55.0857580  54.1431500
  37.4375330  62.8276860  51.0271860  37.6006370  62.3582220  50.2091230
  37.9027780  62.3200420  51.6920700  42.2094100  51.9582620  46.0632430
  41.7662250  52.7392160  45.7316950  42.7679090  52.2812510  46.7703370
  46.4963910  54.8251140  51.6667750  46.0343280  55.0334160  52.4787690
  46.0942020  54.0110490  51.3638420  51.4968420  56.0460090  52.7964410
  50.6462010  55.7465840  53.1173480  51.3370210  56.2902100  51.8848230
  45.3252920  51.5793320  40.9438260  44.7007100  51.5753190  41.6691570
  45.2383040  50.7124280  40.5474230  44.2470000  52.5029950  47.9222030
  44.5442330  53.4092780  47.8414050  44.7955560  52.0148730  47.3081600
  42.0008320  57.0816190  43.7913680  41.7749240  56.8653360  44.6960300
  41.2200850  57.5144650  43.4459650  49.2306080  57.0879560  42.3904330
  48.6314970  57.8115360  42.2067950  49.7785690  57.0256340  41.6080780
  47.8370950  55.7243100  44.4207610  48.2300520  56.0415300  43.6076300
  48.1987800  54.8454980  44.5352130  39.5718070  54.3915440  52.6107730
  39.1781460  55.2390650  52.8180510  38.8836470  53.7541810  52.8016370
  36.8735120  52.3143900  46.6437810  36.5848170  52.8846760  47.3562790
  37.6180880  51.8348350  47.0069040  37.0605350  56.2564020  37.8540530
  36.9780020  57.1994780  37.9955520  36.7088410  56.1138930  36.9752880
  48.4226090  58.3148850  48.5158390  47.6907210  58.8235660  48.8648490
  48.0250430  57.4978830  48.2147170  44.8603480  54.9903050  46.9210880
  44.8639540  54.5493000  46.0715420  45.7554600  55.3120380  47.0282700
  40.7105860  54.8729540  45.8805090  40.3705910  55.3504770  46.6372140
  39.9483180  54.4194660  45.5206190  44.9223630  55.9915130  39.9117640
  45.0436450  55.9501610  40.8603460  44.5372140  56.8539280  39.7564370
  48.8852000  53.7682530  47.9281330  48.9024740  54.2191180  48.7723180
  48.6367580  52.8688170  48.1414770  43.9345130  58.3016270  39.3100940
  43.3662030  57.8534520  38.6836850  44.6434130  58.6609050  38.7766090
  39.0114310  62.2028290  53.1867670  38.6269100  61.5621960  53.7850630
  39.3226500  62.9064410  53.7562400  45.1611450  59.0504830  48.6676290
  45.5281580  58.5763400  49.4137630  44.9716510  59.9246400  49.0084630
  38.0251940  53.7948520  44.7969760  37.7398860  53.4304190  45.6348380
  37.9630800  53.0628980  44.1832900  42.9510820  58.0913470  50.9860500
  42.6467890  58.9705450  51.2110860  43.9057280  58.1513260  51.0217940
  41.4792610  62.2974460  41.5827350  40.7054870  61.7572080  41.4226070
  42.2087240  61.7781070  41.2445110  52.2380590  61.2939820  47.3753740
  52.9579710  61.7895110  46.9849850  52.0362410  60.6157710  46.7307610
  47.6990530  52.6877780  41.5183130  46.8855140  52.1890950  41.4428440
  47.5052480  53.5276030  41.1019480  47.6199390  61.3648880  53.2622740
  47.5536700  60.4444550  53.0080330  46.9904530  61.4624320  53.9767380
  50.4138920  57.0597430  39.8145290  51.3018540  57.3714660  39.6396630
  50.3844010  56.1869680  39.4225870  41.5230010  61.9654840  45.2206160
  42.0408680  61.1623100  45.1663050  41.0714030  61.9033980  46.0622990
  46.4099510  63.2321120  40.4933460  46.7515210  63.9763350  39.9976780
  45.5812220  63.5452240  40.8558290  39.0074550  58.9316210  52.1331860
  38.6489490  59.5970060  52.7205200  38.7129110  58.0999760  52.5044480
  47.5516120  64.1869450  53.0126540  47.5660660  63.2550410  52.7945450
  46.8441220  64.2729210  53.6516310  52.6853190  58.3709270  39.2825150
  52.6016910  58.8023490  38.4321590  53.4047380  58.8307620  39.7151970
  53.7627330  60.8276790  52.3595120  53.0375520  61.4205570  52.1624510
  54.2902790  60.8200330  51.5608490  53.7140440  65.2251530  42.0107280
  53.0716600  64.5707150  42.2851000  53.3271100  65.6306620  41.2347950
  49.2926920  62.5536960  45.8578970  49.6450740  61.9565090  45.1980340
  48.4089250  62.2281190  46.0287220  45.3790200  63.3134650  43.2649380
  46.0661330  63.8603860  43.6456970  44.5922620  63.8575380  43.2998990
  37.5182600  58.9307470  38.7566460  38.3877450  59.2132270  39.0402380
  37.0272920  59.7443340  38.6415270  44.6817410  60.3180680  42.8774740
  45.1380190  61.1285930  43.1034930  44.3305620  60.0003820  43.7093230
  46.9850020  65.8287020  50.1067040  47.6292240  66.0346400  50.7840460
  47.3479460  65.0675420  49.6537890  40.5829190  50.6618330  43.3497260
  40.4543820  50.6536230  44.2982180  39.7591210  51.0001420  42.9988270
  48.2582100  63.8319370  48.8244490  48.9004330  63.1312530  48.9376660
  48.7831450  64.6117810  48.6441380  52.1037820  64.1167990  38.5483630
  51.8775400  63.3998430  39.1408270  51.7134020  63.8680430  37.7105380
  50.0319720  64.6314270  52.0280550  50.3675960  65.2180960  52.7058470
  49.1120060  64.5006980  52.2578340  37.8853850  68.1434850  39.3228090
  38.2451490  68.7424190  38.6685360  37.7446190  68.6894740  40.0963120
  37.5823120  52.4209450  52.8103960  36.8681640  52.6206370  53.4156570
  38.0018160  51.6449020  53.1818760  51.6854070  62.0339930  40.2097790
  51.3975770  62.4952620  40.9975670  52.4806240  61.5737700  40.4782010
  37.8695710  66.4089710  53.7970490  37.9786830  65.4684450  53.6565880
  37.2176270  66.6744460  53.1484220  43.9022470  65.5266050  40.1401760
  43.8932570  66.2595740  39.5246270  42.9820830  65.2797630  40.2328720
  39.5029110  60.7480940  40.8848520  38.8957060  61.4879840  40.8943820
  39.9778460  60.8380300  40.0586720  49.0761900  54.9131760  50.5605410
  49.4442720  54.0926970  50.8884980  48.2160100  54.9733650  50.9761060
  52.4423930  53.8688700  41.3692970  51.8137090  53.9734370  40.6551200
  51.9475850  54.0885480  42.1586850  46.8882070  65.5894290  38.8026950
  46.9894050  65.3858280  37.8728930  45.9883810  65.3352570  39.0074730
  44.4107960  56.1474650  42.7850850  43.7024110  56.6160990  43.2264460
  44.6952440  55.4896660  43.4196040  46.0363890  57.5671350  50.7843380
  46.5349140  58.0417170  51.4495230  46.1786840  56.6434870  50.9913410
  48.4423390  52.8725310  44.2246640  48.3191170  52.8911440  43.2756150
  49.3907950  52.9204250  44.3445040  45.5300180  68.1080610  43.4974620
  45.7841680  68.0702000  42.5753990  44.5812660  67.9813940  43.4902870
  42.6142980  54.4559730  40.1601560  43.4633510  54.8929880  40.0941750
  42.2474250  54.7679990  40.9873620  53.2430750  53.7839310  51.6271770
  52.7404350  54.5244710  51.9665580  54.0587410  54.1723310  51.3108560
  51.5352760  59.0272490  45.0733130  50.5942900  59.0422720  45.2480820
  51.8496830  58.2408450  45.5193430  41.5134400  60.7092090  38.6337090
  42.2797670  60.5973450  39.1962520  41.5909090  60.0130060  37.9813860
  40.2081160  58.1417160  39.3169980  40.2884750  57.1944670  39.4287380
  41.1000910  58.4724040  39.4230640  53.5378340  66.1981340  46.7487390
  53.6625760  67.0212510  47.2211200  54.4043900  65.9872070  46.4011540
  41.0095870  68.2912550  46.4204520  41.7458350  67.7428010  46.6913090
  41.3936790  69.1568560  46.2810510  37.8941350  64.3586120  42.2946030
  36.9681130  64.6007260  42.2851440  38.3597780  65.1860380  42.1730780
  44.1198180  67.4642860  38.2430090  44.9126790  67.7531690  37.7911880
  43.6002530  67.0335030  37.5642570  53.1728350  66.6912990  39.6666830
  52.8869860  66.2778130  38.8521010  52.9747900  67.6200700  39.5467350
  44.6375580  62.6846270  38.1072440  44.5326220  62.0698620  38.8333820
  44.4699800  62.1612160  37.3235450  44.7889900  61.3703070  54.0861670
  44.0235570  61.9388070  54.0016340  44.9705860  61.0779280  53.1929900
  47.8778310  61.7466300  38.7114430  47.3288410  62.1935600  39.3557170
  48.4997570  61.2415550  39.2352100  43.5453430  60.7057220  40.6079730
  43.9669850  60.5397090  41.4511120  43.6704270  59.8957450  40.1134870
  41.7080850  56.6853770  53.4150710  41.1777310  56.1944720  52.7874050
  42.3768920  57.1137970  52.8808640  46.0581070  59.7294830  37.8556830
  46.5786730  59.0143850  37.4897980  46.7049470  60.3680700  38.1557340
  50.6058910  61.1523230  53.1791900  51.0199930  61.3068310  54.0282320
  49.6709910  61.2778450  53.3417680  42.1953150  53.6516140  53.4948000
  42.1010020  53.0336890  52.7698870  41.6150540  54.3782430  53.2677910
  44.9614590  52.2089380  50.5275390  44.5131890  52.2313640  49.6820940
  44.3279790  51.8108400  51.1245690  45.3674140  61.1043710  51.1487830
  45.7862250  61.9476440  50.9764070  44.4482770  61.2415750  50.9194610
  47.7038040  58.8359890  52.5325670  47.8234250  58.2401030  53.2720510
  48.5632040  58.8729580  52.1126970  50.0425940  59.3897080  51.1088180
  49.5161160  59.9139700  50.5053320  50.3857280  60.0224470  51.7397910
  42.4412330  56.7790450  37.5537890  42.2401390  55.9157810  37.9151230
  42.2704380  56.6923810  36.6159490  43.2181560  67.4096720  52.2645560
  42.6802650  68.1342780  51.9454260  43.4715520  66.9327060  51.4742900
  49.9200640  51.5898680  40.0824770  50.2002930  50.7466580  40.4384190
  49.1466370  51.8221790  40.5963520  41.2395130  53.8791070  37.5415770
  41.5421030  53.8858500  36.6334920  41.9789720  53.5288930  38.0383430
  46.0743770  68.6447930  52.5232210  46.0002470  69.5483070  52.8304580
  45.1722610  68.3259830  52.4954280  44.4580060  52.8225690  38.5271970
  44.1102060  52.1449680  37.9474420  44.6592830  52.3615200  39.3415360
  46.6229100  67.8106440  40.1458570  47.5179890  68.1491410  40.1677330
  46.6546730  67.0885850  39.5182850  40.2625260  63.1833490  38.3745570
  40.7000130  63.7263160  39.0303150  40.7472990  62.3580440  38.3841910
  37.4771060  65.9722520  45.8265830  37.8074070  65.1043580  45.5944470
  37.9062060  66.1781040  46.6570790  42.0732980  64.3031530  43.4867800
  41.7728520  64.1796500  44.3871710  41.9670470  63.4440120  43.0783530
  37.9661270  66.8393110  48.5647460  37.5292260  67.0193910  49.3971610
  38.5338950  67.5967730  48.4229180  53.6023450  66.3410110  52.8524770
  53.0025440  66.4002670  52.1088690  53.7317350  65.4015090  52.9821620
  54.8424900  64.0827930  38.1894480  54.0117860  64.1504580  38.6601710
  55.0196730  64.9732050  37.8861340  54.2981360  60.8275410  40.6928680
  55.0600270  61.3972060  40.7988370  54.3135730  60.2602610  41.4636990
  37.7985700  59.3513340  44.9236340  37.1434540  59.0824980  44.2796040
  38.6363650  59.2417820  44.4738320  55.3041330  61.6825510  45.5370610
  55.6750160  60.8992830  45.1306580  55.9443260  62.3714610  45.3587910
  52.2875090  63.0662090  50.9500930  51.4734930  63.4959250  51.2126720
  52.6949290  63.6780500  50.3369980  54.3500530  61.1209780  37.8501200
  54.6249370  62.0288660  37.7220420  54.1611270  61.0572310  38.7863190
  50.7476140  54.1454630  39.1454830  51.1661020  53.9585610  38.3051490
  50.4412200  53.2933680  39.4557760  54.2465870  59.0578770  42.8430630
  53.8709470  58.2906700  42.4111920  53.5168990  59.4401470  43.3305560
  38.8361630  59.7365910  49.4639680  39.2034670  59.6493310  50.3435700
  38.2672450  58.9732460  49.3646540  53.6365490  58.2050290  52.4770150
  53.4051580  57.9763040  51.5768100  53.8970040  59.1249840  52.4315040
  38.3877630  56.6475000  53.3698100  37.4933680  56.6141760  53.7091810
  38.9275180  56.8461790  54.1349350  37.0123780  56.5612270  40.8661670
  36.1087860  56.8242470  40.6913330  37.4964400  56.8323440  40.0861630
  53.5216830  57.2836260  46.1437870  54.0454310  56.7898910  45.5128040
  54.1076250  57.4186620  46.8885440  53.7006550  57.3676130  49.6657420
  52.7509260  57.3339670  49.7802410  53.8819560  58.2776240  49.4307190
  39.5550990  55.6177810  38.7756050  40.2642690  55.1961030  38.2903330
  38.8390930  55.6853040  38.1439400  39.2025150  51.6717140  37.8158700
  39.9253280  52.2126080  38.1339920  39.4749670  51.3980560  36.9400240
  53.0116800  56.5409610  42.0830280  53.5075920  56.3080480  42.8679160
  52.8132870  55.7021450  41.6667920  38.8917340  50.9223330  47.7181320
  39.5393530  50.3720710  47.2776480  39.3119180  51.1766480  48.5397130
  54.4403960  55.1770560  44.6167960  54.3303240  55.0226600  45.5550230
  55.2011550  54.6491500  44.3743370  52.7869680  51.1164690  51.0750960
  53.4241900  51.7298830  51.4410150  52.9344570  51.1525350  50.1300190
  55.3294230  53.0078480  37.8574100  56.2543540  52.8759660  37.6492390
  55.3070020  53.0871300  38.8110550  55.4032720  53.7789140  40.4830810
  54.6084220  53.7134260  41.0123720  55.6076000  54.7139780  40.4716160
  52.3451140  67.8180690  44.4769200  52.9410210  67.4965260  43.8003620
  52.6029290  67.3452510  45.2682470  38.6449340  51.0779000  50.4606640
  38.2964160  51.5342820  51.2264820  38.3137040  50.1836130  50.5429070
  43.9519740  65.8058190  50.2269550  43.7111100  66.0732750  49.3400070
  44.8922380  65.9763920  50.2820410  55.2123900  67.8252570  51.0280190
  54.7182180  68.2221440  50.3107320  54.6037190  67.2001780  51.4217470
  40.0901740  67.1960850  51.7457610  39.4962060  67.0645550  52.4847650
  40.0825580  66.3598990  51.2799710  49.5356760  50.4893080  49.9487640
  48.6616600  50.8228190  49.7460570  49.4267510  50.0166260  50.7739510
  50.4428740  52.6963950  51.3329360  50.1142100  51.8815710  50.9531090
  51.3911040  52.6533760  51.2095050  52.8963350  68.4675990  48.3066930
  52.4366320  69.2191800  47.9324950  52.2675810  67.7482460  48.2481730
  39.7213970  64.5619230  50.6965650  38.9948030  63.9424520  50.6291600
  39.7823120  64.9559840  49.8263730  43.3259070  66.7764230  47.4815060
  43.8424090  66.1651590  46.9563320  43.9756450  67.2793010  47.9726070
  46.0654570  67.6672720  48.3084040  46.3532380  67.4127020  47.4317050
  46.5777790  67.1150080  48.8989610  47.2831580  51.4062920  48.8880550
  46.5003370  51.8808420  49.1677310  46.9894510  50.5017750  48.7793730
  51.8352650  52.1086020  46.9329640  52.2760740  52.0531120  46.0851240
  51.5660240  53.0244030  47.0039820  53.6991220  51.7401260  44.9438460
  53.6379620  50.7962480  44.7969480  54.4783250  51.8481350  45.4891920
  38.0043970  67.8793620  43.9062410  37.8366010  67.2464300  44.6044300
  37.1378480  68.0853020  43.5556600  38.6271990  51.7110400  41.4094270
  39.3851350  51.8239280  40.8358300  38.1649160  52.5479600  41.3637700
  45.1685800  53.8249670  44.3996580  44.3560310  53.4506560  44.0592460
  45.6727440  53.0694750  44.7017770  49.6710780  50.4892120  45.6379650
  50.2740150  51.0612330  46.1128170  48.9303770  51.0531560  45.4153550
  52.8145380  50.8913680  40.9119930  53.0096010  51.7897130  41.1787360
  52.0275250  50.6600760  41.4052880  39.6106670  66.5726850  41.3512550
  39.0854290  66.9534880  40.6474510  39.5351250  67.1977620  42.0722260
  40.9997140  52.2374450  39.9496240  41.5289900  51.4504250  39.8204190
  41.6325460  52.9165640  40.1831770  43.1934980  51.9749590  43.0041630
  42.5637720  51.2736900  43.1711760  42.6540120  52.7353720  42.7874790
  54.3671990  68.1314390  42.6726490  54.5424180  67.4452130  42.0287410
  53.6693560  68.6561440  42.2803160  42.2099640  68.5209230  40.2261800
  42.9418460  68.2368510  39.6785690  42.4693310  68.2822510  41.1161180
  41.3714430  64.6373960  40.2308130  40.7423310  65.1059060  40.7793960
  41.4862260  63.7923180  40.6654320  39.3839970  55.7380340  22.9236750
  38.4956670  56.0796310  22.8216630  39.6681160  55.5380660  22.0317580
  51.2120470  53.4436650  25.4286030  52.0330090  52.9533220  25.4711510
  51.2454550  54.0334310  26.1817870  55.5020020  55.4603400  31.9929660
  54.7972190  55.8485110  31.4744770  55.7677940  56.1553690  32.5950590
  41.6845190  51.9296770  32.5563730  41.6863630  52.4469160  31.7509630
  40.8549500  51.4526950  32.5333660  42.1467140  63.5372750  32.5486410
  42.7641140  64.2123830  32.2670860  41.2860260  63.9460730  32.4573910
  37.4399480  62.7272610  21.4293260  37.0627460  63.2159710  20.6978160
  37.6972550  63.3997890  22.0599790  54.5168870  54.8291820  28.5922780
  53.5693780  54.8630800  28.7238210  54.8418860  55.6430770  28.9772140
  47.4238250  55.4654830  20.6206050  46.4841920  55.6268790  20.7058510
  47.7421510  56.1840510  20.0742040  50.9093020  56.9342670  31.5439950
  50.4964200  57.7596380  31.7979940  50.1768970  56.3487710  31.3516310
  42.6025940  63.1451820  35.2205630  41.7054470  63.3691790  35.4679030
  42.6278810  63.2686760  34.2717030  49.6431160  59.9944940  21.1346890
  50.0824440  59.1567370  20.9884710  50.3559580  60.6274340  21.2211030
  41.4297160  60.0165140  33.7963000  41.2904930  60.8887940  34.1650400
  40.5478520  59.6737950  33.6510940  43.2277510  65.9586840  36.0048150
  43.1992940  66.3629790  35.1376580  43.0642480  65.0297200  35.8419750
  53.2248300  51.2487750  19.4487930  52.9120960  51.3414580  20.3487000
  53.9860770  51.8268780  19.3985360  55.1792330  66.7413940  37.3012320
  55.6552050  67.2196830  37.9801400  55.7999490  66.6731430  36.5757820
  54.5825580  63.9326790  34.4612330  54.7088640  63.6938670  33.5429510
  54.6246960  63.1011330  34.9334410  48.4442320  67.6354790  33.0307140
  48.9586990  67.5462800  33.8329570  47.6011400  67.9814490  33.3235050
  50.4196720  67.9210130  22.4591140  50.2597860  67.6313070  23.3572970
  50.2543430  67.1450260  21.9236370  50.1222850  65.4297690  21.0189140
  49.4288010  65.4274980  20.3591420  50.8645710  65.0057010  20.5883310
  54.4349590  55.9859250  35.4262070  53.8193860  56.4938920  34.8977530
  54.1146010  55.0857580  35.3688010  37.4375330  62.8276860  32.2528370
  37.6006370  62.3582220  31.4347740  37.9027780  62.3200420  32.9177210
  46.4963910  54.8251140  32.8924260  46.0343280  55.0334160  33.7044200
  46.0942020  54.0110490  32.5894930  51.4968420  56.0460090  34.0220920
  50.6462010  55.7465840  34.3429990  51.3370210  56.2902100  33.1104740
  48.5918130  57.5461840  36.1219710  48.9171540  56.7125590  35.7821940
  49.3798460  58.0690360  36.2698040  45.3252920  51.5793320  22.1694770
  44.7007100  51.5753190  22.8948080  45.2383040  50.7124280  21.7730740
  44.4407530  57.9801770  35.6830460  44.3451130  57.0396500  35.5330860
  45.2839510  58.2016840  35.2878530  39.5718070  54.3915440  33.8364240
  39.1781460  55.2390650  34.0437020  38.8836470  53.7541810  34.0272880
  46.1463120  54.4750410  36.9060980  45.4561440  54.2822610  37.5407070
  46.8895420  54.7585050  37.4385280  37.0605350  56.2564020  19.0797040
  36.9780020  57.1994780  19.2212030  36.7088410  56.1138930  18.2009390
  44.9223630  55.9915130  21.1374150  45.0436450  55.9501610  22.0859970
  44.5372140  56.8539280  20.9820880  43.9345130  58.3016270  20.5357450
  43.3662030  57.8534520  19.9093360  44.6434130  58.6609050  20.0022600
  52.3122750  51.1814710  34.9924220  52.6368520  50.4504370  35.5182200
  52.3479260  50.8628350  34.0905210  39.0114310  62.2028290  34.4124180
  38.6269100  61.5621960  35.0107140  39.3226500  62.9064410  34.9818910
  42.9510820  58.0913470  32.2117010  42.6467890  58.9705450  32.4367370
  43.9057280  58.1513260  32.2474450  41.4792610  62.2974460  22.8083860
  40.7054870  61.7572080  22.6482580  42.2087240  61.7781070  22.4701620
  47.6990530  52.6877780  22.7439640  46.8855140  52.1890950  22.6684950
  47.5052480  53.5276030  22.3275990  47.6199390  61.3648880  34.4879250
  47.5536700  60.4444550  34.2336840  46.9904530  61.4624320  35.2023890
  50.4138920  57.0597430  21.0401800  51.3018540  57.3714660  20.8653140
  50.3844010  56.1869680  20.6482380  46.4099510  63.2321120  21.7189970
  46.7515210  63.9763350  21.2233290  45.5812220  63.5452240  22.0814800
  39.0074550  58.9316210  33.3588370  38.6489490  59.5970060  33.9461710
  38.7129110  58.0999760  33.7300990  42.2087670  59.3900450  36.2427920
  41.9087810  59.5357630  35.3455740  42.9798910  58.8305740  36.1501310
  47.5516120  64.1869450  34.2383050  47.5660660  63.2550410  34.0201960
  46.8441220  64.2729210  34.8772820  52.6853190  58.3709270  20.5081660
  52.6016910  58.8023490  19.6578100  53.4047380  58.8307620  20.9408480
  53.7627330  60.8276790  33.5851630  53.0375520  61.4205570  33.3881020
  54.2902790  60.8200330  32.7865000  53.7140440  65.2251530  23.2363790
  53.0716600  64.5707150  23.5107510  53.3271100  65.6306620  22.4604460
  37.5182600  58.9307470  19.9822970  38.3877450  59.2132270  20.2658890
  37.0272920  59.7443340  19.8671780  52.1037820  64.1167990  19.7740140
  51.8775400  63.3998430  20.3664780  51.7134020  63.8680430  18.9361890
  50.0319720  64.6314270  33.2537060  50.3675960  65.2180960  33.9314980
  49.1120060  64.5006980  33.4834850  37.8853850  68.1434850  20.5484600
  38.2451490  68.7424190  19.8941870  37.7446190  68.6894740  21.3219630
  37.5823120  52.4209450  34.0360470  36.8681640  52.6206370  34.6413080
  38.0018160  51.6449020  34.4075270  51.6854070  62.0339930  21.4354300
  51.3975770  62.4952620  22.2232180  52.4806240  61.5737700  21.7038520
  37.8695710  66.4089710  35.0227000  37.9786830  65.4684450  34.8822390
  37.2176270  66.6744460  34.3740730  45.8608300  64.6805600  36.4225120
  45.5405170  63.9614840  36.9670810  45.1866660  65.3560670  36.4961180
  43.9022470  65.5266050  21.3658270  43.8932570  66.2595740  20.7502780
  42.9820830  65.2797630  21.4585230  39.5029110  60.7480940  22.1105030
  38.8957060  61.4879840  22.1200330  39.9778460  60.8380300  21.2843230
  52.4423930  53.8688700  22.5949480  51.8137090  53.9734370  21.8807710
  51.9475850  54.0885480  23.3843360  46.8882070  65.5894290  20.0283460
  46.9894050  65.3858280  19.0985440  45.9883810  65.3352570  20.2331240
  42.6142980  54.4559730  21.3858070  43.4633510  54.8929880  21.3198260
  42.2474250  54.7679990  22.2130130  53.2430750  53.7839310  32.8528280
  52.7404350  54.5244710  33.1922090  54.0587410  54.1723310  32.5365070
  41.5134400  60.7092090  19.8593600  42.2797670  60.5973450  20.4219030
  41.5909090  60.0130060  19.2070370  40.2081160  58.1417160  20.5426490
  40.2884750  57.1944670  20.6543890  41.1000910  58.4724040  20.6487150
  40.0154150  67.4758620  36.8346610  40.8166880  67.7970670  37.2482010
  39.5005970  67.1154200  37.5566520  44.1198180  67.4642860  19.4686600
  44.9126790  67.7531690  19.0168390  43.6002530  67.0335030  18.7899080
  48.8518780  63.5838490  36.7822020  48.2456940  63.6070090  36.0417770
  48.5472890  62.8521530  37.3189270  50.2819150  67.3118780  35.3931430
  51.2340900  67.2276800  35.3431670  50.1347370  67.9760490  36.0665220
  53.1728350  66.6912990  20.8923340  52.8869860  66.2778130  20.0777520
  52.9747900  67.6200700  20.7723860  37.7351960  59.9632080  35.7782660
  38.2390980  59.3839360  36.3498890  36.9959380  60.2472310  36.3159030
  44.6375580  62.6846270  19.3328950  44.5326220  62.0698620  20.0590330
  44.4699800  62.1612160  18.5491960  44.7889900  61.3703070  35.3118180
  44.0235570  61.9388070  35.2272850  44.9705860  61.0779280  34.4186410
  47.8778310  61.7466300  19.9370940  47.3288410  62.1935600  20.5813680
  48.4997570  61.2415550  20.4608610  51.9313250  63.1008400  35.8693200
  52.6722720  63.4384160  35.3660660  51.1685930  63.2700460  35.3162970
  39.7675040  58.1061670  36.6732730  39.8080380  57.8075540  37.5817960
  40.6220540  58.5069280  36.5140250  43.5453430  60.7057220  21.8336240
  43.9669850  60.5397090  22.6767630  43.6704270  59.8957450  21.3391380
  41.7080850  56.6853770  34.6407220  41.1777310  56.1944720  34.0130560
  42.3768920  57.1137970  34.1065150  46.0581070  59.7294830  19.0813340
  46.5786730  59.0143850  18.7154490  46.7049470  60.3680700  19.3813850
  50.6058910  61.1523230  34.4048410  51.0199930  61.3068310  35.2538830
  49.6709910  61.2778450  34.5674190  51.0781080  58.4919390  36.4087560
  51.6601850  57.7371710  36.3208040  51.2542850  59.0226830  35.6319040
  42.1953150  53.6516140  34.7204510  42.1010020  53.0336890  33.9955380
  41.6150540  54.3782430  34.4934420  44.9614590  52.2089380  31.7531900
  44.5131890  52.2313640  30.9077450  44.3279790  51.8108400  32.3502200
  45.3674140  61.1043710  32.3744340  45.7862250  61.9476440  32.2020580
  44.4482770  61.2415750  32.1451120  47.7038040  58.8359890  33.7582180
  47.8234250  58.2401030  34.4977020  48.5632040  58.8729580  33.3383480
  50.0425940  59.3897080  32.3344690  49.5161160  59.9139700  31.7309830
  50.3857280  60.0224470  32.9654420  42.4412330  56.7790450  18.7794400
  42.2401390  55.9157810  19.1407740  42.2704380  56.6923810  17.8416000
  43.2181560  67.4096720  33.4902070  42.6802650  68.1342780  33.1710770
  43.4715520  66.9327060  32.6999410  44.4706810  55.3781240  35.0158000
  45.0606500  55.0697090  35.7035820  43.6527050  54.9060990  35.1717900
  49.2900240  54.9947050  35.2491020  48.6015760  54.3328590  35.1841010
  50.0106260  54.5485320  35.6939480  49.9200640  51.5898680  21.3081280
  50.2002930  50.7466580  21.6640700  49.1466370  51.8221790  21.8220030
  41.2395130  53.8791070  18.7672280  41.5421030  53.8858500  17.8591430
  41.9789720  53.5288930  19.2639940  46.0743770  68.6447930  33.7488720
  46.0002470  69.5483070  34.0561090  45.1722610  68.3259830  33.7210790
  44.4580060  52.8225690  19.7528480  44.1102060  52.1449680  19.1730930
  44.6592830  52.3615200  20.5671870  46.6229100  67.8106440  21.3715080
  47.5179890  68.1491410  21.3933840  46.6546730  67.0885850  20.7439360
  40.2625260  63.1833490  19.6002080  40.7000130  63.7263160  20.2559660
  40.7472990  62.3580440  19.6098420  53.6023450  66.3410110  34.0781280
  53.0025440  66.4002670  33.3345200  53.7317350  65.4015090  34.2078130
  54.8424900  64.0827930  19.4150990  54.0117860  64.1504580  19.8858220
  55.0196730  64.9732050  19.1117850  54.2981360  60.8275410  21.9185190
  55.0600270  61.3972060  22.0244880  54.3135730  60.2602610  22.6893500
  54.3500530  61.1209780  19.0757710  54.6249370  62.0288660  18.9476930
  54.1611270  61.0572310  20.0119700  50.7476140  54.1454630  20.3711340
  51.1661020  53.9585610  19.5308000  50.4412200  53.2933680  20.6814270
  54.2465870  59.0578770  24.0687140  53.8709470  58.2906700  23.6368430
  53.5168990  59.4401470  24.5562070  53.6365490  58.2050290  33.7026660
  53.4051580  57.9763040  32.8024610  53.8970040  59.1249840  33.6571550
  38.3877630  56.6475000  34.5954610  37.4933680  56.6141760  34.9348320
  38.9275180  56.8461790  35.3605860  52.0753560  53.4306720  36.4806360
  52.9523740  53.4390120  36.8640360  52.0874400  52.6937560  35.8698710
  53.5216830  57.2836260  27.3694380  54.0454310  56.7898910  26.7384550
  54.1076250  57.4186620  28.1141950  53.7006550  57.3676130  30.8913930
  52.7509260  57.3339670  31.0058920  53.8819560  58.2776240  30.6563700
  39.5550990  55.6177810  20.0012560  40.2642690  55.1961030  19.5159840
  38.8390930  55.6853040  19.3695910  39.2025150  51.6717140  19.0415210
  39.9253280  52.2126080  19.3596430  39.4749670  51.3980560  18.1656750
  53.0116800  56.5409610  23.3086790  53.5075920  56.3080480  24.0935670
  52.8132870  55.7021450  22.8924430  54.4403960  55.1770560  25.8424470
  54.3303240  55.0226600  26.7806740  55.2011550  54.6491500  25.5999880
  52.7869680  51.1164690  32.3007470  53.4241900  51.7298830  32.6666660
  52.9344570  51.1525350  31.3556700  55.3294230  53.0078480  19.0830610
  56.2543540  52.8759660  18.8748900  55.3070020  53.0871300  20.0367060
  55.4032720  53.7789140  21.7087320  54.6084220  53.7134260  22.2380230
  55.6076000  54.7139780  21.6972670  38.6449340  51.0779000  31.6863150
  38.2964160  51.5342820  32.4521330  38.3137040  50.1836130  31.7685580
  40.2513710  64.2498600  35.8516340  40.2083340  63.8791510  36.7330800
  40.3824720  65.1876170  35.9918160  43.9519740  65.8058190  31.4526060
  43.7111100  66.0732750  30.5656580  44.8922380  65.9763920  31.5076920
  46.1574160  52.2690880  35.2082570  46.0963050  52.8612710  35.9577980
  47.0974540  52.1616840  35.0632830  48.7948720  51.9260940  34.8474860
  49.4089130  52.2440230  34.1855940  49.3398280  51.4409530  35.4670720
  39.3169980  50.6055200  34.9613920  39.8652970  50.4243250  34.1980030
  39.3825290  49.8149310  35.4970230  40.0901740  67.1960850  32.9714120
  39.4962060  67.0645550  33.7104160  40.0825580  66.3598990  32.5056220
  50.4428740  52.6963950  32.5585870  50.1142100  51.8815710  32.1787600
  51.3911040  52.6533760  32.4351560  39.7213970  64.5619230  31.9222160
  38.9948030  63.9424520  31.8548110  39.7823120  64.9559840  31.0520240
  53.6991220  51.7401260  26.1694970  53.6379620  50.7962480  26.0225990
  54.4783250  51.8481350  26.7148430  38.6271990  51.7110400  22.6350780
  39.3851350  51.8239280  22.0614810  38.1649160  52.5479600  22.5894210
  52.8145380  50.8913680  22.1376440  53.0096010  51.7897130  22.4043870
  52.0275250  50.6600760  22.6309390  39.6106670  66.5726850  22.5769060
  39.0854290  66.9534880  21.8731020  39.5351250  67.1977620  23.2978770
  40.9997140  52.2374450  21.1752750  41.5289900  51.4504250  21.0460700
  41.6325460  52.9165640  21.4088280  46.1326930  68.5888820  36.9008750
  47.0594240  68.3533090  36.9444710  46.1177360  69.4160820  36.4194780
  54.3671990  68.1314390  23.8983000  54.5424180  67.4452130  23.2543920
  53.6693560  68.6561440  23.5059670  43.3190540  51.2533570  36.6650630
  43.0374810  51.7567170  35.9011450  43.7010240  50.4555320  36.2992760
  41.3714430  64.6373960  21.4564640  40.7423310  65.1059060  22.0050470
  41.4862260  63.7923180  21.8910830  49.9206000  50.6687150  37.2431100
  49.8071450  50.9881760  38.1382620  50.7375740  51.0699660  36.9468380
  52.7004490  67.8158680  36.7249790  53.4929810  67.3207910  36.5175750
  52.9937640  68.4948820  37.3325400  48.8264150  58.6879620   7.6065840
  48.7458200  57.7734230   7.3357550  48.4128570  59.1846690   6.9005550
  46.9582190  60.4658640   9.4875110  46.1824290  59.9859080   9.7773680
  47.6095120  59.7864290   9.3131270  40.9748020  60.7778450  10.3650870
  40.1432900  60.5227160  10.7647380  41.5829000  60.8489220  11.1008790
  50.9789620  64.8718830   8.2674240  50.5171150  64.1006070   8.5961410
  51.7915170  64.8984900   8.7726690  40.9549280  64.8118540  10.5608890
  41.2577320  63.9216280  10.3819110  41.6992870  65.3688760  10.3331140
  39.3839970  55.7380340   4.1493260  38.4956670  56.0796310   4.0473140
  39.6681160  55.5380660   3.2574090  37.3472980  58.3385990  10.0332960
  37.9189090  57.5708190  10.0336600  37.3474520  58.6374750   9.1239570
  47.2052930  67.1576840   7.8878230  46.5864370  67.6134340   7.3172670
  48.0604710  67.3128300   7.4867930  46.3991180  63.1415830   9.4945270
  46.3299460  62.2005770   9.3334400  47.1611040  63.2317240  10.0667840
  38.5897850  53.7470350  11.8201890  38.4100690  52.8496100  12.1004650
  38.1877930  54.2942220  12.4948840  47.4296350  55.9486210   9.7214200
  47.8061170  55.0758090   9.6087870  47.3315860  56.2844910   8.8304640
  41.5601360  54.3211840   5.1831640  41.6668110  55.2215570   5.4900400
  40.6493720  54.2729810   4.8926290  51.2120470  53.4436650   6.6542540
  52.0330090  52.9533220   6.6968020  51.2454550  54.0334310   7.4074380
  39.2084520  56.2430850  10.4284230  39.8894630  56.5069220  11.0471630
  38.8932570  55.4031720  10.7622240  43.4009090  57.2898210   9.5156820
  43.9087310  57.7879180  10.1561840  43.9322330  56.5133410   9.3396180
  55.5020020  55.4603400  13.2186170  54.7972190  55.8485110  12.7001280
  55.7677940  56.1553690  13.8207100  41.6845190  51.9296770  13.7820240
  41.6863630  52.4469160  12.9766140  40.8549500  51.4526950  13.7590170
  48.0716280  62.0416080   5.2810140  47.4533550  62.5065530   4.7172860
  48.5839530  62.7343560   5.6979650  42.9348040  61.5691950  11.9593740
  42.6017420  62.1960870  12.6014810  43.1114720  62.0953830  11.1795410
  51.4481950  55.3837030   9.4270080  50.7437520  55.6721920  10.0073190
  51.8094110  56.1937140   9.0669640  41.3660520  53.6406730  11.7890690
  41.7077330  54.4848780  11.4944560  40.4276330  53.7890470  11.9056030
  42.1467140  63.5372750  13.7742920  42.7641140  64.2123830  13.4927370
  41.2860260  63.9460730  13.6830420  37.4399480  62.7272610   2.6549770
  37.0627460  63.2159710   1.9234670  37.6972550  63.3997890   3.2856300
  53.0644730  65.0012160  11.6897560  52.3808250  65.6711270  11.6814230
  53.6039020  65.1992810  10.9242420  54.5168870  54.8291820   9.8179290
  53.5693780  54.8630800   9.9494720  54.8418860  55.6430770  10.2028650
  45.0488410  51.1289000   8.1135280  45.3563390  50.5735890   7.3970780
  44.1189110  51.2633460   7.9308270  50.6003470  66.8456290  10.4042740
  50.6130630  66.4418580   9.5365000  50.0478690  67.6203580  10.3004170
  51.8948890  63.5672510   5.4932910  51.7845220  62.6246840   5.6182330
  51.8917140  63.9288150   6.3795670  49.9988910  61.7486130  11.7325350
  50.4157700  61.5346240  10.8978810  50.7228730  62.0058920  12.3033970
  47.4369170  59.1937830   4.8495400  46.5098450  59.1275210   5.0783870
  47.5893990  60.1317960   4.7350640  53.9451010  60.1473350  11.8241590
  53.1169640  60.2166440  11.3491720  54.5401490  60.7327660  11.3557420
  51.4666460  60.7558130   5.3530650  50.8478880  60.4177680   4.7056950
  51.4490910  60.1117890   6.0609840  50.9093020  56.9342670  12.7696460
  50.4964200  57.7596380  13.0236450  50.1768970  56.3487710  12.5772820
  43.0425810  59.7202570   7.6315130  42.6382810  59.0079820   7.1361030
  43.1288930  59.3755810   8.5203170  43.5107510  63.4070130   9.7954340
  43.2135800  62.8015600   9.1162120  44.4607330  63.4447440   9.6843700
  41.7554430  56.4945780  11.4114170  42.3069020  56.6041120  10.6367420
  42.2697940  56.8683380  12.1269400  51.5993120  66.9802000  13.4577440
  51.1223680  67.7874190  13.2650050  50.9154910  66.3280330  13.6103650
  42.6025940  63.1451820  16.4462140  41.7054470  63.3691790  16.6935540
  42.6278810  63.2686760  15.4973540  49.6431160  59.9944940   2.3603400
  50.0824440  59.1567370   2.2141220  50.3559580  60.6274340   2.4467540
  41.4297160  60.0165140  15.0219510  41.2904930  60.8887940  15.3906910
  40.5478520  59.6737950  14.8767450  47.7526540  64.9341010   6.3284640
  48.1922450  65.6765340   5.9140030  47.6913430  65.1767580   7.2523600
  43.2277510  65.9586840  17.2304660  43.1992940  66.3629790  16.3633090
  43.0642480  65.0297200  17.0676260  39.7430440  58.6147550   5.1321780
  39.6228040  59.3409640   4.5203050  39.4331330  57.8450460   4.6549690
  55.1792330  66.7413940  18.5268830  55.6552050  67.2196830  19.2057910
  55.7999490  66.6731430  17.8014330  37.3815810  61.7862690  10.9390420
  37.4596230  61.9211460   9.9946140  37.9957490  61.0778580  11.1318540
  38.6263440  63.4862880   7.3496600  38.2191520  63.6277470   6.4950200
  39.5176450  63.2023040   7.1467810  54.5825580  63.9326790  15.6868840
  54.7088640  63.6938670  14.7686020  54.6246960  63.1011330  16.1590920
  48.4442320  67.6354790  14.2563650  48.9586990  67.5462800  15.0586080
  47.6011400  67.9814490  14.5491560  50.4196720  67.9210130   3.6847650
  50.2597860  67.6313070   4.5829480  50.2543430  67.1450260   3.1492880
  42.8985100  67.7008660   5.4619270  42.7227580  66.7844200   5.2487070
  42.0440840  68.0595950   5.7017070  49.6872780  67.0560400   6.3194140
  50.1429730  66.2749780   6.6332760  50.0265300  67.7667220   6.8635320
  54.4349590  55.9859250  16.6518580  53.8193860  56.4938920  16.1234040
  54.1146010  55.0857580  16.5944520  37.4375330  62.8276860  13.4784880
  37.6006370  62.3582220  12.6604250  37.9027780  62.3200420  14.1433720
  42.2094100  51.9582620   8.5145450  41.7662250  52.7392160   8.1829970
  42.7679090  52.2812510   9.2216390  46.4963910  54.8251140  14.1180770
  46.0343280  55.0334160  14.9300710  46.0942020  54.0110490  13.8151440
  51.4968420  56.0460090  15.2477430  50.6462010  55.7465840  15.5686500
  51.3370210  56.2902100  14.3361250  48.5918130  57.5461840  17.3476220
  48.9171540  56.7125590  17.0078450  49.3798460  58.0690360  17.4954550
  45.3252920  51.5793320   3.3951280  44.7007100  51.5753190   4.1204590
  45.2383040  50.7124280   2.9987250  44.2470000  52.5029950  10.3735050
  44.5442330  53.4092780  10.2927070  44.7955560  52.0148730   9.7594620
  42.0008320  57.0816190   6.2426700  41.7749240  56.8653360   7.1473320
  41.2200850  57.5144650   5.8972670  49.2306080  57.0879560   4.8417350
  48.6314970  57.8115360   4.6580970  49.7785690  57.0256340   4.0593800
  44.4407530  57.9801770  16.9086970  44.3451130  57.0396500  16.7587370
  45.2839510  58.2016840  16.5135040  47.8370950  55.7243100   6.8720630
  48.2300520  56.0415300   6.0589320  48.1987800  54.8454980   6.9865150
  39.5718070  54.3915440  15.0620750  39.1781460  55.2390650  15.2693530
  38.8836470  53.7541810  15.2529390  46.1463120  54.4750410  18.1317490
  45.4561440  54.2822610  18.7663580  46.8895420  54.7585050  18.6641790
  36.8735120  52.3143900   9.0950830  36.5848170  52.8846760   9.8075810
  37.6180880  51.8348350   9.4582060  48.4226090  58.3148850  10.9671410
  47.6907210  58.8235660  11.3161510  48.0250430  57.4978830  10.6660190
  44.8603480  54.9903050   9.3723900  44.8639540  54.5493000   8.5228440
  45.7554600  55.3120380   9.4795720  40.7105860  54.8729540   8.3318110
  40.3705910  55.3504770   9.0885160  39.9483180  54.4194660   7.9719210
  44.9223630  55.9915130   2.3630660  45.0436450  55.9501610   3.3116480
  44.5372140  56.8539280   2.2077390  48.8852000  53.7682530  10.3794350
  48.9024740  54.2191180  11.2236200  48.6367580  52.8688170  10.5927790
  52.3122750  51.1814710  16.2180730  52.6368520  50.4504370  16.7438710
  52.3479260  50.8628350  15.3161720  39.0114310  62.2028290  15.6380690
  38.6269100  61.5621960  16.2363650  39.3226500  62.9064410  16.2075420
  45.1611450  59.0504830  11.1189310  45.5281580  58.5763400  11.8650650
  44.9716510  59.9246400  11.4597650  38.0251940  53.7948520   7.2482780
  37.7398860  53.4304190   8.0861400  37.9630800  53.0628980   6.6345920
  42.9510820  58.0913470  13.4373520  42.6467890  58.9705450  13.6623880
  43.9057280  58.1513260  13.4730960  41.4792610  62.2974460   4.0340370
  40.7054870  61.7572080   3.8739090  42.2087240  61.7781070   3.6958130
  52.2380590  61.2939820   9.8266760  52.9579710  61.7895110   9.4362870
  52.0362410  60.6157710   9.1820630  47.6990530  52.6877780   3.9696150
  46.8855140  52.1890950   3.8941460  47.5052480  53.5276030   3.5532500
  47.6199390  61.3648880  15.7135760  47.5536700  60.4444550  15.4593350
  46.9904530  61.4624320  16.4280400  50.4138920  57.0597430   2.2658310
  51.3018540  57.3714660   2.0909650  50.3844010  56.1869680   1.8738890
  41.5230010  61.9654840   7.6719180  42.0408680  61.1623100   7.6176070
  41.0714030  61.9033980   8.5136010  46.4099510  63.2321120   2.9446480
  46.7515210  63.9763350   2.4489800  45.5812220  63.5452240   3.3071310
  39.0074550  58.9316210  14.5844880  38.6489490  59.5970060  15.1718220
  38.7129110  58.0999760  14.9557500  42.2087670  59.3900450  17.4684430
  41.9087810  59.5357630  16.5712250  42.9798910  58.8305740  17.3757820
  47.5516120  64.1869450  15.4639560  47.5660660  63.2550410  15.2458470
  46.8441220  64.2729210  16.1029330  53.7627330  60.8276790  14.8108140
  53.0375520  61.4205570  14.6137530  54.2902790  60.8200330  14.0121510
  53.7140440  65.2251530   4.4620300  53.0716600  64.5707150   4.7364020
  53.3271100  65.6306620   3.6860970  49.2926920  62.5536960   8.3091990
  49.6450740  61.9565090   7.6493360  48.4089250  62.2281190   8.4800240
  45.3790200  63.3134650   5.7162400  46.0661330  63.8603860   6.0969990
  44.5922620  63.8575380   5.7512010  44.6817410  60.3180680   5.3287760
  45.1380190  61.1285930   5.5547950  44.3305620  60.0003820   6.1606250
  46.9850020  65.8287020  12.5580060  47.6292240  66.0346400  13.2353480
  47.3479460  65.0675420  12.1050910  40.5829190  50.6618330   5.8010280
  40.4543820  50.6536230   6.7495200  39.7591210  51.0001420   5.4501290
  48.2582100  63.8319370  11.2757510  48.9004330  63.1312530  11.3889680
  48.7831450  64.6117810  11.0954400  50.0319720  64.6314270  14.4793570
  50.3675960  65.2180960  15.1571490  49.1120060  64.5006980  14.7091360
  37.5823120  52.4209450  15.2616980  36.8681640  52.6206370  15.8669590
  38.0018160  51.6449020  15.6331780  51.6854070  62.0339930   2.6610810
  51.3975770  62.4952620   3.4488690  52.4806240  61.5737700   2.9295030
  37.8695710  66.4089710  16.2483510  37.9786830  65.4684450  16.1078900
  37.2176270  66.6744460  15.5997240  45.8608300  64.6805600  17.6481630
  45.5405170  63.9614840  18.1927320  45.1866660  65.3560670  17.7217690
  43.9022470  65.5266050   2.5914780  43.8932570  66.2595740   1.9759290
  42.9820830  65.2797630   2.6841740  39.5029110  60.7480940   3.3361540
  38.8957060  61.4879840   3.3456840  39.9778460  60.8380300   2.5099740
  49.0761900  54.9131760  13.0118430  49.4442720  54.0926970  13.3398000
  48.2160100  54.9733650  13.4274080  52.4423930  53.8688700   3.8205990
  51.8137090  53.9734370   3.1064220  51.9475850  54.0885480   4.6099870
  44.4107960  56.1474650   5.2363870  43.7024110  56.6160990   5.6777480
  44.6952440  55.4896660   5.8709060  46.0363890  57.5671350  13.2356400
  46.5349140  58.0417170  13.9008250  46.1786840  56.6434870  13.4426430
  48.4423390  52.8725310   6.6759660  48.3191170  52.8911440   5.7269170
  49.3907950  52.9204250   6.7958060  45.5300180  68.1080610   5.9487640
  45.7841680  68.0702000   5.0267010  44.5812660  67.9813940   5.9415890
  42.6142980  54.4559730   2.6114580  43.4633510  54.8929880   2.5454770
  42.2474250  54.7679990   3.4386640  53.2430750  53.7839310  14.0784790
  52.7404350  54.5244710  14.4178600  54.0587410  54.1723310  13.7621580
  51.5352760  59.0272490   7.5246150  50.5942900  59.0422720   7.6993840
  51.8496830  58.2408450   7.9706450  40.2081160  58.1417160   1.7683000
  40.2884750  57.1944670   1.8800400  41.1000910  58.4724040   1.8743660
  53.5378340  66.1981340   9.2000410  53.6625760  67.0212510   9.6724220
  54.4043900  65.9872070   8.8524560  41.0095870  68.2912550   8.8717540
  41.7458350  67.7428010   9.1426110  41.3936790  69.1568560   8.7323530
  37.8941350  64.3586120   4.7459050  36.9681130  64.6007260   4.7364460
  38.3597780  65.1860380   4.6243800  40.0154150  67.4758620  18.0603120
  40.8166880  67.7970670  18.4738520  39.5005970  67.1154200  18.7823030
  48.8518780  63.5838490  18.0078530  48.2456940  63.6070090  17.2674280
  48.5472890  62.8521530  18.5445780  50.2819150  67.3118780  16.6187940
  51.2340900  67.2276800  16.5688180  50.1347370  67.9760490  17.2921730
  37.7351960  59.9632080  17.0039170  38.2390980  59.3839360  17.5755400
  36.9959380  60.2472310  17.5415540  44.7889900  61.3703070  16.5374690
  44.0235570  61.9388070  16.4529360  44.9705860  61.0779280  15.6442920
  51.9313250  63.1008400  17.0949710  52.6722720  63.4384160  16.5917170
  51.1685930  63.2700460  16.5419480  39.7675040  58.1061670  17.8989240
  39.8080380  57.8075540  18.8074470  40.6220540  58.5069280  17.7396760
  43.5453430  60.7057220   3.0592750  43.9669850  60.5397090   3.9024140
  43.6704270  59.8957450   2.5647890  41.7080850  56.6853770  15.8663730
  41.1777310  56.1944720  15.2387070  42.3768920  57.1137970  15.3321660
  50.6058910  61.1523230  15.6304920  51.0199930  61.3068310  16.4795340
  49.6709910  61.2778450  15.7930700  51.0781080  58.4919390  17.6344070
  51.6601850  57.7371710  17.5464550  51.2542850  59.0226830  16.8575550
  42.1953150  53.6516140  15.9461020  42.1010020  53.0336890  15.2211890
  41.6150540  54.3782430  15.7190930  44.9614590  52.2089380  12.9788410
  44.5131890  52.2313640  12.1333960  44.3279790  51.8108400  13.5758710
  45.3674140  61.1043710  13.6000850  45.7862250  61.9476440  13.4277090
  44.4482770  61.2415750  13.3707630  47.7038040  58.8359890  14.9838690
  47.8234250  58.2401030  15.7233530  48.5632040  58.8729580  14.5639990
  50.0425940  59.3897080  13.5601200  49.5161160  59.9139700  12.9566340
  50.3857280  60.0224470  14.1910930  43.2181560  67.4096720  14.7158580
  42.6802650  68.1342780  14.3967280  43.4715520  66.9327060  13.9255920
  44.4706810  55.3781240  16.2414510  45.0606500  55.0697090  16.9292330
  43.6527050  54.9060990  16.3974410  49.2900240  54.9947050  16.4747530
  48.6015760  54.3328590  16.4097520  50.0106260  54.5485320  16.9195990
  49.9200640  51.5898680   2.5337790  50.2002930  50.7466580   2.8897210
  49.1466370  51.8221790   3.0476540  46.0743770  68.6447930  14.9745230
  46.0002470  69.5483070  15.2817600  45.1722610  68.3259830  14.9467300
  46.6229100  67.8106440   2.5971590  47.5179890  68.1491410   2.6190350
  46.6546730  67.0885850   1.9695870  37.4771060  65.9722520   8.2778850
  37.8074070  65.1043580   8.0457490  37.9062060  66.1781040   9.1083810
  42.0732980  64.3031530   5.9380820  41.7728520  64.1796500   6.8384730
  41.9670470  63.4440120   5.5296550  37.9661270  66.8393110  11.0160480
  37.5292260  67.0193910  11.8484630  38.5338950  67.5967730  10.8742200
  53.6023450  66.3410110  15.3037790  53.0025440  66.4002670  14.5601710
  53.7317350  65.4015090  15.4334640  54.2981360  60.8275410   3.1441700
  55.0600270  61.3972060   3.2501390  54.3135730  60.2602610   3.9150010
  37.7985700  59.3513340   7.3749360  37.1434540  59.0824980   6.7309060
  38.6363650  59.2417820   6.9251340  55.3041330  61.6825510   7.9883630
  55.6750160  60.8992830   7.5819600  55.9443260  62.3714610   7.8100930
  52.2875090  63.0662090  13.4013950  51.4734930  63.4959250  13.6639740
  52.6949290  63.6780500  12.7883000  54.2465870  59.0578770   5.2943650
  53.8709470  58.2906700   4.8624940  53.5168990  59.4401470   5.7818580
  38.8361630  59.7365910  11.9152700  39.2034670  59.6493310  12.7948720
  38.2672450  58.9732460  11.8159560  53.6365490  58.2050290  14.9283170
  53.4051580  57.9763040  14.0281120  53.8970040  59.1249840  14.8828060
  38.3877630  56.6475000  15.8211120  37.4933680  56.6141760  16.1604830
  38.9275180  56.8461790  16.5862370  52.0753560  53.4306720  17.7062870
  52.9523740  53.4390120  18.0896870  52.0874400  52.6937560  17.0955220
  37.0123780  56.5612270   3.3174690  36.1087860  56.8242470   3.1426350
  37.4964400  56.8323440   2.5374650  53.5216830  57.2836260   8.5950890
  54.0454310  56.7898910   7.9641060  54.1076250  57.4186620   9.3398460
  53.7006550  57.3676130  12.1170440  52.7509260  57.3339670  12.2315430
  53.8819560  58.2776240  11.8820210  53.0116800  56.5409610   4.5343300
  53.5075920  56.3080480   5.3192180  52.8132870  55.7021450   4.1180940
  38.8917340  50.9223330  10.1694340  39.5393530  50.3720710   9.7289500
  39.3119180  51.1766480  10.9910150  54.4403960  55.1770560   7.0680980
  54.3303240  55.0226600   8.0063250  55.2011550  54.6491500   6.8256390
  52.7869680  51.1164690  13.5263980  53.4241900  51.7298830  13.8923170
  52.9344570  51.1525350  12.5813210  55.4032720  53.7789140   2.9343830
  54.6084220  53.7134260   3.4636740  55.6076000  54.7139780   2.9229180
  52.3451140  67.8180690   6.9282220  52.9410210  67.4965260   6.2516640
  52.6029290  67.3452510   7.7195490  38.6449340  51.0779000  12.9119660
  38.2964160  51.5342820  13.6777840  38.3137040  50.1836130  12.9942090
  40.2513710  64.2498600  17.0772850  40.2083340  63.8791510  17.9587310
  40.3824720  65.1876170  17.2174670  43.9519740  65.8058190  12.6782570
  43.7111100  66.0732750  11.7913090  44.8922380  65.9763920  12.7333430
  46.1574160  52.2690880  16.4339080  46.0963050  52.8612710  17.1834490
  47.0974540  52.1616840  16.2889340  48.7948720  51.9260940  16.0731370
  49.4089130  52.2440230  15.4112450  49.3398280  51.4409530  16.6927230
  55.2123900  67.8252570  13.4793210  54.7182180  68.2221440  12.7620340
  54.6037190  67.2001780  13.8730490  39.3169980  50.6055200  16.1870430
  39.8652970  50.4243250  15.4236540  39.3825290  49.8149310  16.7226740
  40.0901740  67.1960850  14.1970630  39.4962060  67.0645550  14.9360670
  40.0825580  66.3598990  13.7312730  49.5356760  50.4893080  12.4000660
  48.6616600  50.8228190  12.1973590  49.4267510  50.0166260  13.2252530
  50.4428740  52.6963950  13.7842380  50.1142100  51.8815710  13.4044110
  51.3911040  52.6533760  13.6608070  52.8963350  68.4675990  10.7579950
  52.4366320  69.2191800  10.3837970  52.2675810  67.7482460  10.6994750
  39.7213970  64.5619230  13.1478670  38.9948030  63.9424520  13.0804620
  39.7823120  64.9559840  12.2776750  43.3259070  66.7764230   9.9328080
  43.8424090  66.1651590   9.4076340  43.9756450  67.2793010  10.4239090
  46.0654570  67.6672720  10.7597060  46.3532380  67.4127020   9.8830070
  46.5777790  67.1150080  11.3502630  47.2831580  51.4062920  11.3393570
  46.5003370  51.8808420  11.6190330  46.9894510  50.5017750  11.2306750
  51.8352650  52.1086020   9.3842660  52.2760740  52.0531120   8.5364260
  51.5660240  53.0244030   9.4552840  53.6991220  51.7401260   7.3951480
  53.6379620  50.7962480   7.2482500  54.4783250  51.8481350   7.9404940
  38.0043970  67.8793620   6.3575430  37.8366010  67.2464300   7.0557320
  37.1378480  68.0853020   6.0069620  38.6271990  51.7110400   3.8607290
  39.3851350  51.8239280   3.2871320  38.1649160  52.5479600   3.8150720
  45.1685800  53.8249670   6.8509600  44.3560310  53.4506560   6.5105480
  45.6727440  53.0694750   7.1530790  49.6710780  50.4892120   8.0892670
  50.2740150  51.0612330   8.5641190  48.9303770  51.0531560   7.8666570
  52.8145380  50.8913680   3.3632950  53.0096010  51.7897130   3.6300380
  52.0275250  50.6600760   3.8565900  39.6106670  66.5726850   3.8025570
  39.0854290  66.9534880   3.0987530  39.5351250  67.1977620   4.5235280
  40.9997140  52.2374450   2.4009260  41.5289900  51.4504250   2.2717210
  41.6325460  52.9165640   2.6344790  43.1934980  51.9749590   5.4554650
  42.5637720  51.2736900   5.6224780  42.6540120  52.7353720   5.2387810
  46.1326930  68.5888820  18.1265260  47.0594240  68.3533090  18.1701220
  46.1177360  69.4160820  17.6451290  54.3671990  68.1314390   5.1239510
  54.5424180  67.4452130   4.4800430  53.6693560  68.6561440   4.7316180
  43.3190540  51.2533570  17.8907140  43.0374810  51.7567170  17.1267960
  43.7010240  50.4555320  17.5249270  42.2099640  68.5209230   2.6774820
  42.9418460  68.2368510   2.1298710  42.4693310  68.2822510   3.5674200
  41.3714430  64.6373960   2.6821150  40.7423310  65.1059060   3.2306980
  41.4862260  63.7923180   3.1167340  49.9206000  50.6687150  18.4687610
  49.8071450  50.9881760  19.3639130  50.7375740  51.0699660  18.1724890
  52.7004490  67.8158680  17.9506300  53.4929810  67.3207910  17.7432260
  52.9937640  68.4948820  18.5581910  48.8264150  39.9136130  45.1552820
  48.7458200  38.9990740  44.8844530  48.4128570  40.4103200  44.4492530
  46.9582190  41.6915150  47.0362090  46.1824290  41.2115590  47.3260660
  47.6095120  41.0120800  46.8618250  40.9748020  42.0034960  47.9137850
  40.1432900  41.7483670  48.3134360  41.5829000  42.0745730  48.6495770
  50.9789620  46.0975340  45.8161220  50.5171150  45.3262580  46.1448390
  51.7915170  46.1241410  46.3213670  40.9549280  46.0375050  48.1095870
  41.2577320  45.1472790  47.9306090  41.6992870  46.5945270  47.8818120
  39.3839970  36.9636850  41.6980240  38.4956670  37.3052820  41.5960120
  39.6681160  36.7637170  40.8061070  37.3472980  39.5642500  47.5819940
  37.9189090  38.7964700  47.5823580  37.3474520  39.8631260  46.6726550
  47.2052930  48.3833350  45.4365210  46.5864370  48.8390850  44.8659650
  48.0604710  48.5384810  45.0354910  46.3991180  44.3672340  47.0432250
  46.3299460  43.4262280  46.8821380  47.1611040  44.4573750  47.6154820
  38.5897850  34.9726860  49.3688870  38.4100690  34.0752610  49.6491630
  38.1877930  35.5198730  50.0435820  47.4296350  37.1742720  47.2701180
  47.8061170  36.3014600  47.1574850  47.3315860  37.5101420  46.3791620
  41.5601360  35.5468350  42.7318620  41.6668110  36.4472080  43.0387380
  40.6493720  35.4986320  42.4413270  51.2120470  34.6693160  44.2029520
  52.0330090  34.1789730  44.2455000  51.2454550  35.2590820  44.9561360
  39.2084520  37.4687360  47.9771210  39.8894630  37.7325730  48.5958610
  38.8932570  36.6288230  48.3109220  43.4009090  38.5154720  47.0643800
  43.9087310  39.0135690  47.7048820  43.9322330  37.7389920  46.8883160
  55.5020020  36.6859910  50.7673150  54.7972190  37.0741620  50.2488260
  55.7677940  37.3810200  51.3694080  41.6845190  33.1553280  51.3307220
  41.6863630  33.6725670  50.5253120  40.8549500  32.6783460  51.3077150
  48.0716280  43.2672590  42.8297120  47.4533550  43.7322040  42.2659840
  48.5839530  43.9600070  43.2466630  42.9348040  42.7948460  49.5080720
  42.6017420  43.4217380  50.1501790  43.1114720  43.3210340  48.7282390
  51.4481950  36.6093540  46.9757060  50.7437520  36.8978430  47.5560170
  51.8094110  37.4193650  46.6156620  41.3660520  34.8663240  49.3377670
  41.7077330  35.7105290  49.0431540  40.4276330  35.0146980  49.4543010
  42.1467140  44.7629260  51.3229900  42.7641140  45.4380340  51.0414350
  41.2860260  45.1717240  51.2317400  37.4399480  43.9529120  40.2036750
  37.0627460  44.4416220  39.4721650  37.6972550  44.6254400  40.8343280
  53.0644730  46.2268670  49.2384540  52.3808250  46.8967780  49.2301210
  53.6039020  46.4249320  48.4729400  54.5168870  36.0548330  47.3666270
  53.5693780  36.0887310  47.4981700  54.8418860  36.8687280  47.7515630
  45.0488410  32.3545510  45.6622260  45.3563390  31.7992400  44.9457760
  44.1189110  32.4889970  45.4795250  50.6003470  48.0712800  47.9529720
  50.6130630  47.6675090  47.0851980  50.0478690  48.8460090  47.8491150
  51.8948890  44.7929020  43.0419890  51.7845220  43.8503350  43.1669310
  51.8917140  45.1544660  43.9282650  49.9988910  42.9742640  49.2812330
  50.4157700  42.7602750  48.4465790  50.7228730  43.2315430  49.8520950
  47.4369170  40.4194340  42.3982380  46.5098450  40.3531720  42.6270850
  47.5893990  41.3574470  42.2837620  47.4238250  36.6911340  39.3949540
  46.4841920  36.8525300  39.4802000  47.7421510  37.4097020  38.8485530
  53.9451010  41.3729860  49.3728570  53.1169640  41.4422950  48.8978700
  54.5401490  41.9584170  48.9044400  51.4666460  41.9814640  42.9017630
  50.8478880  41.6434190  42.2543930  51.4490910  41.3374400  43.6096820
  50.9093020  38.1599180  50.3183440  50.4964200  38.9852890  50.5723430
  50.1768970  37.5744220  50.1259800  43.0425810  40.9459080  45.1802110
  42.6382810  40.2336330  44.6848010  43.1288930  40.6012320  46.0690150
  43.5107510  44.6326640  47.3441320  43.2135800  44.0272110  46.6649100
  44.4607330  44.6703950  47.2330680  41.7554430  37.7202290  48.9601150
  42.3069020  37.8297630  48.1854400  42.2697940  38.0939890  49.6756380
  51.5993120  48.2058510  51.0064420  51.1223680  49.0130700  50.8137030
  50.9154910  47.5536840  51.1590630  49.6431160  41.2201450  39.9090380
  50.0824440  40.3823880  39.7628200  50.3559580  41.8530850  39.9954520
  41.4297160  41.2421650  52.5706490  41.2904930  42.1144450  52.9393890
  40.5478520  40.8994460  52.4254430  47.7526540  46.1597520  43.8771620
  48.1922450  46.9021850  43.4627010  47.6913430  46.4024090  44.8010580
  53.2248300  32.4744260  38.2231420  52.9120960  32.5671090  39.1230490
  53.9860770  33.0525290  38.1728850  39.7430440  39.8404060  42.6808760
  39.6228040  40.5666150  42.0690030  39.4331330  39.0706970  42.2036670
  37.3815810  43.0119200  48.4877400  37.4596230  43.1467970  47.5433120
  37.9957490  42.3035090  48.6805520  38.6263440  44.7119390  44.8983580
  38.2191520  44.8533980  44.0437180  39.5176450  44.4279550  44.6954790
  54.5825580  45.1583300  53.2355820  54.7088640  44.9195180  52.3173000
  54.6246960  44.3267840  53.7077900  48.4442320  48.8611300  51.8050630
  48.9586990  48.7719310  52.6073060  47.6011400  49.2071000  52.0978540
  50.4196720  49.1466640  41.2334630  50.2597860  48.8569580  42.1316460
  50.2543430  48.3706770  40.6979860  42.8985100  48.9265170  43.0106250
  42.7227580  48.0100710  42.7974050  42.0440840  49.2852460  43.2504050
  50.1222850  46.6554200  39.7932630  49.4288010  46.6531490  39.1334910
  50.8645710  46.2313520  39.3626800  49.6872780  48.2816910  43.8681120
  50.1429730  47.5006290  44.1819740  50.0265300  48.9923730  44.4122300
  54.4349590  37.2115760  54.2005560  53.8193860  37.7195430  53.6721020
  54.1146010  36.3114090  54.1431500  37.4375330  44.0533370  51.0271860
  37.6006370  43.5838730  50.2091230  37.9027780  43.5456930  51.6920700
  42.2094100  33.1839130  46.0632430  41.7662250  33.9648670  45.7316950
  42.7679090  33.5069020  46.7703370  46.4963910  36.0507650  51.6667750
  46.0343280  36.2590670  52.4787690  46.0942020  35.2367000  51.3638420
  51.4968420  37.2716600  52.7964410  50.6462010  36.9722350  53.1173480
  51.3370210  37.5158610  51.8848230  45.3252920  32.8049830  40.9438260
  44.7007100  32.8009700  41.6691570  45.2383040  31.9380790  40.5474230
  44.2470000  33.7286460  47.9222030  44.5442330  34.6349290  47.8414050
  44.7955560  33.2405240  47.3081600  42.0008320  38.3072700  43.7913680
  41.7749240  38.0909870  44.6960300  41.2200850  38.7401160  43.4459650
  49.2306080  38.3136070  42.3904330  48.6314970  39.0371870  42.2067950
  49.7785690  38.2512850  41.6080780  47.8370950  36.9499610  44.4207610
  48.2300520  37.2671810  43.6076300  48.1987800  36.0711490  44.5352130
  39.5718070  35.6171950  52.6107730  39.1781460  36.4647160  52.8180510
  38.8836470  34.9798320  52.8016370  36.8735120  33.5400410  46.6437810
  36.5848170  34.1103270  47.3562790  37.6180880  33.0604860  47.0069040
  37.0605350  37.4820530  37.8540530  36.9780020  38.4251290  37.9955520
  36.7088410  37.3395440  36.9752880  48.4226090  39.5405360  48.5158390
  47.6907210  40.0492170  48.8648490  48.0250430  38.7235340  48.2147170
  44.8603480  36.2159560  46.9210880  44.8639540  35.7749510  46.0715420
  45.7554600  36.5376890  47.0282700  40.7105860  36.0986050  45.8805090
  40.3705910  36.5761280  46.6372140  39.9483180  35.6451170  45.5206190
  44.9223630  37.2171640  39.9117640  45.0436450  37.1758120  40.8603460
  44.5372140  38.0795790  39.7564370  48.8852000  34.9939040  47.9281330
  48.9024740  35.4447690  48.7723180  48.6367580  34.0944680  48.1414770
  43.9345130  39.5272780  39.3100940  43.3662030  39.0791030  38.6836850
  44.6434130  39.8865560  38.7766090  39.0114310  43.4284800  53.1867670
  38.6269100  42.7878470  53.7850630  39.3226500  44.1320920  53.7562400
  45.1611450  40.2761340  48.6676290  45.5281580  39.8019910  49.4137630
  44.9716510  41.1502910  49.0084630  38.0251940  35.0205030  44.7969760
  37.7398860  34.6560700  45.6348380  37.9630800  34.2885490  44.1832900
  42.9510820  39.3169980  50.9860500  42.6467890  40.1961960  51.2110860
  43.9057280  39.3769770  51.0217940  41.4792610  43.5230970  41.5827350
  40.7054870  42.9828590  41.4226070  42.2087240  43.0037580  41.2445110
  52.2380590  42.5196330  47.3753740  52.9579710  43.0151620  46.9849850
  52.0362410  41.8414220  46.7307610  47.6990530  33.9134290  41.5183130
  46.8855140  33.4147460  41.4428440  47.5052480  34.7532540  41.1019480
  47.6199390  42.5905390  53.2622740  47.5536700  41.6701060  53.0080330
  46.9904530  42.6880830  53.9767380  50.4138920  38.2853940  39.8145290
  51.3018540  38.5971170  39.6396630  50.3844010  37.4126190  39.4225870
  41.5230010  43.1911350  45.2206160  42.0408680  42.3879610  45.1663050
  41.0714030  43.1290490  46.0622990  46.4099510  44.4577630  40.4933460
  46.7515210  45.2019860  39.9976780  45.5812220  44.7708750  40.8558290
  39.0074550  40.1572720  52.1331860  38.6489490  40.8226570  52.7205200
  38.7129110  39.3256270  52.5044480  47.5516120  45.4125960  53.0126540
  47.5660660  44.4806920  52.7945450  46.8441220  45.4985720  53.6516310
  52.6853190  39.5965780  39.2825150  52.6016910  40.0280000  38.4321590
  53.4047380  40.0564130  39.7151970  53.7627330  42.0533300  52.3595120
  53.0375520  42.6462080  52.1624510  54.2902790  42.0456840  51.5608490
  53.7140440  46.4508040  42.0107280  53.0716600  45.7963660  42.2851000
  53.3271100  46.8563130  41.2347950  49.2926920  43.7793470  45.8578970
  49.6450740  43.1821600  45.1980340  48.4089250  43.4537700  46.0287220
  45.3790200  44.5391160  43.2649380  46.0661330  45.0860370  43.6456970
  44.5922620  45.0831890  43.2998990  37.5182600  40.1563980  38.7566460
  38.3877450  40.4388780  39.0402380  37.0272920  40.9699850  38.6415270
  44.6817410  41.5437190  42.8774740  45.1380190  42.3542440  43.1034930
  44.3305620  41.2260330  43.7093230  46.9850020  47.0543530  50.1067040
  47.6292240  47.2602910  50.7840460  47.3479460  46.2931930  49.6537890
  40.5829190  31.8874840  43.3497260  40.4543820  31.8792740  44.2982180
  39.7591210  32.2257930  42.9988270  48.2582100  45.0575880  48.8244490
  48.9004330  44.3569040  48.9376660  48.7831450  45.8374320  48.6441380
  52.1037820  45.3424500  38.5483630  51.8775400  44.6254940  39.1408270
  51.7134020  45.0936940  37.7105380  50.0319720  45.8570780  52.0280550
  50.3675960  46.4437470  52.7058470  49.1120060  45.7263490  52.2578340
  37.8853850  49.3691360  39.3228090  38.2451490  49.9680700  38.6685360
  37.7446190  49.9151250  40.0963120  37.5823120  33.6465960  52.8103960
  36.8681640  33.8462880  53.4156570  38.0018160  32.8705530  53.1818760
  51.6854070  43.2596440  40.2097790  51.3975770  43.7209130  40.9975670
  52.4806240  42.7994210  40.4782010  37.8695710  47.6346220  53.7970490
  37.9786830  46.6940960  53.6565880  37.2176270  47.9000970  53.1484220
  43.9022470  46.7522560  40.1401760  43.8932570  47.4852250  39.5246270
  42.9820830  46.5054140  40.2328720  39.5029110  41.9737450  40.8848520
  38.8957060  42.7136350  40.8943820  39.9778460  42.0636810  40.0586720
  49.0761900  36.1388270  50.5605410  49.4442720  35.3183480  50.8884980
  48.2160100  36.1990160  50.9761060  52.4423930  35.0945210  41.3692970
  51.8137090  35.1990880  40.6551200  51.9475850  35.3141990  42.1586850
  46.8882070  46.8150800  38.8026950  46.9894050  46.6114790  37.8728930
  45.9883810  46.5609080  39.0074730  44.4107960  37.3731160  42.7850850
  43.7024110  37.8417500  43.2264460  44.6952440  36.7153170  43.4196040
  46.0363890  38.7927860  50.7843380  46.5349140  39.2673680  51.4495230
  46.1786840  37.8691380  50.9913410  48.4423390  34.0981820  44.2246640
  48.3191170  34.1167950  43.2756150  49.3907950  34.1460760  44.3445040
  45.5300180  49.3337120  43.4974620  45.7841680  49.2958510  42.5753990
  44.5812660  49.2070450  43.4902870  42.6142980  35.6816240  40.1601560
  43.4633510  36.1186390  40.0941750  42.2474250  35.9936500  40.9873620
  53.2430750  35.0095820  51.6271770  52.7404350  35.7501220  51.9665580
  54.0587410  35.3979820  51.3108560  51.5352760  40.2529000  45.0733130
  50.5942900  40.2679230  45.2480820  51.8496830  39.4664960  45.5193430
  41.5134400  41.9348600  38.6337090  42.2797670  41.8229960  39.1962520
  41.5909090  41.2386570  37.9813860  40.2081160  39.3673670  39.3169980
  40.2884750  38.4201180  39.4287380  41.1000910  39.6980550  39.4230640
  53.5378340  47.4237850  46.7487390  53.6625760  48.2469020  47.2211200
  54.4043900  47.2128580  46.4011540  41.0095870  49.5169060  46.4204520
  41.7458350  48.9684520  46.6913090  41.3936790  50.3825070  46.2810510
  37.8941350  45.5842630  42.2946030  36.9681130  45.8263770  42.2851440
  38.3597780  46.4116890  42.1730780  44.1198180  48.6899370  38.2430090
  44.9126790  48.9788200  37.7911880  43.6002530  48.2591540  37.5642570
  53.1728350  47.9169500  39.6666830  52.8869860  47.5034640  38.8521010
  52.9747900  48.8457210  39.5467350  44.6375580  43.9102780  38.1072440
  44.5326220  43.2955130  38.8333820  44.4699800  43.3868670  37.3235450
  44.7889900  42.5959580  54.0861670  44.0235570  43.1644580  54.0016340
  44.9705860  42.3035790  53.1929900  47.8778310  42.9722810  38.7114430
  47.3288410  43.4192110  39.3557170  48.4997570  42.4672060  39.2352100
  43.5453430  41.9313730  40.6079730  43.9669850  41.7653600  41.4511120
  43.6704270  41.1213960  40.1134870  41.7080850  37.9110280  53.4150710
  41.1777310  37.4201230  52.7874050  42.3768920  38.3394480  52.8808640
  46.0581070  40.9551340  37.8556830  46.5786730  40.2400360  37.4897980
  46.7049470  41.5937210  38.1557340  50.6058910  42.3779740  53.1791900
  51.0199930  42.5324820  54.0282320  49.6709910  42.5034960  53.3417680
  42.1953150  34.8772650  53.4948000  42.1010020  34.2593400  52.7698870
  41.6150540  35.6038940  53.2677910  44.9614590  33.4345890  50.5275390
  44.5131890  33.4570150  49.6820940  44.3279790  33.0364910  51.1245690
  45.3674140  42.3300220  51.1487830  45.7862250  43.1732950  50.9764070
  44.4482770  42.4672260  50.9194610  47.7038040  40.0616400  52.5325670
  47.8234250  39.4657540  53.2720510  48.5632040  40.0986090  52.1126970
  50.0425940  40.6153590  51.1088180  49.5161160  41.1396210  50.5053320
  50.3857280  41.2480980  51.7397910  42.4412330  38.0046960  37.5537890
  42.2401390  37.1414320  37.9151230  42.2704380  37.9180320  36.6159490
  43.2181560  48.6353230  52.2645560  42.6802650  49.3599290  51.9454260
  43.4715520  48.1583570  51.4742900  49.9200640  32.8155190  40.0824770
  50.2002930  31.9723090  40.4384190  49.1466370  33.0478300  40.5963520
  41.2395130  35.1047580  37.5415770  41.5421030  35.1115010  36.6334920
  41.9789720  34.7545440  38.0383430  46.0743770  49.8704440  52.5232210
  46.0002470  50.7739580  52.8304580  45.1722610  49.5516340  52.4954280
  44.4580060  34.0482200  38.5271970  44.1102060  33.3706190  37.9474420
  44.6592830  33.5871710  39.3415360  46.6229100  49.0362950  40.1458570
  47.5179890  49.3747920  40.1677330  46.6546730  48.3142360  39.5182850
  40.2625260  44.4090000  38.3745570  40.7000130  44.9519670  39.0303150
  40.7472990  43.5836950  38.3841910  37.4771060  47.1979030  45.8265830
  37.8074070  46.3300090  45.5944470  37.9062060  47.4037550  46.6570790
  42.0732980  45.5288040  43.4867800  41.7728520  45.4053010  44.3871710
  41.9670470  44.6696630  43.0783530  37.9661270  48.0649620  48.5647460
  37.5292260  48.2450420  49.3971610  38.5338950  48.8224240  48.4229180
  53.6023450  47.5666620  52.8524770  53.0025440  47.6259180  52.1088690
  53.7317350  46.6271600  52.9821620  54.8424900  45.3084440  38.1894480
  54.0117860  45.3761090  38.6601710  55.0196730  46.1988560  37.8861340
  54.2981360  42.0531920  40.6928680  55.0600270  42.6228570  40.7988370
  54.3135730  41.4859120  41.4636990  37.7985700  40.5769850  44.9236340
  37.1434540  40.3081490  44.2796040  38.6363650  40.4674330  44.4738320
  55.3041330  42.9082020  45.5370610  55.6750160  42.1249340  45.1306580
  55.9443260  43.5971120  45.3587910  52.2875090  44.2918600  50.9500930
  51.4734930  44.7215760  51.2126720  52.6949290  44.9037010  50.3369980
  54.3500530  42.3466290  37.8501200  54.6249370  43.2545170  37.7220420
  54.1611270  42.2828820  38.7863190  50.7476140  35.3711140  39.1454830
  51.1661020  35.1842120  38.3051490  50.4412200  34.5190190  39.4557760
  54.2465870  40.2835280  42.8430630  53.8709470  39.5163210  42.4111920
  53.5168990  40.6657980  43.3305560  38.8361630  40.9622420  49.4639680
  39.2034670  40.8749820  50.3435700  38.2672450  40.1988970  49.3646540
  53.6365490  39.4306800  52.4770150  53.4051580  39.2019550  51.5768100
  53.8970040  40.3506350  52.4315040  38.3877630  37.8731510  53.3698100
  37.4933680  37.8398270  53.7091810  38.9275180  38.0718300  54.1349350
  37.0123780  37.7868780  40.8661670  36.1087860  38.0498980  40.6913330
  37.4964400  38.0579950  40.0861630  53.5216830  38.5092770  46.1437870
  54.0454310  38.0155420  45.5128040  54.1076250  38.6443130  46.8885440
  53.7006550  38.5932640  49.6657420  52.7509260  38.5596180  49.7802410
  53.8819560  39.5032750  49.4307190  39.5550990  36.8434320  38.7756050
  40.2642690  36.4217540  38.2903330  38.8390930  36.9109550  38.1439400
  39.2025150  32.8973650  37.8158700  39.9253280  33.4382590  38.1339920
  39.4749670  32.6237070  36.9400240  53.0116800  37.7666120  42.0830280
  53.5075920  37.5336990  42.8679160  52.8132870  36.9277960  41.6667920
  38.8917340  32.1479840  47.7181320  39.5393530  31.5977220  47.2776480
  39.3119180  32.4022990  48.5397130  54.4403960  36.4027070  44.6167960
  54.3303240  36.2483110  45.5550230  55.2011550  35.8748010  44.3743370
  52.7869680  32.3421200  51.0750960  53.4241900  32.9555340  51.4410150
  52.9344570  32.3781860  50.1300190  55.3294230  34.2334990  37.8574100
  56.2543540  34.1016170  37.6492390  55.3070020  34.3127810  38.8110550
  55.4032720  35.0045650  40.4830810  54.6084220  34.9390770  41.0123720
  55.6076000  35.9396290  40.4716160  52.3451140  49.0437200  44.4769200
  52.9410210  48.7221770  43.8003620  52.6029290  48.5709020  45.2682470
  38.6449340  32.3035510  50.4606640  38.2964160  32.7599330  51.2264820
  38.3137040  31.4092640  50.5429070  43.9519740  47.0314700  50.2269550
  43.7111100  47.2989260  49.3400070  44.8922380  47.2020430  50.2820410
  55.2123900  49.0509080  51.0280190  54.7182180  49.4477950  50.3107320
  54.6037190  48.4258290  51.4217470  40.0901740  48.4217360  51.7457610
  39.4962060  48.2902060  52.4847650  40.0825580  47.5855500  51.2799710
  49.5356760  31.7149590  49.9487640  48.6616600  32.0484700  49.7460570
  49.4267510  31.2422770  50.7739510  50.4428740  33.9220460  51.3329360
  50.1142100  33.1072220  50.9531090  51.3911040  33.8790270  51.2095050
  52.8963350  49.6932500  48.3066930  52.4366320  50.4448310  47.9324950
  52.2675810  48.9738970  48.2481730  39.7213970  45.7875740  50.6965650
  38.9948030  45.1681030  50.6291600  39.7823120  46.1816350  49.8263730
  43.3259070  48.0020740  47.4815060  43.8424090  47.3908100  46.9563320
  43.9756450  48.5049520  47.9726070  46.0654570  48.8929230  48.3084040
  46.3532380  48.6383530  47.4317050  46.5777790  48.3406590  48.8989610
  47.2831580  32.6319430  48.8880550  46.5003370  33.1064930  49.1677310
  46.9894510  31.7274260  48.7793730  51.8352650  33.3342530  46.9329640
  52.2760740  33.2787630  46.0851240  51.5660240  34.2500540  47.0039820
  53.6991220  32.9657770  44.9438460  53.6379620  32.0218990  44.7969480
  54.4783250  33.0737860  45.4891920  38.0043970  49.1050130  43.9062410
  37.8366010  48.4720810  44.6044300  37.1378480  49.3109530  43.5556600
  38.6271990  32.9366910  41.4094270  39.3851350  33.0495790  40.8358300
  38.1649160  33.7736110  41.3637700  45.1685800  35.0506180  44.3996580
  44.3560310  34.6763070  44.0592460  45.6727440  34.2951260  44.7017770
  49.6710780  31.7148630  45.6379650  50.2740150  32.2868840  46.1128170
  48.9303770  32.2788070  45.4153550  52.8145380  32.1170190  40.9119930
  53.0096010  33.0153640  41.1787360  52.0275250  31.8857270  41.4052880
  39.6106670  47.7983360  41.3512550  39.0854290  48.1791390  40.6474510
  39.5351250  48.4234130  42.0722260  40.9997140  33.4630960  39.9496240
  41.5289900  32.6760760  39.8204190  41.6325460  34.1422150  40.1831770
  43.1934980  33.2006100  43.0041630  42.5637720  32.4993410  43.1711760
  42.6540120  33.9610230  42.7874790  54.3671990  49.3570900  42.6726490
  54.5424180  48.6708640  42.0287410  53.6693560  49.8817950  42.2803160
  42.2099640  49.7465740  40.2261800  42.9418460  49.4625020  39.6785690
  42.4693310  49.5079020  41.1161180  41.3714430  45.8630470  40.2308130
  40.7423310  46.3315570  40.7793960  41.4862260  45.0179690  40.6654320
  55.5020020  36.6859910  31.9929660  54.7972190  37.0741620  31.4744770
  55.7677940  37.3810200  32.5950590  41.6845190  33.1553280  32.5563730
  41.6863630  33.6725670  31.7509630  40.8549500  32.6783460  32.5333660
  51.4481950  36.6093540  28.2013570  50.7437520  36.8978430  28.7816680
  51.8094110  37.4193650  27.8413130  42.1467140  44.7629260  32.5486410
  42.7641140  45.4380340  32.2670860  41.2860260  45.1717240  32.4573910
  53.0644730  46.2268670  30.4641050  52.3808250  46.8967780  30.4557720
  53.6039020  46.4249320  29.6985910  54.5168870  36.0548330  28.5922780
  53.5693780  36.0887310  28.7238210  54.8418860  36.8687280  28.9772140
  51.8948890  44.7929020  24.2676400  51.7845220  43.8503350  24.3925820
  51.8917140  45.1544660  25.1539160  49.9988910  42.9742640  30.5068840
  50.4157700  42.7602750  29.6722300  50.7228730  43.2315430  31.0777460
  47.4369170  40.4194340  23.6238890  46.5098450  40.3531720  23.8527360
  47.5893990  41.3574470  23.5094130  47.4238250  36.6911340  20.6206050
  46.4841920  36.8525300  20.7058510  47.7421510  37.4097020  20.0742040
  53.9451010  41.3729860  30.5985080  53.1169640  41.4422950  30.1235210
  54.5401490  41.9584170  30.1300910  51.4666460  41.9814640  24.1274140
  50.8478880  41.6434190  23.4800440  51.4490910  41.3374400  24.8353330
  50.9093020  38.1599180  31.5439950  50.4964200  38.9852890  31.7979940
  50.1768970  37.5744220  31.3516310  51.5993120  48.2058510  32.2320930
  51.1223680  49.0130700  32.0393540  50.9154910  47.5536840  32.3847140
  42.6025940  44.3708330  35.2205630  41.7054470  44.5948300  35.4679030
  42.6278810  44.4943270  34.2717030  49.6431160  41.2201450  21.1346890
  50.0824440  40.3823880  20.9884710  50.3559580  41.8530850  21.2211030
  41.4297160  41.2421650  33.7963000  41.2904930  42.1144450  34.1650400
  40.5478520  40.8994460  33.6510940  43.2277510  47.1843350  36.0048150
  43.1992940  47.5886300  35.1376580  43.0642480  46.2553710  35.8419750
  53.2248300  32.4744260  19.4487930  52.9120960  32.5671090  20.3487000
  53.9860770  33.0525290  19.3985360  55.1792330  47.9670450  37.3012320
  55.6552050  48.4453340  37.9801400  55.7999490  47.8987940  36.5757820
  54.5825580  45.1583300  34.4612330  54.7088640  44.9195180  33.5429510
  54.6246960  44.3267840  34.9334410  48.4442320  48.8611300  33.0307140
  48.9586990  48.7719310  33.8329570  47.6011400  49.2071000  33.3235050
  50.4196720  49.1466640  22.4591140  50.2597860  48.8569580  23.3572970
  50.2543430  48.3706770  21.9236370  50.1222850  46.6554200  21.0189140
  49.4288010  46.6531490  20.3591420  50.8645710  46.2313520  20.5883310
  54.4349590  37.2115760  35.4262070  53.8193860  37.7195430  34.8977530
  54.1146010  36.3114090  35.3688010  37.4375330  44.0533370  32.2528370
  37.6006370  43.5838730  31.4347740  37.9027780  43.5456930  32.9177210
  46.4963910  36.0507650  32.8924260  46.0343280  36.2590670  33.7044200
  46.0942020  35.2367000  32.5894930  51.4968420  37.2716600  34.0220920
  50.6462010  36.9722350  34.3429990  51.3370210  37.5158610  33.1104740
  48.5918130  38.7718350  36.1219710  48.9171540  37.9382100  35.7821940
  49.3798460  39.2946870  36.2698040  45.3252920  32.8049830  22.1694770
  44.7007100  32.8009700  22.8948080  45.2383040  31.9380790  21.7730740
  49.2306080  38.3136070  23.6160840  48.6314970  39.0371870  23.4324460
  49.7785690  38.2512850  22.8337290  44.4407530  39.2058280  35.6830460
  44.3451130  38.2653010  35.5330860  45.2839510  39.4273350  35.2878530
  39.5718070  35.6171950  33.8364240  39.1781460  36.4647160  34.0437020
  38.8836470  34.9798320  34.0272880  46.1463120  35.7006920  36.9060980
  45.4561440  35.5079120  37.5407070  46.8895420  35.9841560  37.4385280
  37.0605350  37.4820530  19.0797040  36.9780020  38.4251290  19.2212030
  36.7088410  37.3395440  18.2009390  44.9223630  37.2171640  21.1374150
  45.0436450  37.1758120  22.0859970  44.5372140  38.0795790  20.9820880
  43.9345130  39.5272780  20.5357450  43.3662030  39.0791030  19.9093360
  44.6434130  39.8865560  20.0022600  52.3122750  32.4071220  34.9924220
  52.6368520  31.6760880  35.5182200  52.3479260  32.0884860  34.0905210
  39.0114310  43.4284800  34.4124180  38.6269100  42.7878470  35.0107140
  39.3226500  44.1320920  34.9818910  42.9510820  39.3169980  32.2117010
  42.6467890  40.1961960  32.4367370  43.9057280  39.3769770  32.2474450
  41.4792610  43.5230970  22.8083860  40.7054870  42.9828590  22.6482580
  42.2087240  43.0037580  22.4701620  52.2380590  42.5196330  28.6010250
  52.9579710  43.0151620  28.2106360  52.0362410  41.8414220  27.9564120
  47.6990530  33.9134290  22.7439640  46.8855140  33.4147460  22.6684950
  47.5052480  34.7532540  22.3275990  47.6199390  42.5905390  34.4879250
  47.5536700  41.6701060  34.2336840  46.9904530  42.6880830  35.2023890
  50.4138920  38.2853940  21.0401800  51.3018540  38.5971170  20.8653140
  50.3844010  37.4126190  20.6482380  46.4099510  44.4577630  21.7189970
  46.7515210  45.2019860  21.2233290  45.5812220  44.7708750  22.0814800
  39.0074550  40.1572720  33.3588370  38.6489490  40.8226570  33.9461710
  38.7129110  39.3256270  33.7300990  42.2087670  40.6156960  36.2427920
  41.9087810  40.7614140  35.3455740  42.9798910  40.0562250  36.1501310
  47.5516120  45.4125960  34.2383050  47.5660660  44.4806920  34.0201960
  46.8441220  45.4985720  34.8772820  52.6853190  39.5965780  20.5081660
  52.6016910  40.0280000  19.6578100  53.4047380  40.0564130  20.9408480
  53.7627330  42.0533300  33.5851630  53.0375520  42.6462080  33.3881020
  54.2902790  42.0456840  32.7865000  53.7140440  46.4508040  23.2363790
  53.0716600  45.7963660  23.5107510  53.3271100  46.8563130  22.4604460
  37.5182600  40.1563980  19.9822970  38.3877450  40.4388780  20.2658890
  37.0272920  40.9699850  19.8671780  46.9850020  47.0543530  31.3323550
  47.6292240  47.2602910  32.0096970  47.3479460  46.2931930  30.8794400
  52.1037820  45.3424500  19.7740140  51.8775400  44.6254940  20.3664780
  51.7134020  45.0936940  18.9361890  50.0319720  45.8570780  33.2537060
  50.3675960  46.4437470  33.9314980  49.1120060  45.7263490  33.4834850
  37.8853850  49.3691360  20.5484600  38.2451490  49.9680700  19.8941870
  37.7446190  49.9151250  21.3219630  37.5823120  33.6465960  34.0360470
  36.8681640  33.8462880  34.6413080  38.0018160  32.8705530  34.4075270
  51.6854070  43.2596440  21.4354300  51.3975770  43.7209130  22.2232180
  52.4806240  42.7994210  21.7038520  37.8695710  47.6346220  35.0227000
  37.9786830  46.6940960  34.8822390  37.2176270  47.9000970  34.3740730
  45.8608300  45.9062110  36.4225120  45.5405170  45.1871350  36.9670810
  45.1866660  46.5817180  36.4961180  43.9022470  46.7522560  21.3658270
  43.8932570  47.4852250  20.7502780  42.9820830  46.5054140  21.4585230
  49.0761900  36.1388270  31.7861920  49.4442720  35.3183480  32.1141490
  48.2160100  36.1990160  32.2017570  52.4423930  35.0945210  22.5949480
  51.8137090  35.1990880  21.8807710  51.9475850  35.3141990  23.3843360
  46.8882070  46.8150800  20.0283460  46.9894050  46.6114790  19.0985440
  45.9883810  46.5609080  20.2331240  46.0363890  38.7927860  32.0099890
  46.5349140  39.2673680  32.6751740  46.1786840  37.8691380  32.2169920
  42.6142980  35.6816240  21.3858070  43.4633510  36.1186390  21.3198260
  42.2474250  35.9936500  22.2130130  53.2430750  35.0095820  32.8528280
  52.7404350  35.7501220  33.1922090  54.0587410  35.3979820  32.5365070
  51.5352760  40.2529000  26.2989640  50.5942900  40.2679230  26.4737330
  51.8496830  39.4664960  26.7449940  41.5134400  41.9348600  19.8593600
  42.2797670  41.8229960  20.4219030  41.5909090  41.2386570  19.2070370
  40.2081160  39.3673670  20.5426490  40.2884750  38.4201180  20.6543890
  41.1000910  39.6980550  20.6487150  53.5378340  47.4237850  27.9743900
  53.6625760  48.2469020  28.4467710  54.4043900  47.2128580  27.6268050
  37.8941350  45.5842630  23.5202540  36.9681130  45.8263770  23.5107950
  38.3597780  46.4116890  23.3987290  40.0154150  48.7015130  36.8346610
  40.8166880  49.0227180  37.2482010  39.5005970  48.3410710  37.5566520
  44.1198180  48.6899370  19.4686600  44.9126790  48.9788200  19.0168390
  43.6002530  48.2591540  18.7899080  48.8518780  44.8095000  36.7822020
  48.2456940  44.8326600  36.0417770  48.5472890  44.0778040  37.3189270
  50.2819150  48.5375290  35.3931430  51.2340900  48.4533310  35.3431670
  50.1347370  49.2017000  36.0665220  53.1728350  47.9169500  20.8923340
  52.8869860  47.5034640  20.0777520  52.9747900  48.8457210  20.7723860
  37.7351960  41.1888590  35.7782660  38.2390980  40.6095870  36.3498890
  36.9959380  41.4728820  36.3159030  44.6375580  43.9102780  19.3328950
  44.5326220  43.2955130  20.0590330  44.4699800  43.3868670  18.5491960
  44.7889900  42.5959580  35.3118180  44.0235570  43.1644580  35.2272850
  44.9705860  42.3035790  34.4186410  47.8778310  42.9722810  19.9370940
  47.3288410  43.4192110  20.5813680  48.4997570  42.4672060  20.4608610
  51.9313250  44.3264910  35.8693200  52.6722720  44.6640670  35.3660660
  51.1685930  44.4956970  35.3162970  39.7675040  39.3318180  36.6732730
  39.8080380  39.0332050  37.5817960  40.6220540  39.7325790  36.5140250
  43.5453430  41.9313730  21.8336240  43.9669850  41.7653600  22.6767630
  43.6704270  41.1213960  21.3391380  41.7080850  37.9110280  34.6407220
  41.1777310  37.4201230  34.0130560  42.3768920  38.3394480  34.1065150
  46.0581070  40.9551340  19.0813340  46.5786730  40.2400360  18.7154490
  46.7049470  41.5937210  19.3813850  50.6058910  42.3779740  34.4048410
  51.0199930  42.5324820  35.2538830  49.6709910  42.5034960  34.5674190
  51.0781080  39.7175900  36.4087560  51.6601850  38.9628220  36.3208040
  51.2542850  40.2483340  35.6319040  42.1953150  34.8772650  34.7204510
  42.1010020  34.2593400  33.9955380  41.6150540  35.6038940  34.4934420
  45.3674140  42.3300220  32.3744340  45.7862250  43.1732950  32.2020580
  44.4482770  42.4672260  32.1451120  47.7038040  40.0616400  33.7582180
  47.8234250  39.4657540  34.4977020  48.5632040  40.0986090  33.3383480
  50.0425940  40.6153590  32.3344690  49.5161160  41.1396210  31.7309830
  50.3857280  41.2480980  32.9654420  42.4412330  38.0046960  18.7794400
  42.2401390  37.1414320  19.1407740  42.2704380  37.9180320  17.8416000
  43.2181560  48.6353230  33.4902070  42.6802650  49.3599290  33.1710770
  43.4715520  48.1583570  32.6999410  44.4706810  36.6037750  35.0158000
  45.0606500  36.2953600  35.7035820  43.6527050  36.1317500  35.1717900
  49.2900240  36.2203560  35.2491020  48.6015760  35.5585100  35.1841010
  50.0106260  35.7741830  35.6939480  49.9200640  32.8155190  21.3081280
  50.2002930  31.9723090  21.6640700  49.1466370  33.0478300  21.8220030
  41.2395130  35.1047580  18.7672280  41.5421030  35.1115010  17.8591430
  41.9789720  34.7545440  19.2639940  46.0743770  49.8704440  33.7488720
  46.0002470  50.7739580  34.0561090  45.1722610  49.5516340  33.7210790
  44.4580060  34.0482200  19.7528480  44.1102060  33.3706190  19.1730930
  44.6592830  33.5871710  20.5671870  46.6229100  49.0362950  21.3715080
  47.5179890  49.3747920  21.3933840  46.6546730  48.3142360  20.7439360
  40.2625260  44.4090000  19.6002080  40.7000130  44.9519670  20.2559660
  40.7472990  43.5836950  19.6098420  53.6023450  47.5666620  34.0781280
  53.0025440  47.6259180  33.3345200  53.7317350  46.6271600  34.2078130
  54.8424900  45.3084440  19.4150990  54.0117860  45.3761090  19.8858220
  55.0196730  46.1988560  19.1117850  54.2981360  42.0531920  21.9185190
  55.0600270  42.6228570  22.0244880  54.3135730  41.4859120  22.6893500
  55.3041330  42.9082020  26.7627120  55.6750160  42.1249340  26.3563090
  55.9443260  43.5971120  26.5844420  52.2875090  44.2918600  32.1757440
  51.4734930  44.7215760  32.4383230  52.6949290  44.9037010  31.5626490
  54.3500530  42.3466290  19.0757710  54.6249370  43.2545170  18.9476930
  54.1611270  42.2828820  20.0119700  50.7476140  35.3711140  20.3711340
  51.1661020  35.1842120  19.5308000  50.4412200  34.5190190  20.6814270
  54.2465870  40.2835280  24.0687140  53.8709470  39.5163210  23.6368430
  53.5168990  40.6657980  24.5562070  53.6365490  39.4306800  33.7026660
  53.4051580  39.2019550  32.8024610  53.8970040  40.3506350  33.6571550
  38.3877630  37.8731510  34.5954610  37.4933680  37.8398270  34.9348320
  38.9275180  38.0718300  35.3605860  52.0753560  34.6563230  36.4806360
  52.9523740  34.6646630  36.8640360  52.0874400  33.9194070  35.8698710
  53.5216830  38.5092770  27.3694380  54.0454310  38.0155420  26.7384550
  54.1076250  38.6443130  28.1141950  53.7006550  38.5932640  30.8913930
  52.7509260  38.5596180  31.0058920  53.8819560  39.5032750  30.6563700
  39.5550990  36.8434320  20.0012560  40.2642690  36.4217540  19.5159840
  38.8390930  36.9109550  19.3695910  39.2025150  32.8973650  19.0415210
  39.9253280  33.4382590  19.3596430  39.4749670  32.6237070  18.1656750
  53.0116800  37.7666120  23.3086790  53.5075920  37.5336990  24.0935670
  52.8132870  36.9277960  22.8924430  54.4403960  36.4027070  25.8424470
  54.3303240  36.2483110  26.7806740  55.2011550  35.8748010  25.5999880
  52.7869680  32.3421200  32.3007470  53.4241900  32.9555340  32.6666660
  52.9344570  32.3781860  31.3556700  55.3294230  34.2334990  19.0830610
  56.2543540  34.1016170  18.8748900  55.3070020  34.3127810  20.0367060
  55.4032720  35.0045650  21.7087320  54.6084220  34.9390770  22.2380230
  55.6076000  35.9396290  21.6972670  52.3451140  49.0437200  25.7025710
  52.9410210  48.7221770  25.0260130  52.6029290  48.5709020  26.4938980
  38.6449340  32.3035510  31.6863150  38.2964160  32.7599330  32.4521330
  38.3137040  31.4092640  31.7685580  40.2513710  45.4755110  35.8516340
  40.2083340  45.1048020  36.7330800  40.3824720  46.4132680  35.9918160
  43.9519740  47.0314700  31.4526060  43.7111100  47.2989260  30.5656580
  44.8922380  47.2020430  31.5076920  46.1574160  33.4947390  35.2082570
  46.0963050  34.0869220  35.9577980  47.0974540  33.3873350  35.0632830
  48.7948720  33.1517450  34.8474860  49.4089130  33.4696740  34.1855940
  49.3398280  32.6666040  35.4670720  55.2123900  49.0509080  32.2536700
  54.7182180  49.4477950  31.5363830  54.6037190  48.4258290  32.6473980
  39.3169980  31.8311710  34.9613920  39.8652970  31.6499760  34.1980030
  39.3825290  31.0405820  35.4970230  40.0901740  48.4217360  32.9714120
  39.4962060  48.2902060  33.7104160  40.0825580  47.5855500  32.5056220
  49.5356760  31.7149590  31.1744150  48.6616600  32.0484700  30.9717080
  49.4267510  31.2422770  31.9996020  50.4428740  33.9220460  32.5585870
  50.1142100  33.1072220  32.1787600  51.3911040  33.8790270  32.4351560
  39.7213970  45.7875740  31.9222160  38.9948030  45.1681030  31.8548110
  39.7823120  46.1816350  31.0520240  53.6991220  32.9657770  26.1694970
  53.6379620  32.0218990  26.0225990  54.4783250  33.0737860  26.7148430
  38.6271990  32.9366910  22.6350780  39.3851350  33.0495790  22.0614810
  38.1649160  33.7736110  22.5894210  52.8145380  32.1170190  22.1376440
  53.0096010  33.0153640  22.4043870  52.0275250  31.8857270  22.6309390
  39.6106670  47.7983360  22.5769060  39.0854290  48.1791390  21.8731020
  39.5351250  48.4234130  23.2978770  40.9997140  33.4630960  21.1752750
  41.5289900  32.6760760  21.0460700  41.6325460  34.1422150  21.4088280
  46.1326930  49.8145330  36.9008750  47.0594240  49.5789600  36.9444710
  46.1177360  50.6417330  36.4194780  54.3671990  49.3570900  23.8983000
  54.5424180  48.6708640  23.2543920  53.6693560  49.8817950  23.5059670
  43.3190540  32.4790080  36.6650630  43.0374810  32.9823680  35.9011450
  43.7010240  31.6811830  36.2992760  42.2099640  49.7465740  21.4518310
  42.9418460  49.4625020  20.9042200  42.4693310  49.5079020  22.3417690
  41.3714430  45.8630470  21.4564640  40.7423310  46.3315570  22.0050470
  41.4862260  45.0179690  21.8910830  49.9206000  31.8943660  37.2431100
  49.8071450  32.2138270  38.1382620  50.7375740  32.2956170  36.9468380
  52.7004490  49.0415190  36.7249790  53.4929810  48.5464420  36.5175750
  52.9937640  49.7205330  37.3325400  48.8264150  39.9136130   7.6065840
  48.7458200  38.9990740   7.3357550  48.4128570  40.4103200   6.9005550
  46.9582190  41.6915150   9.4875110  46.1824290  41.2115590   9.7773680
  47.6095120  41.0120800   9.3131270  40.9748020  42.0034960  10.3650870
  40.1432900  41.7483670  10.7647380  41.5829000  42.0745730  11.1008790
  50.9789620  46.0975340   8.2674240  50.5171150  45.3262580   8.5961410
  51.7915170  46.1241410   8.7726690  40.9549280  46.0375050  10.5608890
  41.2577320  45.1472790  10.3819110  41.6992870  46.5945270  10.3331140
  39.3839970  36.9636850   4.1493260  38.4956670  37.3052820   4.0473140
  39.6681160  36.7637170   3.2574090  37.3472980  39.5642500  10.0332960
  37.9189090  38.7964700  10.0336600  37.3474520  39.8631260   9.1239570
  47.2052930  48.3833350   7.8878230  46.5864370  48.8390850   7.3172670
  48.0604710  48.5384810   7.4867930  46.3991180  44.3672340   9.4945270
  46.3299460  43.4262280   9.3334400  47.1611040  44.4573750  10.0667840
  38.5897850  34.9726860  11.8201890  38.4100690  34.0752610  12.1004650
  38.1877930  35.5198730  12.4948840  47.4296350  37.1742720   9.7214200
  47.8061170  36.3014600   9.6087870  47.3315860  37.5101420   8.8304640
  41.5601360  35.5468350   5.1831640  41.6668110  36.4472080   5.4900400
  40.6493720  35.4986320   4.8926290  51.2120470  34.6693160   6.6542540
  52.0330090  34.1789730   6.6968020  51.2454550  35.2590820   7.4074380
  39.2084520  37.4687360  10.4284230  39.8894630  37.7325730  11.0471630
  38.8932570  36.6288230  10.7622240  43.4009090  38.5154720   9.5156820
  43.9087310  39.0135690  10.1561840  43.9322330  37.7389920   9.3396180
  55.5020020  36.6859910  13.2186170  54.7972190  37.0741620  12.7001280
  55.7677940  37.3810200  13.8207100  41.6845190  33.1553280  13.7820240
  41.6863630  33.6725670  12.9766140  40.8549500  32.6783460  13.7590170
  48.0716280  43.2672590   5.2810140  47.4533550  43.7322040   4.7172860
  48.5839530  43.9600070   5.6979650  42.9348040  42.7948460  11.9593740
  42.6017420  43.4217380  12.6014810  43.1114720  43.3210340  11.1795410
  51.4481950  36.6093540   9.4270080  50.7437520  36.8978430  10.0073190
  51.8094110  37.4193650   9.0669640  41.3660520  34.8663240  11.7890690
  41.7077330  35.7105290  11.4944560  40.4276330  35.0146980  11.9056030
  42.1467140  44.7629260  13.7742920  42.7641140  45.4380340  13.4927370
  41.2860260  45.1717240  13.6830420  37.4399480  43.9529120   2.6549770
  37.0627460  44.4416220   1.9234670  37.6972550  44.6254400   3.2856300
  53.0644730  46.2268670  11.6897560  52.3808250  46.8967780  11.6814230
  53.6039020  46.4249320  10.9242420  54.5168870  36.0548330   9.8179290
  53.5693780  36.0887310   9.9494720  54.8418860  36.8687280  10.2028650
  45.0488410  32.3545510   8.1135280  45.3563390  31.7992400   7.3970780
  44.1189110  32.4889970   7.9308270  50.6003470  48.0712800  10.4042740
  50.6130630  47.6675090   9.5365000  50.0478690  48.8460090  10.3004170
  51.8948890  44.7929020   5.4932910  51.7845220  43.8503350   5.6182330
  51.8917140  45.1544660   6.3795670  49.9988910  42.9742640  11.7325350
  50.4157700  42.7602750  10.8978810  50.7228730  43.2315430  12.3033970
  47.4369170  40.4194340   4.8495400  46.5098450  40.3531720   5.0783870
  47.5893990  41.3574470   4.7350640  53.9451010  41.3729860  11.8241590
  53.1169640  41.4422950  11.3491720  54.5401490  41.9584170  11.3557420
  51.4666460  41.9814640   5.3530650  50.8478880  41.6434190   4.7056950
  51.4490910  41.3374400   6.0609840  50.9093020  38.1599180  12.7696460
  50.4964200  38.9852890  13.0236450  50.1768970  37.5744220  12.5772820
  43.0425810  40.9459080   7.6315130  42.6382810  40.2336330   7.1361030
  43.1288930  40.6012320   8.5203170  43.5107510  44.6326640   9.7954340
  43.2135800  44.0272110   9.1162120  44.4607330  44.6703950   9.6843700
  41.7554430  37.7202290  11.4114170  42.3069020  37.8297630  10.6367420
  42.2697940  38.0939890  12.1269400  51.5993120  48.2058510  13.4577440
  51.1223680  49.0130700  13.2650050  50.9154910  47.5536840  13.6103650
  42.6025940  44.3708330  16.4462140  41.7054470  44.5948300  16.6935540
  42.6278810  44.4943270  15.4973540  49.6431160  41.2201450   2.3603400
  50.0824440  40.3823880   2.2141220  50.3559580  41.8530850   2.4467540
  41.4297160  41.2421650  15.0219510  41.2904930  42.1144450  15.3906910
  40.5478520  40.8994460  14.8767450  47.7526540  46.1597520   6.3284640
  48.1922450  46.9021850   5.9140030  47.6913430  46.4024090   7.2523600
  43.2277510  47.1843350  17.2304660  43.1992940  47.5886300  16.3633090
  43.0642480  46.2553710  17.0676260  39.7430440  39.8404060   5.1321780
  39.6228040  40.5666150   4.5203050  39.4331330  39.0706970   4.6549690
  55.1792330  47.9670450  18.5268830  55.6552050  48.4453340  19.2057910
  55.7999490  47.8987940  17.8014330  37.3815810  43.0119200  10.9390420
  37.4596230  43.1467970   9.9946140  37.9957490  42.3035090  11.1318540
  38.6263440  44.7119390   7.3496600  38.2191520  44.8533980   6.4950200
  39.5176450  44.4279550   7.1467810  54.5825580  45.1583300  15.6868840
  54.7088640  44.9195180  14.7686020  54.6246960  44.3267840  16.1590920
  48.4442320  48.8611300  14.2563650  48.9586990  48.7719310  15.0586080
  47.6011400  49.2071000  14.5491560  50.4196720  49.1466640   3.6847650
  50.2597860  48.8569580   4.5829480  50.2543430  48.3706770   3.1492880
  42.8985100  48.9265170   5.4619270  42.7227580  48.0100710   5.2487070
  42.0440840  49.2852460   5.7017070  49.6872780  48.2816910   6.3194140
  50.1429730  47.5006290   6.6332760  50.0265300  48.9923730   6.8635320
  54.4349590  37.2115760  16.6518580  53.8193860  37.7195430  16.1234040
  54.1146010  36.3114090  16.5944520  37.4375330  44.0533370  13.4784880
  37.6006370  43.5838730  12.6604250  37.9027780  43.5456930  14.1433720
  42.2094100  33.1839130   8.5145450  41.7662250  33.9648670   8.1829970
  42.7679090  33.5069020   9.2216390  46.4963910  36.0507650  14.1180770
  46.0343280  36.2590670  14.9300710  46.0942020  35.2367000  13.8151440
  51.4968420  37.2716600  15.2477430  50.6462010  36.9722350  15.5686500
  51.3370210  37.5158610  14.3361250  48.5918130  38.7718350  17.3476220
  48.9171540  37.9382100  17.0078450  49.3798460  39.2946870  17.4954550
  45.3252920  32.8049830   3.3951280  44.7007100  32.8009700   4.1204590
  45.2383040  31.9380790   2.9987250  44.2470000  33.7286460  10.3735050
  44.5442330  34.6349290  10.2927070  44.7955560  33.2405240   9.7594620
  42.0008320  38.3072700   6.2426700  41.7749240  38.0909870   7.1473320
  41.2200850  38.7401160   5.8972670  49.2306080  38.3136070   4.8417350
  48.6314970  39.0371870   4.6580970  49.7785690  38.2512850   4.0593800
  44.4407530  39.2058280  16.9086970  44.3451130  38.2653010  16.7587370
  45.2839510  39.4273350  16.5135040  47.8370950  36.9499610   6.8720630
  48.2300520  37.2671810   6.0589320  48.1987800  36.0711490   6.9865150
  39.5718070  35.6171950  15.0620750  39.1781460  36.4647160  15.2693530
  38.8836470  34.9798320  15.2529390  46.1463120  35.7006920  18.1317490
  45.4561440  35.5079120  18.7663580  46.8895420  35.9841560  18.6641790
  36.8735120  33.5400410   9.0950830  36.5848170  34.1103270   9.8075810
  37.6180880  33.0604860   9.4582060  48.4226090  39.5405360  10.9671410
  47.6907210  40.0492170  11.3161510  48.0250430  38.7235340  10.6660190
  44.8603480  36.2159560   9.3723900  44.8639540  35.7749510   8.5228440
  45.7554600  36.5376890   9.4795720  40.7105860  36.0986050   8.3318110
  40.3705910  36.5761280   9.0885160  39.9483180  35.6451170   7.9719210
  44.9223630  37.2171640   2.3630660  45.0436450  37.1758120   3.3116480
  44.5372140  38.0795790   2.2077390  48.8852000  34.9939040  10.3794350
  48.9024740  35.4447690  11.2236200  48.6367580  34.0944680  10.5927790
  52.3122750  32.4071220  16.2180730  52.6368520  31.6760880  16.7438710
  52.3479260  32.0884860  15.3161720  39.0114310  43.4284800  15.6380690
  38.6269100  42.7878470  16.2363650  39.3226500  44.1320920  16.2075420
  45.1611450  40.2761340  11.1189310  45.5281580  39.8019910  11.8650650
  44.9716510  41.1502910  11.4597650  38.0251940  35.0205030   7.2482780
  37.7398860  34.6560700   8.0861400  37.9630800  34.2885490   6.6345920
  42.9510820  39.3169980  13.4373520  42.6467890  40.1961960  13.6623880
  43.9057280  39.3769770  13.4730960  41.4792610  43.5230970   4.0340370
  40.7054870  42.9828590   3.8739090  42.2087240  43.0037580   3.6958130
  52.2380590  42.5196330   9.8266760  52.9579710  43.0151620   9.4362870
  52.0362410  41.8414220   9.1820630  47.6990530  33.9134290   3.9696150
  46.8855140  33.4147460   3.8941460  47.5052480  34.7532540   3.5532500
  47.6199390  42.5905390  15.7135760  47.5536700  41.6701060  15.4593350
  46.9904530  42.6880830  16.4280400  50.4138920  38.2853940   2.2658310
  51.3018540  38.5971170   2.0909650  50.3844010  37.4126190   1.8738890
  41.5230010  43.1911350   7.6719180  42.0408680  42.3879610   7.6176070
  41.0714030  43.1290490   8.5136010  46.4099510  44.4577630   2.9446480
  46.7515210  45.2019860   2.4489800  45.5812220  44.7708750   3.3071310
  39.0074550  40.1572720  14.5844880  38.6489490  40.8226570  15.1718220
  38.7129110  39.3256270  14.9557500  42.2087670  40.6156960  17.4684430
  41.9087810  40.7614140  16.5712250  42.9798910  40.0562250  17.3757820
  47.5516120  45.4125960  15.4639560  47.5660660  44.4806920  15.2458470
  46.8441220  45.4985720  16.1029330  53.7627330  42.0533300  14.8108140
  53.0375520  42.6462080  14.6137530  54.2902790  42.0456840  14.0121510
  53.7140440  46.4508040   4.4620300  53.0716600  45.7963660   4.7364020
  53.3271100  46.8563130   3.6860970  49.2926920  43.7793470   8.3091990
  49.6450740  43.1821600   7.6493360  48.4089250  43.4537700   8.4800240
  45.3790200  44.5391160   5.7162400  46.0661330  45.0860370   6.0969990
  44.5922620  45.0831890   5.7512010  44.6817410  41.5437190   5.3287760
  45.1380190  42.3542440   5.5547950  44.3305620  41.2260330   6.1606250
  46.9850020  47.0543530  12.5580060  47.6292240  47.2602910  13.2353480
  47.3479460  46.2931930  12.1050910  40.5829190  31.8874840   5.8010280
  40.4543820  31.8792740   6.7495200  39.7591210  32.2257930   5.4501290
  48.2582100  45.0575880  11.2757510  48.9004330  44.3569040  11.3889680
  48.7831450  45.8374320  11.0954400  50.0319720  45.8570780  14.4793570
  50.3675960  46.4437470  15.1571490  49.1120060  45.7263490  14.7091360
  37.5823120  33.6465960  15.2616980  36.8681640  33.8462880  15.8669590
  38.0018160  32.8705530  15.6331780  51.6854070  43.2596440   2.6610810
  51.3975770  43.7209130   3.4488690  52.4806240  42.7994210   2.9295030
  37.8695710  47.6346220  16.2483510  37.9786830  46.6940960  16.1078900
  37.2176270  47.9000970  15.5997240  45.8608300  45.9062110  17.6481630
  45.5405170  45.1871350  18.1927320  45.1866660  46.5817180  17.7217690
  43.9022470  46.7522560   2.5914780  43.8932570  47.4852250   1.9759290
  42.9820830  46.5054140   2.6841740  39.5029110  41.9737450   3.3361540
  38.8957060  42.7136350   3.3456840  39.9778460  42.0636810   2.5099740
  49.0761900  36.1388270  13.0118430  49.4442720  35.3183480  13.3398000
  48.2160100  36.1990160  13.4274080  52.4423930  35.0945210   3.8205990
  51.8137090  35.1990880   3.1064220  51.9475850  35.3141990   4.6099870
  44.4107960  37.3731160   5.2363870  43.7024110  37.8417500   5.6777480
  44.6952440  36.7153170   5.8709060  46.0363890  38.7927860  13.2356400
  46.5349140  39.2673680  13.9008250  46.1786840  37.8691380  13.4426430
  48.4423390  34.0981820   6.6759660  48.3191170  34.1167950   5.7269170
  49.3907950  34.1460760   6.7958060  45.5300180  49.3337120   5.9487640
  45.7841680  49.2958510   5.0267010  44.5812660  49.2070450   5.9415890
  42.6142980  35.6816240   2.6114580  43.4633510  36.1186390   2.5454770
  42.2474250  35.9936500   3.4386640  53.2430750  35.0095820  14.0784790
  52.7404350  35.7501220  14.4178600  54.0587410  35.3979820  13.7621580
  51.5352760  40.2529000   7.5246150  50.5942900  40.2679230   7.6993840
  51.8496830  39.4664960   7.9706450  40.2081160  39.3673670   1.7683000
  40.2884750  38.4201180   1.8800400  41.1000910  39.6980550   1.8743660
  53.5378340  47.4237850   9.2000410  53.6625760  48.2469020   9.6724220
  54.4043900  47.2128580   8.8524560  41.0095870  49.5169060   8.8717540
  41.7458350  48.9684520   9.1426110  41.3936790  50.3825070   8.7323530
  37.8941350  45.5842630   4.7459050  36.9681130  45.8263770   4.7364460
  38.3597780  46.4116890   4.6243800  40.0154150  48.7015130  18.0603120
  40.8166880  49.0227180  18.4738520  39.5005970  48.3410710  18.7823030
  48.8518780  44.8095000  18.0078530  48.2456940  44.8326600  17.2674280
  48.5472890  44.0778040  18.5445780  50.2819150  48.5375290  16.6187940
  51.2340900  48.4533310  16.5688180  50.1347370  49.2017000  17.2921730
  37.7351960  41.1888590  17.0039170  38.2390980  40.6095870  17.5755400
  36.9959380  41.4728820  17.5415540  44.7889900  42.5959580  16.5374690
  44.0235570  43.1644580  16.4529360  44.9705860  42.3035790  15.6442920
  51.9313250  44.3264910  17.0949710  52.6722720  44.6640670  16.5917170
  51.1685930  44.4956970  16.5419480  39.7675040  39.3318180  17.8989240
  39.8080380  39.0332050  18.8074470  40.6220540  39.7325790  17.7396760
  43.5453430  41.9313730   3.0592750  43.9669850  41.7653600   3.9024140
  43.6704270  41.1213960   2.5647890  41.7080850  37.9110280  15.8663730
  41.1777310  37.4201230  15.2387070  42.3768920  38.3394480  15.3321660
  50.6058910  42.3779740  15.6304920  51.0199930  42.5324820  16.4795340
  49.6709910  42.5034960  15.7930700  51.0781080  39.7175900  17.6344070
  51.6601850  38.9628220  17.5464550  51.2542850  40.2483340  16.8575550
  42.1953150  34.8772650  15.9461020  42.1010020  34.2593400  15.2211890
  41.6150540  35.6038940  15.7190930  44.9614590  33.4345890  12.9788410
  44.5131890  33.4570150  12.1333960  44.3279790  33.0364910  13.5758710
  45.3674140  42.3300220  13.6000850  45.7862250  43.1732950  13.4277090
  44.4482770  42.4672260  13.3707630  47.7038040  40.0616400  14.9838690
  47.8234250  39.4657540  15.7233530  48.5632040  40.0986090  14.5639990
  50.0425940  40.6153590  13.5601200  49.5161160  41.1396210  12.9566340
  50.3857280  41.2480980  14.1910930  43.2181560  48.6353230  14.7158580
  42.6802650  49.3599290  14.3967280  43.4715520  48.1583570  13.9255920
  44.4706810  36.6037750  16.2414510  45.0606500  36.2953600  16.9292330
  43.6527050  36.1317500  16.3974410  49.2900240  36.2203560  16.4747530
  48.6015760  35.5585100  16.4097520  50.0106260  35.7741830  16.9195990
  49.9200640  32.8155190   2.5337790  50.2002930  31.9723090   2.8897210
  49.1466370  33.0478300   3.0476540  46.0743770  49.8704440  14.9745230
  46.0002470  50.7739580  15.2817600  45.1722610  49.5516340  14.9467300
  46.6229100  49.0362950   2.5971590  47.5179890  49.3747920   2.6190350
  46.6546730  48.3142360   1.9695870  37.4771060  47.1979030   8.2778850
  37.8074070  46.3300090   8.0457490  37.9062060  47.4037550   9.1083810
  42.0732980  45.5288040   5.9380820  41.7728520  45.4053010   6.8384730
  41.9670470  44.6696630   5.5296550  37.9661270  48.0649620  11.0160480
  37.5292260  48.2450420  11.8484630  38.5338950  48.8224240  10.8742200
  53.6023450  47.5666620  15.3037790  53.0025440  47.6259180  14.5601710
  53.7317350  46.6271600  15.4334640  54.2981360  42.0531920   3.1441700
  55.0600270  42.6228570   3.2501390  54.3135730  41.4859120   3.9150010
  37.7985700  40.5769850   7.3749360  37.1434540  40.3081490   6.7309060
  38.6363650  40.4674330   6.9251340  55.3041330  42.9082020   7.9883630
  55.6750160  42.1249340   7.5819600  55.9443260  43.5971120   7.8100930
  52.2875090  44.2918600  13.4013950  51.4734930  44.7215760  13.6639740
  52.6949290  44.9037010  12.7883000  54.2465870  40.2835280   5.2943650
  53.8709470  39.5163210   4.8624940  53.5168990  40.6657980   5.7818580
  38.8361630  40.9622420  11.9152700  39.2034670  40.8749820  12.7948720
  38.2672450  40.1988970  11.8159560  53.6365490  39.4306800  14.9283170
  53.4051580  39.2019550  14.0281120  53.8970040  40.3506350  14.8828060
  38.3877630  37.8731510  15.8211120  37.4933680  37.8398270  16.1604830
  38.9275180  38.0718300  16.5862370  52.0753560  34.6563230  17.7062870
  52.9523740  34.6646630  18.0896870  52.0874400  33.9194070  17.0955220
  37.0123780  37.7868780   3.3174690  36.1087860  38.0498980   3.1426350
  37.4964400  38.0579950   2.5374650  53.5216830  38.5092770   8.5950890
  54.0454310  38.0155420   7.9641060  54.1076250  38.6443130   9.3398460
  53.7006550  38.5932640  12.1170440  52.7509260  38.5596180  12.2315430
  53.8819560  39.5032750  11.8820210  53.0116800  37.7666120   4.5343300
  53.5075920  37.5336990   5.3192180  52.8132870  36.9277960   4.1180940
  38.8917340  32.1479840  10.1694340  39.5393530  31.5977220   9.7289500
  39.3119180  32.4022990  10.9910150  54.4403960  36.4027070   7.0680980
  54.3303240  36.2483110   8.0063250  55.2011550  35.8748010   6.8256390
  52.7869680  32.3421200  13.5263980  53.4241900  32.9555340  13.8923170
  52.9344570  32.3781860  12.5813210  55.4032720  35.0045650   2.9343830
  54.6084220  34.9390770   3.4636740  55.6076000  35.9396290   2.9229180
  52.3451140  49.0437200   6.9282220  52.9410210  48.7221770   6.2516640
  52.6029290  48.5709020   7.7195490  38.6449340  32.3035510  12.9119660
  38.2964160  32.7599330  13.6777840  38.3137040  31.4092640  12.9942090
  40.2513710  45.4755110  17.0772850  40.2083340  45.1048020  17.9587310
  40.3824720  46.4132680  17.2174670  43.9519740  47.0314700  12.6782570
  43.7111100  47.2989260  11.7913090  44.8922380  47.2020430  12.7333430
  46.1574160  33.4947390  16.4339080  46.0963050  34.0869220  17.1834490
  47.0974540  33.3873350  16.2889340  48.7948720  33.1517450  16.0731370
  49.4089130  33.4696740  15.4112450  49.3398280  32.6666040  16.6927230
  55.2123900  49.0509080  13.4793210  54.7182180  49.4477950  12.7620340
  54.6037190  48.4258290  13.8730490  39.3169980  31.8311710  16.1870430
  39.8652970  31.6499760  15.4236540  39.3825290  31.0405820  16.7226740
  40.0901740  48.4217360  14.1970630  39.4962060  48.2902060  14.9360670
  40.0825580  47.5855500  13.7312730  49.5356760  31.7149590  12.4000660
  48.6616600  32.0484700  12.1973590  49.4267510  31.2422770  13.2252530
  50.4428740  33.9220460  13.7842380  50.1142100  33.1072220  13.4044110
  51.3911040  33.8790270  13.6608070  52.8963350  49.6932500  10.7579950
  52.4366320  50.4448310  10.3837970  52.2675810  48.9738970  10.6994750
  39.7213970  45.7875740  13.1478670  38.9948030  45.1681030  13.0804620
  39.7823120  46.1816350  12.2776750  43.3259070  48.0020740   9.9328080
  43.8424090  47.3908100   9.4076340  43.9756450  48.5049520  10.4239090
  46.0654570  48.8929230  10.7597060  46.3532380  48.6383530   9.8830070
  46.5777790  48.3406590  11.3502630  47.2831580  32.6319430  11.3393570
  46.5003370  33.1064930  11.6190330  46.9894510  31.7274260  11.2306750
  51.8352650  33.3342530   9.3842660  52.2760740  33.2787630   8.5364260
  51.5660240  34.2500540   9.4552840  53.6991220  32.9657770   7.3951480
  53.6379620  32.0218990   7.2482500  54.4783250  33.0737860   7.9404940
  38.0043970  49.1050130   6.3575430  37.8366010  48.4720810   7.0557320
  37.1378480  49.3109530   6.0069620  38.6271990  32.9366910   3.8607290
  39.3851350  33.0495790   3.2871320  38.1649160  33.7736110   3.8150720
  45.1685800  35.0506180   6.8509600  44.3560310  34.6763070   6.5105480
  45.6727440  34.2951260   7.1530790  49.6710780  31.7148630   8.0892670
  50.2740150  32.2868840   8.5641190  48.9303770  32.2788070   7.8666570
  52.8145380  32.1170190   3.3632950  53.0096010  33.0153640   3.6300380
  52.0275250  31.8857270   3.8565900  39.6106670  47.7983360   3.8025570
  39.0854290  48.1791390   3.0987530  39.5351250  48.4234130   4.5235280
  40.9997140  33.4630960   2.4009260  41.5289900  32.6760760   2.2717210
  41.6325460  34.1422150   2.6344790  43.1934980  33.2006100   5.4554650
  42.5637720  32.4993410   5.6224780  42.6540120  33.9610230   5.2387810
  46.1326930  49.8145330  18.1265260  47.0594240  49.5789600  18.1701220
  46.1177360  50.6417330  17.6451290  54.3671990  49.3570900   5.1239510
  54.5424180  48.6708640   4.4800430  53.6693560  49.8817950   4.7316180
  43.3190540  32.4790080  17.8907140  43.0374810  32.9823680  17.1267960
  43.7010240  31.6811830  17.5249270  42.2099640  49.7465740   2.6774820
  42.9418460  49.4625020   2.1298710  42.4693310  49.5079020   3.5674200
  41.3714430  45.8630470   2.6821150  40.7423310  46.3315570   3.2306980
  41.4862260  45.0179690   3.1167340  49.9206000  31.8943660  18.4687610
  49.8071450  32.2138270  19.3639130  50.7375740  32.2956170  18.1724890
  52.7004490  49.0415190  17.9506300  53.4929810  48.5464420  17.7432260
  52.9937640  49.7205330  18.5581910  48.8264150  21.1392640  45.1552820
  48.7458200  20.2247250  44.8844530  48.4128570  21.6359710  44.4492530
  46.9582190  22.9171660  47.0362090  46.1824290  22.4372100  47.3260660
  47.6095120  22.2377310  46.8618250  40.9748020  23.2291470  47.9137850
  40.1432900  22.9740180  48.3134360  41.5829000  23.3002240  48.6495770
  50.9789620  27.3231850  45.8161220  50.5171150  26.5519090  46.1448390
  51.7915170  27.3497920  46.3213670  40.9549280  27.2631560  48.1095870
  41.2577320  26.3729300  47.9306090  41.6992870  27.8201780  47.8818120
  39.3839970  18.1893360  41.6980240  38.4956670  18.5309330  41.5960120
  39.6681160  17.9893680  40.8061070  37.3472980  20.7899010  47.5819940
  37.9189090  20.0221210  47.5823580  37.3474520  21.0887770  46.6726550
  47.2052930  29.6089860  45.4365210  46.5864370  30.0647360  44.8659650
  48.0604710  29.7641320  45.0354910  46.3991180  25.5928850  47.0432250
  46.3299460  24.6518790  46.8821380  47.1611040  25.6830260  47.6154820
  38.5897850  16.1983370  49.3688870  38.4100690  15.3009120  49.6491630
  38.1877930  16.7455240  50.0435820  47.4296350  18.3999230  47.2701180
  47.8061170  17.5271110  47.1574850  47.3315860  18.7357930  46.3791620
  41.5601360  16.7724860  42.7318620  41.6668110  17.6728590  43.0387380
  40.6493720  16.7242830  42.4413270  51.2120470  15.8949670  44.2029520
  52.0330090  15.4046240  44.2455000  51.2454550  16.4847330  44.9561360
  39.2084520  18.6943870  47.9771210  39.8894630  18.9582240  48.5958610
  38.8932570  17.8544740  48.3109220  43.4009090  19.7411230  47.0643800
  43.9087310  20.2392200  47.7048820  43.9322330  18.9646430  46.8883160
  55.5020020  17.9116420  50.7673150  54.7972190  18.2998130  50.2488260
  55.7677940  18.6066710  51.3694080  41.6845190  14.3809790  51.3307220
  41.6863630  14.8982180  50.5253120  40.8549500  13.9039970  51.3077150
  48.0716280  24.4929100  42.8297120  47.4533550  24.9578550  42.2659840
  48.5839530  25.1856580  43.2466630  42.9348040  24.0204970  49.5080720
  42.6017420  24.6473890  50.1501790  43.1114720  24.5466850  48.7282390
  51.4481950  17.8350050  46.9757060  50.7437520  18.1234940  47.5560170
  51.8094110  18.6450160  46.6156620  41.3660520  16.0919750  49.3377670
  41.7077330  16.9361800  49.0431540  40.4276330  16.2403490  49.4543010
  42.1467140  25.9885770  51.3229900  42.7641140  26.6636850  51.0414350
  41.2860260  26.3973750  51.2317400  37.4399480  25.1785630  40.2036750
  37.0627460  25.6672730  39.4721650  37.6972550  25.8510910  40.8343280
  53.0644730  27.4525180  49.2384540  52.3808250  28.1224290  49.2301210
  53.6039020  27.6505830  48.4729400  54.5168870  17.2804840  47.3666270
  53.5693780  17.3143820  47.4981700  54.8418860  18.0943790  47.7515630
  45.0488410  13.5802020  45.6622260  45.3563390  13.0248910  44.9457760
  44.1189110  13.7146480  45.4795250  50.6003470  29.2969310  47.9529720
  50.6130630  28.8931600  47.0851980  50.0478690  30.0716600  47.8491150
  51.8948890  26.0185530  43.0419890  51.7845220  25.0759860  43.1669310
  51.8917140  26.3801170  43.9282650  49.9988910  24.1999150  49.2812330
  50.4157700  23.9859260  48.4465790  50.7228730  24.4571940  49.8520950
  47.4369170  21.6450850  42.3982380  46.5098450  21.5788230  42.6270850
  47.5893990  22.5830980  42.2837620  47.4238250  17.9167850  39.3949540
  46.4841920  18.0781810  39.4802000  47.7421510  18.6353530  38.8485530
  53.9451010  22.5986370  49.3728570  53.1169640  22.6679460  48.8978700
  54.5401490  23.1840680  48.9044400  51.4666460  23.2071150  42.9017630
  50.8478880  22.8690700  42.2543930  51.4490910  22.5630910  43.6096820
  50.9093020  19.3855690  50.3183440  50.4964200  20.2109400  50.5723430
  50.1768970  18.8000730  50.1259800  43.0425810  22.1715590  45.1802110
  42.6382810  21.4592840  44.6848010  43.1288930  21.8268830  46.0690150
  43.5107510  25.8583150  47.3441320  43.2135800  25.2528620  46.6649100
  44.4607330  25.8960460  47.2330680  41.7554430  18.9458800  48.9601150
  42.3069020  19.0554140  48.1854400  42.2697940  19.3196400  49.6756380
  51.5993120  29.4315020  51.0064420  51.1223680  30.2387210  50.8137030
  50.9154910  28.7793350  51.1590630  49.6431160  22.4457960  39.9090380
  50.0824440  21.6080390  39.7628200  50.3559580  23.0787360  39.9954520
  41.4297160  22.4678160  52.5706490  41.2904930  23.3400960  52.9393890
  40.5478520  22.1250970  52.4254430  47.7526540  27.3854030  43.8771620
  48.1922450  28.1278360  43.4627010  47.6913430  27.6280600  44.8010580
  53.2248300  13.7000770  38.2231420  52.9120960  13.7927600  39.1230490
  53.9860770  14.2781800  38.1728850  39.7430440  21.0660570  42.6808760
  39.6228040  21.7922660  42.0690030  39.4331330  20.2963480  42.2036670
  37.3815810  24.2375710  48.4877400  37.4596230  24.3724480  47.5433120
  37.9957490  23.5291600  48.6805520  38.6263440  25.9375900  44.8983580
  38.2191520  26.0790490  44.0437180  39.5176450  25.6536060  44.6954790
  54.5825580  26.3839810  53.2355820  54.7088640  26.1451690  52.3173000
  54.6246960  25.5524350  53.7077900  48.4442320  30.0867810  51.8050630
  48.9586990  29.9975820  52.6073060  47.6011400  30.4327510  52.0978540
  50.4196720  30.3723150  41.2334630  50.2597860  30.0826090  42.1316460
  50.2543430  29.5963280  40.6979860  42.8985100  30.1521680  43.0106250
  42.7227580  29.2357220  42.7974050  42.0440840  30.5108970  43.2504050
  50.1222850  27.8810710  39.7932630  49.4288010  27.8788000  39.1334910
  50.8645710  27.4570030  39.3626800  49.6872780  29.5073420  43.8681120
  50.1429730  28.7262800  44.1819740  50.0265300  30.2180240  44.4122300
  54.4349590  18.4372270  54.2005560  53.8193860  18.9451940  53.6721020
  54.1146010  17.5370600  54.1431500  37.4375330  25.2789880  51.0271860
  37.6006370  24.8095240  50.2091230  37.9027780  24.7713440  51.6920700
  42.2094100  14.4095640  46.0632430  41.7662250  15.1905180  45.7316950
  42.7679090  14.7325530  46.7703370  46.4963910  17.2764160  51.6667750
  46.0343280  17.4847180  52.4787690  46.0942020  16.4623510  51.3638420
  51.4968420  18.4973110  52.7964410  50.6462010  18.1978860  53.1173480
  51.3370210  18.7415120  51.8848230  45.3252920  14.0306340  40.9438260
  44.7007100  14.0266210  41.6691570  45.2383040  13.1637300  40.5474230
  44.2470000  14.9542970  47.9222030  44.5442330  15.8605800  47.8414050
  44.7955560  14.4661750  47.3081600  42.0008320  19.5329210  43.7913680
  41.7749240  19.3166380  44.6960300  41.2200850  19.9657670  43.4459650
  49.2306080  19.5392580  42.3904330  48.6314970  20.2628380  42.2067950
  49.7785690  19.4769360  41.6080780  47.8370950  18.1756120  44.4207610
  48.2300520  18.4928320  43.6076300  48.1987800  17.2968000  44.5352130
  39.5718070  16.8428460  52.6107730  39.1781460  17.6903670  52.8180510
  38.8836470  16.2054830  52.8016370  36.8735120  14.7656920  46.6437810
  36.5848170  15.3359780  47.3562790  37.6180880  14.2861370  47.0069040
  37.0605350  18.7077040  37.8540530  36.9780020  19.6507800  37.9955520
  36.7088410  18.5651950  36.9752880  48.4226090  20.7661870  48.5158390
  47.6907210  21.2748680  48.8648490  48.0250430  19.9491850  48.2147170
  44.8603480  17.4416070  46.9210880  44.8639540  17.0006020  46.0715420
  45.7554600  17.7633400  47.0282700  40.7105860  17.3242560  45.8805090
  40.3705910  17.8017790  46.6372140  39.9483180  16.8707680  45.5206190
  44.9223630  18.4428150  39.9117640  45.0436450  18.4014630  40.8603460
  44.5372140  19.3052300  39.7564370  48.8852000  16.2195550  47.9281330
  48.9024740  16.6704200  48.7723180  48.6367580  15.3201190  48.1414770
  43.9345130  20.7529290  39.3100940  43.3662030  20.3047540  38.6836850
  44.6434130  21.1122070  38.7766090  39.0114310  24.6541310  53.1867670
  38.6269100  24.0134980  53.7850630  39.3226500  25.3577430  53.7562400
  45.1611450  21.5017850  48.6676290  45.5281580  21.0276420  49.4137630
  44.9716510  22.3759420  49.0084630  38.0251940  16.2461540  44.7969760
  37.7398860  15.8817210  45.6348380  37.9630800  15.5142000  44.1832900
  42.9510820  20.5426490  50.9860500  42.6467890  21.4218470  51.2110860
  43.9057280  20.6026280  51.0217940  41.4792610  24.7487480  41.5827350
  40.7054870  24.2085100  41.4226070  42.2087240  24.2294090  41.2445110
  52.2380590  23.7452840  47.3753740  52.9579710  24.2408130  46.9849850
  52.0362410  23.0670730  46.7307610  47.6990530  15.1390800  41.5183130
  46.8855140  14.6403970  41.4428440  47.5052480  15.9789050  41.1019480
  47.6199390  23.8161900  53.2622740  47.5536700  22.8957570  53.0080330
  46.9904530  23.9137340  53.9767380  50.4138920  19.5110450  39.8145290
  51.3018540  19.8227680  39.6396630  50.3844010  18.6382700  39.4225870
  41.5230010  24.4167860  45.2206160  42.0408680  23.6136120  45.1663050
  41.0714030  24.3547000  46.0622990  46.4099510  25.6834140  40.4933460
  46.7515210  26.4276370  39.9976780  45.5812220  25.9965260  40.8558290
  39.0074550  21.3829230  52.1331860  38.6489490  22.0483080  52.7205200
  38.7129110  20.5512780  52.5044480  47.5516120  26.6382470  53.0126540
  47.5660660  25.7063430  52.7945450  46.8441220  26.7242230  53.6516310
  52.6853190  20.8222290  39.2825150  52.6016910  21.2536510  38.4321590
  53.4047380  21.2820640  39.7151970  53.7627330  23.2789810  52.3595120
  53.0375520  23.8718590  52.1624510  54.2902790  23.2713350  51.5608490
  53.7140440  27.6764550  42.0107280  53.0716600  27.0220170  42.2851000
  53.3271100  28.0819640  41.2347950  49.2926920  25.0049980  45.8578970
  49.6450740  24.4078110  45.1980340  48.4089250  24.6794210  46.0287220
  45.3790200  25.7647670  43.2649380  46.0661330  26.3116880  43.6456970
  44.5922620  26.3088400  43.2998990  37.5182600  21.3820490  38.7566460
  38.3877450  21.6645290  39.0402380  37.0272920  22.1956360  38.6415270
  44.6817410  22.7693700  42.8774740  45.1380190  23.5798950  43.1034930
  44.3305620  22.4516840  43.7093230  46.9850020  28.2800040  50.1067040
  47.6292240  28.4859420  50.7840460  47.3479460  27.5188440  49.6537890
  40.5829190  13.1131350  43.3497260  40.4543820  13.1049250  44.2982180
  39.7591210  13.4514440  42.9988270  48.2582100  26.2832390  48.8244490
  48.9004330  25.5825550  48.9376660  48.7831450  27.0630830  48.6441380
  52.1037820  26.5681010  38.5483630  51.8775400  25.8511450  39.1408270
  51.7134020  26.3193450  37.7105380  50.0319720  27.0827290  52.0280550
  50.3675960  27.6693980  52.7058470  49.1120060  26.9520000  52.2578340
  37.8853850  30.5947870  39.3228090  38.2451490  31.1937210  38.6685360
  37.7446190  31.1407760  40.0963120  37.5823120  14.8722470  52.8103960
  36.8681640  15.0719390  53.4156570  38.0018160  14.0962040  53.1818760
  51.6854070  24.4852950  40.2097790  51.3975770  24.9465640  40.9975670
  52.4806240  24.0250720  40.4782010  37.8695710  28.8602730  53.7970490
  37.9786830  27.9197470  53.6565880  37.2176270  29.1257480  53.1484220
  43.9022470  27.9779070  40.1401760  43.8932570  28.7108760  39.5246270
  42.9820830  27.7310650  40.2328720  39.5029110  23.1993960  40.8848520
  38.8957060  23.9392860  40.8943820  39.9778460  23.2893320  40.0586720
  49.0761900  17.3644780  50.5605410  49.4442720  16.5439990  50.8884980
  48.2160100  17.4246670  50.9761060  52.4423930  16.3201720  41.3692970
  51.8137090  16.4247390  40.6551200  51.9475850  16.5398500  42.1586850
  46.8882070  28.0407310  38.8026950  46.9894050  27.8371300  37.8728930
  45.9883810  27.7865590  39.0074730  44.4107960  18.5987670  42.7850850
  43.7024110  19.0674010  43.2264460  44.6952440  17.9409680  43.4196040
  46.0363890  20.0184370  50.7843380  46.5349140  20.4930190  51.4495230
  46.1786840  19.0947890  50.9913410  48.4423390  15.3238330  44.2246640
  48.3191170  15.3424460  43.2756150  49.3907950  15.3717270  44.3445040
  45.5300180  30.5593630  43.4974620  45.7841680  30.5215020  42.5753990
  44.5812660  30.4326960  43.4902870  42.6142980  16.9072750  40.1601560
  43.4633510  17.3442900  40.0941750  42.2474250  17.2193010  40.9873620
  53.2430750  16.2352330  51.6271770  52.7404350  16.9757730  51.9665580
  54.0587410  16.6236330  51.3108560  51.5352760  21.4785510  45.0733130
  50.5942900  21.4935740  45.2480820  51.8496830  20.6921470  45.5193430
  41.5134400  23.1605110  38.6337090  42.2797670  23.0486470  39.1962520
  41.5909090  22.4643080  37.9813860  40.2081160  20.5930180  39.3169980
  40.2884750  19.6457690  39.4287380  41.1000910  20.9237060  39.4230640
  53.5378340  28.6494360  46.7487390  53.6625760  29.4725530  47.2211200
  54.4043900  28.4385090  46.4011540  41.0095870  30.7425570  46.4204520
  41.7458350  30.1941030  46.6913090  41.3936790  31.6081580  46.2810510
  37.8941350  26.8099140  42.2946030  36.9681130  27.0520280  42.2851440
  38.3597780  27.6373400  42.1730780  44.1198180  29.9155880  38.2430090
  44.9126790  30.2044710  37.7911880  43.6002530  29.4848050  37.5642570
  53.1728350  29.1426010  39.6666830  52.8869860  28.7291150  38.8521010
  52.9747900  30.0713720  39.5467350  44.6375580  25.1359290  38.1072440
  44.5326220  24.5211640  38.8333820  44.4699800  24.6125180  37.3235450
  44.7889900  23.8216090  54.0861670  44.0235570  24.3901090  54.0016340
  44.9705860  23.5292300  53.1929900  47.8778310  24.1979320  38.7114430
  47.3288410  24.6448620  39.3557170  48.4997570  23.6928570  39.2352100
  43.5453430  23.1570240  40.6079730  43.9669850  22.9910110  41.4511120
  43.6704270  22.3470470  40.1134870  41.7080850  19.1366790  53.4150710
  41.1777310  18.6457740  52.7874050  42.3768920  19.5650990  52.8808640
  46.0581070  22.1807850  37.8556830  46.5786730  21.4656870  37.4897980
  46.7049470  22.8193720  38.1557340  50.6058910  23.6036250  53.1791900
  51.0199930  23.7581330  54.0282320  49.6709910  23.7291470  53.3417680
  42.1953150  16.1029160  53.4948000  42.1010020  15.4849910  52.7698870
  41.6150540  16.8295450  53.2677910  44.9614590  14.6602400  50.5275390
  44.5131890  14.6826660  49.6820940  44.3279790  14.2621420  51.1245690
  45.3674140  23.5556730  51.1487830  45.7862250  24.3989460  50.9764070
  44.4482770  23.6928770  50.9194610  47.7038040  21.2872910  52.5325670
  47.8234250  20.6914050  53.2720510  48.5632040  21.3242600  52.1126970
  50.0425940  21.8410100  51.1088180  49.5161160  22.3652720  50.5053320
  50.3857280  22.4737490  51.7397910  42.4412330  19.2303470  37.5537890
  42.2401390  18.3670830  37.9151230  42.2704380  19.1436830  36.6159490
  43.2181560  29.8609740  52.2645560  42.6802650  30.5855800  51.9454260
  43.4715520  29.3840080  51.4742900  49.9200640  14.0411700  40.0824770
  50.2002930  13.1979600  40.4384190  49.1466370  14.2734810  40.5963520
  41.2395130  16.3304090  37.5415770  41.5421030  16.3371520  36.6334920
  41.9789720  15.9801950  38.0383430  46.0743770  31.0960950  52.5232210
  46.0002470  31.9996090  52.8304580  45.1722610  30.7772850  52.4954280
  44.4580060  15.2738710  38.5271970  44.1102060  14.5962700  37.9474420
  44.6592830  14.8128220  39.3415360  46.6229100  30.2619460  40.1458570
  47.5179890  30.6004430  40.1677330  46.6546730  29.5398870  39.5182850
  40.2625260  25.6346510  38.3745570  40.7000130  26.1776180  39.0303150
  40.7472990  24.8093460  38.3841910  37.4771060  28.4235540  45.8265830
  37.8074070  27.5556600  45.5944470  37.9062060  28.6294060  46.6570790
  42.0732980  26.7544550  43.4867800  41.7728520  26.6309520  44.3871710
  41.9670470  25.8953140  43.0783530  37.9661270  29.2906130  48.5647460
  37.5292260  29.4706930  49.3971610  38.5338950  30.0480750  48.4229180
  53.6023450  28.7923130  52.8524770  53.0025440  28.8515690  52.1088690
  53.7317350  27.8528110  52.9821620  54.8424900  26.5340950  38.1894480
  54.0117860  26.6017600  38.6601710  55.0196730  27.4245070  37.8861340
  54.2981360  23.2788430  40.6928680  55.0600270  23.8485080  40.7988370
  54.3135730  22.7115630  41.4636990  37.7985700  21.8026360  44.9236340
  37.1434540  21.5338000  44.2796040  38.6363650  21.6930840  44.4738320
  55.3041330  24.1338530  45.5370610  55.6750160  23.3505850  45.1306580
  55.9443260  24.8227630  45.3587910  52.2875090  25.5175110  50.9500930
  51.4734930  25.9472270  51.2126720  52.6949290  26.1293520  50.3369980
  54.3500530  23.5722800  37.8501200  54.6249370  24.4801680  37.7220420
  54.1611270  23.5085330  38.7863190  50.7476140  16.5967650  39.1454830
  51.1661020  16.4098630  38.3051490  50.4412200  15.7446700  39.4557760
  54.2465870  21.5091790  42.8430630  53.8709470  20.7419720  42.4111920
  53.5168990  21.8914490  43.3305560  38.8361630  22.1878930  49.4639680
  39.2034670  22.1006330  50.3435700  38.2672450  21.4245480  49.3646540
  53.6365490  20.6563310  52.4770150  53.4051580  20.4276060  51.5768100
  53.8970040  21.5762860  52.4315040  38.3877630  19.0988020  53.3698100
  37.4933680  19.0654780  53.7091810  38.9275180  19.2974810  54.1349350
  37.0123780  19.0125290  40.8661670  36.1087860  19.2755490  40.6913330
  37.4964400  19.2836460  40.0861630  53.5216830  19.7349280  46.1437870
  54.0454310  19.2411930  45.5128040  54.1076250  19.8699640  46.8885440
  53.7006550  19.8189150  49.6657420  52.7509260  19.7852690  49.7802410
  53.8819560  20.7289260  49.4307190  39.5550990  18.0690830  38.7756050
  40.2642690  17.6474050  38.2903330  38.8390930  18.1366060  38.1439400
  39.2025150  14.1230160  37.8158700  39.9253280  14.6639100  38.1339920
  39.4749670  13.8493580  36.9400240  53.0116800  18.9922630  42.0830280
  53.5075920  18.7593500  42.8679160  52.8132870  18.1534470  41.6667920
  38.8917340  13.3736350  47.7181320  39.5393530  12.8233730  47.2776480
  39.3119180  13.6279500  48.5397130  54.4403960  17.6283580  44.6167960
  54.3303240  17.4739620  45.5550230  55.2011550  17.1004520  44.3743370
  52.7869680  13.5677710  51.0750960  53.4241900  14.1811850  51.4410150
  52.9344570  13.6038370  50.1300190  55.3294230  15.4591500  37.8574100
  56.2543540  15.3272680  37.6492390  55.3070020  15.5384320  38.8110550
  55.4032720  16.2302160  40.4830810  54.6084220  16.1647280  41.0123720
  55.6076000  17.1652800  40.4716160  52.3451140  30.2693710  44.4769200
  52.9410210  29.9478280  43.8003620  52.6029290  29.7965530  45.2682470
  38.6449340  13.5292020  50.4606640  38.2964160  13.9855840  51.2264820
  38.3137040  12.6349150  50.5429070  43.9519740  28.2571210  50.2269550
  43.7111100  28.5245770  49.3400070  44.8922380  28.4276940  50.2820410
  55.2123900  30.2765590  51.0280190  54.7182180  30.6734460  50.3107320
  54.6037190  29.6514800  51.4217470  40.0901740  29.6473870  51.7457610
  39.4962060  29.5158570  52.4847650  40.0825580  28.8112010  51.2799710
  49.5356760  12.9406100  49.9487640  48.6616600  13.2741210  49.7460570
  49.4267510  12.4679280  50.7739510  50.4428740  15.1476970  51.3329360
  50.1142100  14.3328730  50.9531090  51.3911040  15.1046780  51.2095050
  52.8963350  30.9189010  48.3066930  52.4366320  31.6704820  47.9324950
  52.2675810  30.1995480  48.2481730  39.7213970  27.0132250  50.6965650
  38.9948030  26.3937540  50.6291600  39.7823120  27.4072860  49.8263730
  43.3259070  29.2277250  47.4815060  43.8424090  28.6164610  46.9563320
  43.9756450  29.7306030  47.9726070  46.0654570  30.1185740  48.3084040
  46.3532380  29.8640040  47.4317050  46.5777790  29.5663100  48.8989610
  47.2831580  13.8575940  48.8880550  46.5003370  14.3321440  49.1677310
  46.9894510  12.9530770  48.7793730  51.8352650  14.5599040  46.9329640
  52.2760740  14.5044140  46.0851240  51.5660240  15.4757050  47.0039820
  53.6991220  14.1914280  44.9438460  53.6379620  13.2475500  44.7969480
  54.4783250  14.2994370  45.4891920  38.0043970  30.3306640  43.9062410
  37.8366010  29.6977320  44.6044300  37.1378480  30.5366040  43.5556600
  38.6271990  14.1623420  41.4094270  39.3851350  14.2752300  40.8358300
  38.1649160  14.9992620  41.3637700  45.1685800  16.2762690  44.3996580
  44.3560310  15.9019580  44.0592460  45.6727440  15.5207770  44.7017770
  49.6710780  12.9405140  45.6379650  50.2740150  13.5125350  46.1128170
  48.9303770  13.5044580  45.4153550  52.8145380  13.3426700  40.9119930
  53.0096010  14.2410150  41.1787360  52.0275250  13.1113780  41.4052880
  39.6106670  29.0239870  41.3512550  39.0854290  29.4047900  40.6474510
  39.5351250  29.6490640  42.0722260  40.9997140  14.6887470  39.9496240
  41.5289900  13.9017270  39.8204190  41.6325460  15.3678660  40.1831770
  43.1934980  14.4262610  43.0041630  42.5637720  13.7249920  43.1711760
  42.6540120  15.1866740  42.7874790  54.3671990  30.5827410  42.6726490
  54.5424180  29.8965150  42.0287410  53.6693560  31.1074460  42.2803160
  42.2099640  30.9722250  40.2261800  42.9418460  30.6881530  39.6785690
  42.4693310  30.7335530  41.1161180  41.3714430  27.0886980  40.2308130
  40.7423310  27.5572080  40.7793960  41.4862260  26.2436200  40.6654320
  48.8264150  21.1392640  26.3809330  48.7458200  20.2247250  26.1101040
  48.4128570  21.6359710  25.6749040  46.9582190  22.9171660  28.2618600
  46.1824290  22.4372100  28.5517170  47.6095120  22.2377310  28.0874760
  40.9748020  23.2291470  29.1394360  40.1432900  22.9740180  29.5390870
  41.5829000  23.3002240  29.8752280  50.9789620  27.3231850  27.0417730
  50.5171150  26.5519090  27.3704900  51.7915170  27.3497920  27.5470180
  39.3839970  18.1893360  22.9236750  38.4956670  18.5309330  22.8216630
  39.6681160  17.9893680  22.0317580  37.3472980  20.7899010  28.8076450
  37.9189090  20.0221210  28.8080090  37.3474520  21.0887770  27.8983060
  46.3991180  25.5928850  28.2688760  46.3299460  24.6518790  28.1077890
  47.1611040  25.6830260  28.8411330  38.5897850  16.1983370  30.5945380
  38.4100690  15.3009120  30.8748140  38.1877930  16.7455240  31.2692330
  47.4296350  18.3999230  28.4957690  47.8061170  17.5271110  28.3831360
  47.3315860  18.7357930  27.6048130  41.5601360  16.7724860  23.9575130
  41.6668110  17.6728590  24.2643890  40.6493720  16.7242830  23.6669780
  51.2120470  15.8949670  25.4286030  52.0330090  15.4046240  25.4711510
  51.2454550  16.4847330  26.1817870  39.2084520  18.6943870  29.2027720
  39.8894630  18.9582240  29.8215120  38.8932570  17.8544740  29.5365730
  43.4009090  19.7411230  28.2900310  43.9087310  20.2392200  28.9305330
  43.9322330  18.9646430  28.1139670  55.5020020  17.9116420  31.9929660
  54.7972190  18.2998130  31.4744770  55.7677940  18.6066710  32.5950590
  41.6845190  14.3809790  32.5563730  41.6863630  14.8982180  31.7509630
  40.8549500  13.9039970  32.5333660  48.0716280  24.4929100  24.0553630
  47.4533550  24.9578550  23.4916350  48.5839530  25.1856580  24.4723140
  51.4481950  17.8350050  28.2013570  50.7437520  18.1234940  28.7816680
  51.8094110  18.6450160  27.8413130  41.3660520  16.0919750  30.5634180
  41.7077330  16.9361800  30.2688050  40.4276330  16.2403490  30.6799520
  37.4399480  25.1785630  21.4293260  37.0627460  25.6672730  20.6978160
  37.6972550  25.8510910  22.0599790  53.0644730  27.4525180  30.4641050
  52.3808250  28.1224290  30.4557720  53.6039020  27.6505830  29.6985910
  54.5168870  17.2804840  28.5922780  53.5693780  17.3143820  28.7238210
  54.8418860  18.0943790  28.9772140  45.0488410  13.5802020  26.8878770
  45.3563390  13.0248910  26.1714270  44.1189110  13.7146480  26.7051760
  51.8948890  26.0185530  24.2676400  51.7845220  25.0759860  24.3925820
  51.8917140  26.3801170  25.1539160  49.9988910  24.1999150  30.5068840
  50.4157700  23.9859260  29.6722300  50.7228730  24.4571940  31.0777460
  47.4369170  21.6450850  23.6238890  46.5098450  21.5788230  23.8527360
  47.5893990  22.5830980  23.5094130  47.4238250  17.9167850  20.6206050
  46.4841920  18.0781810  20.7058510  47.7421510  18.6353530  20.0742040
  53.9451010  22.5986370  30.5985080  53.1169640  22.6679460  30.1235210
  54.5401490  23.1840680  30.1300910  51.4666460  23.2071150  24.1274140
  50.8478880  22.8690700  23.4800440  51.4490910  22.5630910  24.8353330
  50.9093020  19.3855690  31.5439950  50.4964200  20.2109400  31.7979940
  50.1768970  18.8000730  31.3516310  43.0425810  22.1715590  26.4058620
  42.6382810  21.4592840  25.9104520  43.1288930  21.8268830  27.2946660
  41.7554430  18.9458800  30.1857660  42.3069020  19.0554140  29.4110910
  42.2697940  19.3196400  30.9012890  51.5993120  29.4315020  32.2320930
  51.1223680  30.2387210  32.0393540  50.9154910  28.7793350  32.3847140
  42.6025940  25.5964840  35.2205630  41.7054470  25.8204810  35.4679030
  42.6278810  25.7199780  34.2717030  49.6431160  22.4457960  21.1346890
  50.0824440  21.6080390  20.9884710  50.3559580  23.0787360  21.2211030
  41.4297160  22.4678160  33.7963000  41.2904930  23.3400960  34.1650400
  40.5478520  22.1250970  33.6510940  47.7526540  27.3854030  25.1028130
  48.1922450  28.1278360  24.6883520  47.6913430  27.6280600  26.0267090
  43.2277510  28.4099860  36.0048150  43.1992940  28.8142810  35.1376580
  43.0642480  27.4810220  35.8419750  53.2248300  13.7000770  19.4487930
  52.9120960  13.7927600  20.3487000  53.9860770  14.2781800  19.3985360
  39.7430440  21.0660570  23.9065270  39.6228040  21.7922660  23.2946540
  39.4331330  20.2963480  23.4293180  55.1792330  29.1926960  37.3012320
  55.6552050  29.6709850  37.9801400  55.7999490  29.1244450  36.5757820
  54.5825580  26.3839810  34.4612330  54.7088640  26.1451690  33.5429510
  54.6246960  25.5524350  34.9334410  48.4442320  30.0867810  33.0307140
  48.9586990  29.9975820  33.8329570  47.6011400  30.4327510  33.3235050
  50.4196720  30.3723150  22.4591140  50.2597860  30.0826090  23.3572970
  50.2543430  29.5963280  21.9236370  50.1222850  27.8810710  21.0189140
  49.4288010  27.8788000  20.3591420  50.8645710  27.4570030  20.5883310
  54.4349590  18.4372270  35.4262070  53.8193860  18.9451940  34.8977530
  54.1146010  17.5370600  35.3688010  37.4375330  25.2789880  32.2528370
  37.6006370  24.8095240  31.4347740  37.9027780  24.7713440  32.9177210
  42.2094100  14.4095640  27.2888940  41.7662250  15.1905180  26.9573460
  42.7679090  14.7325530  27.9959880  46.4963910  17.2764160  32.8924260
  46.0343280  17.4847180  33.7044200  46.0942020  16.4623510  32.5894930
  51.4968420  18.4973110  34.0220920  50.6462010  18.1978860  34.3429990
  51.3370210  18.7415120  33.1104740  48.5918130  19.9974860  36.1219710
  48.9171540  19.1638610  35.7821940  49.3798460  20.5203380  36.2698040
  45.3252920  14.0306340  22.1694770  44.7007100  14.0266210  22.8948080
  45.2383040  13.1637300  21.7730740  44.2470000  14.9542970  29.1478540
  44.5442330  15.8605800  29.0670560  44.7955560  14.4661750  28.5338110
  42.0008320  19.5329210  25.0170190  41.7749240  19.3166380  25.9216810
  41.2200850  19.9657670  24.6716160  49.2306080  19.5392580  23.6160840
  48.6314970  20.2628380  23.4324460  49.7785690  19.4769360  22.8337290
  44.4407530  20.4314790  35.6830460  44.3451130  19.4909520  35.5330860
  45.2839510  20.6529860  35.2878530  47.8370950  18.1756120  25.6464120
  48.2300520  18.4928320  24.8332810  48.1987800  17.2968000  25.7608640
  39.5718070  16.8428460  33.8364240  39.1781460  17.6903670  34.0437020
  38.8836470  16.2054830  34.0272880  46.1463120  16.9263430  36.9060980
  45.4561440  16.7335630  37.5407070  46.8895420  17.2098070  37.4385280
  36.8735120  14.7656920  27.8694320  36.5848170  15.3359780  28.5819300
  37.6180880  14.2861370  28.2325550  37.0605350  18.7077040  19.0797040
  36.9780020  19.6507800  19.2212030  36.7088410  18.5651950  18.2009390
  48.4226090  20.7661870  29.7414900  47.6907210  21.2748680  30.0905000
  48.0250430  19.9491850  29.4403680  44.8603480  17.4416070  28.1467390
  44.8639540  17.0006020  27.2971930  45.7554600  17.7633400  28.2539210
  40.7105860  17.3242560  27.1061600  40.3705910  17.8017790  27.8628650
  39.9483180  16.8707680  26.7462700  44.9223630  18.4428150  21.1374150
  45.0436450  18.4014630  22.0859970  44.5372140  19.3052300  20.9820880
  48.8852000  16.2195550  29.1537840  48.9024740  16.6704200  29.9979690
  48.6367580  15.3201190  29.3671280  43.9345130  20.7529290  20.5357450
  43.3662030  20.3047540  19.9093360  44.6434130  21.1122070  20.0022600
  52.3122750  13.6327730  34.9924220  52.6368520  12.9017390  35.5182200
  52.3479260  13.3141370  34.0905210  39.0114310  24.6541310  34.4124180
  38.6269100  24.0134980  35.0107140  39.3226500  25.3577430  34.9818910
  45.1611450  21.5017850  29.8932800  45.5281580  21.0276420  30.6394140
  44.9716510  22.3759420  30.2341140  38.0251940  16.2461540  26.0226270
  37.7398860  15.8817210  26.8604890  37.9630800  15.5142000  25.4089410
  42.9510820  20.5426490  32.2117010  42.6467890  21.4218470  32.4367370
  43.9057280  20.6026280  32.2474450  41.4792610  24.7487480  22.8083860
  40.7054870  24.2085100  22.6482580  42.2087240  24.2294090  22.4701620
  52.2380590  23.7452840  28.6010250  52.9579710  24.2408130  28.2106360
  52.0362410  23.0670730  27.9564120  47.6990530  15.1390800  22.7439640
  46.8855140  14.6403970  22.6684950  47.5052480  15.9789050  22.3275990
  47.6199390  23.8161900  34.4879250  47.5536700  22.8957570  34.2336840
  46.9904530  23.9137340  35.2023890  50.4138920  19.5110450  21.0401800
  51.3018540  19.8227680  20.8653140  50.3844010  18.6382700  20.6482380
  41.5230010  24.4167860  26.4462670  42.0408680  23.6136120  26.3919560
  41.0714030  24.3547000  27.2879500  46.4099510  25.6834140  21.7189970
  46.7515210  26.4276370  21.2233290  45.5812220  25.9965260  22.0814800
  39.0074550  21.3829230  33.3588370  38.6489490  22.0483080  33.9461710
  38.7129110  20.5512780  33.7300990  42.2087670  21.8413470  36.2427920
  41.9087810  21.9870650  35.3455740  42.9798910  21.2818760  36.1501310
  47.5516120  26.6382470  34.2383050  47.5660660  25.7063430  34.0201960
  46.8441220  26.7242230  34.8772820  52.6853190  20.8222290  20.5081660
  52.6016910  21.2536510  19.6578100  53.4047380  21.2820640  20.9408480
  53.7627330  23.2789810  33.5851630  53.0375520  23.8718590  33.3881020
  54.2902790  23.2713350  32.7865000  53.7140440  27.6764550  23.2363790
  53.0716600  27.0220170  23.5107510  53.3271100  28.0819640  22.4604460
  49.2926920  25.0049980  27.0835480  49.6450740  24.4078110  26.4236850
  48.4089250  24.6794210  27.2543730  45.3790200  25.7647670  24.4905890
  46.0661330  26.3116880  24.8713480  44.5922620  26.3088400  24.5255500
  37.5182600  21.3820490  19.9822970  38.3877450  21.6645290  20.2658890
  37.0272920  22.1956360  19.8671780  44.6817410  22.7693700  24.1031250
  45.1380190  23.5798950  24.3291440  44.3305620  22.4516840  24.9349740
  46.9850020  28.2800040  31.3323550  47.6292240  28.4859420  32.0096970
  47.3479460  27.5188440  30.8794400  40.5829190  13.1131350  24.5753770
  40.4543820  13.1049250  25.5238690  39.7591210  13.4514440  24.2244780
  48.2582100  26.2832390  30.0501000  48.9004330  25.5825550  30.1633170
  48.7831450  27.0630830  29.8697890  52.1037820  26.5681010  19.7740140
  51.8775400  25.8511450  20.3664780  51.7134020  26.3193450  18.9361890
  50.0319720  27.0827290  33.2537060  50.3675960  27.6693980  33.9314980
  49.1120060  26.9520000  33.4834850  37.8853850  30.5947870  20.5484600
  38.2451490  31.1937210  19.8941870  37.7446190  31.1407760  21.3219630
  37.5823120  14.8722470  34.0360470  36.8681640  15.0719390  34.6413080
  38.0018160  14.0962040  34.4075270  51.6854070  24.4852950  21.4354300
  51.3975770  24.9465640  22.2232180  52.4806240  24.0250720  21.7038520
  37.8695710  28.8602730  35.0227000  37.9786830  27.9197470  34.8822390
  37.2176270  29.1257480  34.3740730  45.8608300  27.1318620  36.4225120
  45.5405170  26.4127860  36.9670810  45.1866660  27.8073690  36.4961180
  43.9022470  27.9779070  21.3658270  43.8932570  28.7108760  20.7502780
  42.9820830  27.7310650  21.4585230  39.5029110  23.1993960  22.1105030
  38.8957060  23.9392860  22.1200330  39.9778460  23.2893320  21.2843230
  49.0761900  17.3644780  31.7861920  49.4442720  16.5439990  32.1141490
  48.2160100  17.4246670  32.2017570  52.4423930  16.3201720  22.5949480
  51.8137090  16.4247390  21.8807710  51.9475850  16.5398500  23.3843360
  46.8882070  28.0407310  20.0283460  46.9894050  27.8371300  19.0985440
  45.9883810  27.7865590  20.2331240  44.4107960  18.5987670  24.0107360
  43.7024110  19.0674010  24.4520970  44.6952440  17.9409680  24.6452550
  46.0363890  20.0184370  32.0099890  46.5349140  20.4930190  32.6751740
  46.1786840  19.0947890  32.2169920  48.4423390  15.3238330  25.4503150
  48.3191170  15.3424460  24.5012660  49.3907950  15.3717270  25.5701550
  42.6142980  16.9072750  21.3858070  43.4633510  17.3442900  21.3198260
  42.2474250  17.2193010  22.2130130  53.2430750  16.2352330  32.8528280
  52.7404350  16.9757730  33.1922090  54.0587410  16.6236330  32.5365070
  51.5352760  21.4785510  26.2989640  50.5942900  21.4935740  26.4737330
  51.8496830  20.6921470  26.7449940  41.5134400  23.1605110  19.8593600
  42.2797670  23.0486470  20.4219030  41.5909090  22.4643080  19.2070370
  40.2081160  20.5930180  20.5426490  40.2884750  19.6457690  20.6543890
  41.1000910  20.9237060  20.6487150  53.5378340  28.6494360  27.9743900
  53.6625760  29.4725530  28.4467710  54.4043900  28.4385090  27.6268050
  37.8941350  26.8099140  23.5202540  36.9681130  27.0520280  23.5107950
  38.3597780  27.6373400  23.3987290  40.0154150  29.9271640  36.8346610
  40.8166880  30.2483690  37.2482010  39.5005970  29.5667220  37.5566520
  44.1198180  29.9155880  19.4686600  44.9126790  30.2044710  19.0168390
  43.6002530  29.4848050  18.7899080  48.8518780  26.0351510  36.7822020
  48.2456940  26.0583110  36.0417770  48.5472890  25.3034550  37.3189270
  50.2819150  29.7631800  35.3931430  51.2340900  29.6789820  35.3431670
  50.1347370  30.4273510  36.0665220  53.1728350  29.1426010  20.8923340
  52.8869860  28.7291150  20.0777520  52.9747900  30.0713720  20.7723860
  37.7351960  22.4145100  35.7782660  38.2390980  21.8352380  36.3498890
  36.9959380  22.6985330  36.3159030  44.6375580  25.1359290  19.3328950
  44.5326220  24.5211640  20.0590330  44.4699800  24.6125180  18.5491960
  44.7889900  23.8216090  35.3118180  44.0235570  24.3901090  35.2272850
  44.9705860  23.5292300  34.4186410  47.8778310  24.1979320  19.9370940
  47.3288410  24.6448620  20.5813680  48.4997570  23.6928570  20.4608610
  51.9313250  25.5521420  35.8693200  52.6722720  25.8897180  35.3660660
  51.1685930  25.7213480  35.3162970  39.7675040  20.5574690  36.6732730
  39.8080380  20.2588560  37.5817960  40.6220540  20.9582300  36.5140250
  43.5453430  23.1570240  21.8336240  43.9669850  22.9910110  22.6767630
  43.6704270  22.3470470  21.3391380  41.7080850  19.1366790  34.6407220
  41.1777310  18.6457740  34.0130560  42.3768920  19.5650990  34.1065150
  46.0581070  22.1807850  19.0813340  46.5786730  21.4656870  18.7154490
  46.7049470  22.8193720  19.3813850  50.6058910  23.6036250  34.4048410
  51.0199930  23.7581330  35.2538830  49.6709910  23.7291470  34.5674190
  51.0781080  20.9432410  36.4087560  51.6601850  20.1884730  36.3208040
  51.2542850  21.4739850  35.6319040  42.1953150  16.1029160  34.7204510
  42.1010020  15.4849910  33.9955380  41.6150540  16.8295450  34.4934420
  44.9614590  14.6602400  31.7531900  44.5131890  14.6826660  30.9077450
  44.3279790  14.2621420  32.3502200  45.3674140  23.5556730  32.3744340
  45.7862250  24.3989460  32.2020580  44.4482770  23.6928770  32.1451120
  47.7038040  21.2872910  33.7582180  47.8234250  20.6914050  34.4977020
  48.5632040  21.3242600  33.3383480  50.0425940  21.8410100  32.3344690
  49.5161160  22.3652720  31.7309830  50.3857280  22.4737490  32.9654420
  42.4412330  19.2303470  18.7794400  42.2401390  18.3670830  19.1407740
  42.2704380  19.1436830  17.8416000  43.2181560  29.8609740  33.4902070
  42.6802650  30.5855800  33.1710770  43.4715520  29.3840080  32.6999410
  44.4706810  17.8294260  35.0158000  45.0606500  17.5210110  35.7035820
  43.6527050  17.3574010  35.1717900  49.2900240  17.4460070  35.2491020
  48.6015760  16.7841610  35.1841010  50.0106260  16.9998340  35.6939480
  49.9200640  14.0411700  21.3081280  50.2002930  13.1979600  21.6640700
  49.1466370  14.2734810  21.8220030  41.2395130  16.3304090  18.7672280
  41.5421030  16.3371520  17.8591430  41.9789720  15.9801950  19.2639940
  46.0743770  31.0960950  33.7488720  46.0002470  31.9996090  34.0561090
  45.1722610  30.7772850  33.7210790  44.4580060  15.2738710  19.7528480
  44.1102060  14.5962700  19.1730930  44.6592830  14.8128220  20.5671870
  46.6229100  30.2619460  21.3715080  47.5179890  30.6004430  21.3933840
  46.6546730  29.5398870  20.7439360  40.2625260  25.6346510  19.6002080
  40.7000130  26.1776180  20.2559660  40.7472990  24.8093460  19.6098420
  42.0732980  26.7544550  24.7124310  41.7728520  26.6309520  25.6128220
  41.9670470  25.8953140  24.3040040  53.6023450  28.7923130  34.0781280
  53.0025440  28.8515690  33.3345200  53.7317350  27.8528110  34.2078130
  54.8424900  26.5340950  19.4150990  54.0117860  26.6017600  19.8858220
  55.0196730  27.4245070  19.1117850  54.2981360  23.2788430  21.9185190
  55.0600270  23.8485080  22.0244880  54.3135730  22.7115630  22.6893500
  37.7985700  21.8026360  26.1492850  37.1434540  21.5338000  25.5052550
  38.6363650  21.6930840  25.6994830  55.3041330  24.1338530  26.7627120
  55.6750160  23.3505850  26.3563090  55.9443260  24.8227630  26.5844420
  52.2875090  25.5175110  32.1757440  51.4734930  25.9472270  32.4383230
  52.6949290  26.1293520  31.5626490  54.3500530  23.5722800  19.0757710
  54.6249370  24.4801680  18.9476930  54.1611270  23.5085330  20.0119700
  50.7476140  16.5967650  20.3711340  51.1661020  16.4098630  19.5308000
  50.4412200  15.7446700  20.6814270  54.2465870  21.5091790  24.0687140
  53.8709470  20.7419720  23.6368430  53.5168990  21.8914490  24.5562070
  38.8361630  22.1878930  30.6896190  39.2034670  22.1006330  31.5692210
  38.2672450  21.4245480  30.5903050  53.6365490  20.6563310  33.7026660
  53.4051580  20.4276060  32.8024610  53.8970040  21.5762860  33.6571550
  38.3877630  19.0988020  34.5954610  37.4933680  19.0654780  34.9348320
  38.9275180  19.2974810  35.3605860  52.0753560  15.8819740  36.4806360
  52.9523740  15.8903140  36.8640360  52.0874400  15.1450580  35.8698710
  37.0123780  19.0125290  22.0918180  36.1087860  19.2755490  21.9169840
  37.4964400  19.2836460  21.3118140  53.5216830  19.7349280  27.3694380
  54.0454310  19.2411930  26.7384550  54.1076250  19.8699640  28.1141950
  53.7006550  19.8189150  30.8913930  52.7509260  19.7852690  31.0058920
  53.8819560  20.7289260  30.6563700  39.5550990  18.0690830  20.0012560
  40.2642690  17.6474050  19.5159840  38.8390930  18.1366060  19.3695910
  39.2025150  14.1230160  19.0415210  39.9253280  14.6639100  19.3596430
  39.4749670  13.8493580  18.1656750  53.0116800  18.9922630  23.3086790
  53.5075920  18.7593500  24.0935670  52.8132870  18.1534470  22.8924430
  38.8917340  13.3736350  28.9437830  39.5393530  12.8233730  28.5032990
  39.3119180  13.6279500  29.7653640  54.4403960  17.6283580  25.8424470
  54.3303240  17.4739620  26.7806740  55.2011550  17.1004520  25.5999880
  52.7869680  13.5677710  32.3007470  53.4241900  14.1811850  32.6666660
  52.9344570  13.6038370  31.3556700  55.3294230  15.4591500  19.0830610
  56.2543540  15.3272680  18.8748900  55.3070020  15.5384320  20.0367060
  55.4032720  16.2302160  21.7087320  54.6084220  16.1647280  22.2380230
  55.6076000  17.1652800  21.6972670  38.6449340  13.5292020  31.6863150
  38.2964160  13.9855840  32.4521330  38.3137040  12.6349150  31.7685580
  40.2513710  26.7011620  35.8516340  40.2083340  26.3304530  36.7330800
  40.3824720  27.6389190  35.9918160  46.1574160  14.7203900  35.2082570
  46.0963050  15.3125730  35.9577980  47.0974540  14.6129860  35.0632830
  48.7948720  14.3773960  34.8474860  49.4089130  14.6953250  34.1855940
  49.3398280  13.8922550  35.4670720  55.2123900  30.2765590  32.2536700
  54.7182180  30.6734460  31.5363830  54.6037190  29.6514800  32.6473980
  39.3169980  13.0568220  34.9613920  39.8652970  12.8756270  34.1980030
  39.3825290  12.2662330  35.4970230  40.0901740  29.6473870  32.9714120
  39.4962060  29.5158570  33.7104160  40.0825580  28.8112010  32.5056220
  49.5356760  12.9406100  31.1744150  48.6616600  13.2741210  30.9717080
  49.4267510  12.4679280  31.9996020  50.4428740  15.1476970  32.5585870
  50.1142100  14.3328730  32.1787600  51.3911040  15.1046780  32.4351560
  47.2831580  13.8575940  30.1137060  46.5003370  14.3321440  30.3933820
  46.9894510  12.9530770  30.0050240  51.8352650  14.5599040  28.1586150
  52.2760740  14.5044140  27.3107750  51.5660240  15.4757050  28.2296330
  53.6991220  14.1914280  26.1694970  53.6379620  13.2475500  26.0225990
  54.4783250  14.2994370  26.7148430  38.6271990  14.1623420  22.6350780
  39.3851350  14.2752300  22.0614810  38.1649160  14.9992620  22.5894210
  45.1685800  16.2762690  25.6253090  44.3560310  15.9019580  25.2848970
  45.6727440  15.5207770  25.9274280  49.6710780  12.9405140  26.8636160
  50.2740150  13.5125350  27.3384680  48.9303770  13.5044580  26.6410060
  52.8145380  13.3426700  22.1376440  53.0096010  14.2410150  22.4043870
  52.0275250  13.1113780  22.6309390  39.6106670  29.0239870  22.5769060
  39.0854290  29.4047900  21.8731020  39.5351250  29.6490640  23.2978770
  40.9997140  14.6887470  21.1752750  41.5289900  13.9017270  21.0460700
  41.6325460  15.3678660  21.4088280  43.1934980  14.4262610  24.2298140
  42.5637720  13.7249920  24.3968270  42.6540120  15.1866740  24.0131300
  46.1326930  31.0401840  36.9008750  47.0594240  30.8046110  36.9444710
  46.1177360  31.8673840  36.4194780  54.3671990  30.5827410  23.8983000
  54.5424180  29.8965150  23.2543920  53.6693560  31.1074460  23.5059670
  43.3190540  13.7046590  36.6650630  43.0374810  14.2080190  35.9011450
  43.7010240  12.9068340  36.2992760  42.2099640  30.9722250  21.4518310
  42.9418460  30.6881530  20.9042200  42.4693310  30.7335530  22.3417690
  41.3714430  27.0886980  21.4564640  40.7423310  27.5572080  22.0050470
  41.4862260  26.2436200  21.8910830  49.9206000  13.1200170  37.2431100
  49.8071450  13.4394780  38.1382620  50.7375740  13.5212680  36.9468380
  52.7004490  30.2671700  36.7249790  53.4929810  29.7720930  36.5175750
  52.9937640  30.9461840  37.3325400  48.8264150  21.1392640   7.6065840
  48.7458200  20.2247250   7.3357550  48.4128570  21.6359710   6.9005550
  46.9582190  22.9171660   9.4875110  46.1824290  22.4372100   9.7773680
  47.6095120  22.2377310   9.3131270  40.9748020  23.2291470  10.3650870
  40.1432900  22.9740180  10.7647380  41.5829000  23.3002240  11.1008790
  50.9789620  27.3231850   8.2674240  50.5171150  26.5519090   8.5961410
  51.7915170  27.3497920   8.7726690  40.9549280  27.2631560  10.5608890
  41.2577320  26.3729300  10.3819110  41.6992870  27.8201780  10.3331140
  39.3839970  18.1893360   4.1493260  38.4956670  18.5309330   4.0473140
  39.6681160  17.9893680   3.2574090  37.3472980  20.7899010  10.0332960
  37.9189090  20.0221210  10.0336600  37.3474520  21.0887770   9.1239570
  47.2052930  29.6089860   7.8878230  46.5864370  30.0647360   7.3172670
  48.0604710  29.7641320   7.4867930  46.3991180  25.5928850   9.4945270
  46.3299460  24.6518790   9.3334400  47.1611040  25.6830260  10.0667840
  38.5897850  16.1983370  11.8201890  38.4100690  15.3009120  12.1004650
  38.1877930  16.7455240  12.4948840  47.4296350  18.3999230   9.7214200
  47.8061170  17.5271110   9.6087870  47.3315860  18.7357930   8.8304640
  41.5601360  16.7724860   5.1831640  41.6668110  17.6728590   5.4900400
  40.6493720  16.7242830   4.8926290  51.2120470  15.8949670   6.6542540
  52.0330090  15.4046240   6.6968020  51.2454550  16.4847330   7.4074380
  39.2084520  18.6943870  10.4284230  39.8894630  18.9582240  11.0471630
  38.8932570  17.8544740  10.7622240  43.4009090  19.7411230   9.5156820
  43.9087310  20.2392200  10.1561840  43.9322330  18.9646430   9.3396180
  55.5020020  17.9116420  13.2186170  54.7972190  18.2998130  12.7001280
  55.7677940  18.6066710  13.8207100  41.6845190  14.3809790  13.7820240
  41.6863630  14.8982180  12.9766140  40.8549500  13.9039970  13.7590170
  48.0716280  24.4929100   5.2810140  47.4533550  24.9578550   4.7172860
  48.5839530  25.1856580   5.6979650  42.9348040  24.0204970  11.9593740
  42.6017420  24.6473890  12.6014810  43.1114720  24.5466850  11.1795410
  51.4481950  17.8350050   9.4270080  50.7437520  18.1234940  10.0073190
  51.8094110  18.6450160   9.0669640  41.3660520  16.0919750  11.7890690
  41.7077330  16.9361800  11.4944560  40.4276330  16.2403490  11.9056030
  42.1467140  25.9885770  13.7742920  42.7641140  26.6636850  13.4927370
  41.2860260  26.3973750  13.6830420  37.4399480  25.1785630   2.6549770
  37.0627460  25.6672730   1.9234670  37.6972550  25.8510910   3.2856300
  53.0644730  27.4525180  11.6897560  52.3808250  28.1224290  11.6814230
  53.6039020  27.6505830  10.9242420  54.5168870  17.2804840   9.8179290
  53.5693780  17.3143820   9.9494720  54.8418860  18.0943790  10.2028650
  45.0488410  13.5802020   8.1135280  45.3563390  13.0248910   7.3970780
  44.1189110  13.7146480   7.9308270  50.6003470  29.2969310  10.4042740
  50.6130630  28.8931600   9.5365000  50.0478690  30.0716600  10.3004170
  51.8948890  26.0185530   5.4932910  51.7845220  25.0759860   5.6182330
  51.8917140  26.3801170   6.3795670  49.9988910  24.1999150  11.7325350
  50.4157700  23.9859260  10.8978810  50.7228730  24.4571940  12.3033970
  47.4369170  21.6450850   4.8495400  46.5098450  21.5788230   5.0783870
  47.5893990  22.5830980   4.7350640  53.9451010  22.5986370  11.8241590
  53.1169640  22.6679460  11.3491720  54.5401490  23.1840680  11.3557420
  51.4666460  23.2071150   5.3530650  50.8478880  22.8690700   4.7056950
  51.4490910  22.5630910   6.0609840  50.9093020  19.3855690  12.7696460
  50.4964200  20.2109400  13.0236450  50.1768970  18.8000730  12.5772820
  43.0425810  22.1715590   7.6315130  42.6382810  21.4592840   7.1361030
  43.1288930  21.8268830   8.5203170  43.5107510  25.8583150   9.7954340
  43.2135800  25.2528620   9.1162120  44.4607330  25.8960460   9.6843700
  41.7554430  18.9458800  11.4114170  42.3069020  19.0554140  10.6367420
  42.2697940  19.3196400  12.1269400  51.5993120  29.4315020  13.4577440
  51.1223680  30.2387210  13.2650050  50.9154910  28.7793350  13.6103650
  42.6025940  25.5964840  16.4462140  41.7054470  25.8204810  16.6935540
  42.6278810  25.7199780  15.4973540  49.6431160  22.4457960   2.3603400
  50.0824440  21.6080390   2.2141220  50.3559580  23.0787360   2.4467540
  41.4297160  22.4678160  15.0219510  41.2904930  23.3400960  15.3906910
  40.5478520  22.1250970  14.8767450  47.7526540  27.3854030   6.3284640
  48.1922450  28.1278360   5.9140030  47.6913430  27.6280600   7.2523600
  43.2277510  28.4099860  17.2304660  43.1992940  28.8142810  16.3633090
  43.0642480  27.4810220  17.0676260  39.7430440  21.0660570   5.1321780
  39.6228040  21.7922660   4.5203050  39.4331330  20.2963480   4.6549690
  55.1792330  29.1926960  18.5268830  55.6552050  29.6709850  19.2057910
  55.7999490  29.1244450  17.8014330  37.3815810  24.2375710  10.9390420
  37.4596230  24.3724480   9.9946140  37.9957490  23.5291600  11.1318540
  38.6263440  25.9375900   7.3496600  38.2191520  26.0790490   6.4950200
  39.5176450  25.6536060   7.1467810  54.5825580  26.3839810  15.6868840
  54.7088640  26.1451690  14.7686020  54.6246960  25.5524350  16.1590920
  48.4442320  30.0867810  14.2563650  48.9586990  29.9975820  15.0586080
  47.6011400  30.4327510  14.5491560  50.4196720  30.3723150   3.6847650
  50.2597860  30.0826090   4.5829480  50.2543430  29.5963280   3.1492880
  42.8985100  30.1521680   5.4619270  42.7227580  29.2357220   5.2487070
  42.0440840  30.5108970   5.7017070  49.6872780  29.5073420   6.3194140
  50.1429730  28.7262800   6.6332760  50.0265300  30.2180240   6.8635320
  54.4349590  18.4372270  16.6518580  53.8193860  18.9451940  16.1234040
  54.1146010  17.5370600  16.5944520  37.4375330  25.2789880  13.4784880
  37.6006370  24.8095240  12.6604250  37.9027780  24.7713440  14.1433720
  42.2094100  14.4095640   8.5145450  41.7662250  15.1905180   8.1829970
  42.7679090  14.7325530   9.2216390  46.4963910  17.2764160  14.1180770
  46.0343280  17.4847180  14.9300710  46.0942020  16.4623510  13.8151440
  51.4968420  18.4973110  15.2477430  50.6462010  18.1978860  15.5686500
  51.3370210  18.7415120  14.3361250  48.5918130  19.9974860  17.3476220
  48.9171540  19.1638610  17.0078450  49.3798460  20.5203380  17.4954550
  45.3252920  14.0306340   3.3951280  44.7007100  14.0266210   4.1204590
  45.2383040  13.1637300   2.9987250  44.2470000  14.9542970  10.3735050
  44.5442330  15.8605800  10.2927070  44.7955560  14.4661750   9.7594620
  42.0008320  19.5329210   6.2426700  41.7749240  19.3166380   7.1473320
  41.2200850  19.9657670   5.8972670  49.2306080  19.5392580   4.8417350
  48.6314970  20.2628380   4.6580970  49.7785690  19.4769360   4.0593800
  44.4407530  20.4314790  16.9086970  44.3451130  19.4909520  16.7587370
  45.2839510  20.6529860  16.5135040  47.8370950  18.1756120   6.8720630
  48.2300520  18.4928320   6.0589320  48.1987800  17.2968000   6.9865150
  39.5718070  16.8428460  15.0620750  39.1781460  17.6903670  15.2693530
  38.8836470  16.2054830  15.2529390  46.1463120  16.9263430  18.1317490
  45.4561440  16.7335630  18.7663580  46.8895420  17.2098070  18.6641790
  36.8735120  14.7656920   9.0950830  36.5848170  15.3359780   9.8075810
  37.6180880  14.2861370   9.4582060  48.4226090  20.7661870  10.9671410
  47.6907210  21.2748680  11.3161510  48.0250430  19.9491850  10.6660190
  44.8603480  17.4416070   9.3723900  44.8639540  17.0006020   8.5228440
  45.7554600  17.7633400   9.4795720  40.7105860  17.3242560   8.3318110
  40.3705910  17.8017790   9.0885160  39.9483180  16.8707680   7.9719210
  44.9223630  18.4428150   2.3630660  45.0436450  18.4014630   3.3116480
  44.5372140  19.3052300   2.2077390  48.8852000  16.2195550  10.3794350
  48.9024740  16.6704200  11.2236200  48.6367580  15.3201190  10.5927790
  52.3122750  13.6327730  16.2180730  52.6368520  12.9017390  16.7438710
  52.3479260  13.3141370  15.3161720  39.0114310  24.6541310  15.6380690
  38.6269100  24.0134980  16.2363650  39.3226500  25.3577430  16.2075420
  45.1611450  21.5017850  11.1189310  45.5281580  21.0276420  11.8650650
  44.9716510  22.3759420  11.4597650  38.0251940  16.2461540   7.2482780
  37.7398860  15.8817210   8.0861400  37.9630800  15.5142000   6.6345920
  42.9510820  20.5426490  13.4373520  42.6467890  21.4218470  13.6623880
  43.9057280  20.6026280  13.4730960  41.4792610  24.7487480   4.0340370
  40.7054870  24.2085100   3.8739090  42.2087240  24.2294090   3.6958130
  52.2380590  23.7452840   9.8266760  52.9579710  24.2408130   9.4362870
  52.0362410  23.0670730   9.1820630  47.6990530  15.1390800   3.9696150
  46.8855140  14.6403970   3.8941460  47.5052480  15.9789050   3.5532500
  47.6199390  23.8161900  15.7135760  47.5536700  22.8957570  15.4593350
  46.9904530  23.9137340  16.4280400  50.4138920  19.5110450   2.2658310
  51.3018540  19.8227680   2.0909650  50.3844010  18.6382700   1.8738890
  41.5230010  24.4167860   7.6719180  42.0408680  23.6136120   7.6176070
  41.0714030  24.3547000   8.5136010  46.4099510  25.6834140   2.9446480
  46.7515210  26.4276370   2.4489800  45.5812220  25.9965260   3.3071310
  39.0074550  21.3829230  14.5844880  38.6489490  22.0483080  15.1718220
  38.7129110  20.5512780  14.9557500  42.2087670  21.8413470  17.4684430
  41.9087810  21.9870650  16.5712250  42.9798910  21.2818760  17.3757820
  47.5516120  26.6382470  15.4639560  47.5660660  25.7063430  15.2458470
  46.8441220  26.7242230  16.1029330  53.7627330  23.2789810  14.8108140
  53.0375520  23.8718590  14.6137530  54.2902790  23.2713350  14.0121510
  53.7140440  27.6764550   4.4620300  53.0716600  27.0220170   4.7364020
  53.3271100  28.0819640   3.6860970  49.2926920  25.0049980   8.3091990
  49.6450740  24.4078110   7.6493360  48.4089250  24.6794210   8.4800240
  45.3790200  25.7647670   5.7162400  46.0661330  26.3116880   6.0969990
  44.5922620  26.3088400   5.7512010  44.6817410  22.7693700   5.3287760
  45.1380190  23.5798950   5.5547950  44.3305620  22.4516840   6.1606250
  46.9850020  28.2800040  12.5580060  47.6292240  28.4859420  13.2353480
  47.3479460  27.5188440  12.1050910  40.5829190  13.1131350   5.8010280
  40.4543820  13.1049250   6.7495200  39.7591210  13.4514440   5.4501290
  48.2582100  26.2832390  11.2757510  48.9004330  25.5825550  11.3889680
  48.7831450  27.0630830  11.0954400  50.0319720  27.0827290  14.4793570
  50.3675960  27.6693980  15.1571490  49.1120060  26.9520000  14.7091360
  37.5823120  14.8722470  15.2616980  36.8681640  15.0719390  15.8669590
  38.0018160  14.0962040  15.6331780  51.6854070  24.4852950   2.6610810
  51.3975770  24.9465640   3.4488690  52.4806240  24.0250720   2.9295030
  37.8695710  28.8602730  16.2483510  37.9786830  27.9197470  16.1078900
  37.2176270  29.1257480  15.5997240  45.8608300  27.1318620  17.6481630
  45.5405170  26.4127860  18.1927320  45.1866660  27.8073690  17.7217690
  43.9022470  27.9779070   2.5914780  43.8932570  28.7108760   1.9759290
  42.9820830  27.7310650   2.6841740  39.5029110  23.1993960   3.3361540
  38.8957060  23.9392860   3.3456840  39.9778460  23.2893320   2.5099740
  49.0761900  17.3644780  13.0118430  49.4442720  16.5439990  13.3398000
  48.2160100  17.4246670  13.4274080  52.4423930  16.3201720   3.8205990
  51.8137090  16.4247390   3.1064220  51.9475850  16.5398500   4.6099870
  44.4107960  18.5987670   5.2363870  43.7024110  19.0674010   5.6777480
  44.6952440  17.9409680   5.8709060  46.0363890  20.0184370  13.2356400
  46.5349140  20.4930190  13.9008250  46.1786840  19.0947890  13.4426430
  48.4423390  15.3238330   6.6759660  48.3191170  15.3424460   5.7269170
  49.3907950  15.3717270   6.7958060  45.5300180  30.5593630   5.9487640
  45.7841680  30.5215020   5.0267010  44.5812660  30.4326960   5.9415890
  42.6142980  16.9072750   2.6114580  43.4633510  17.3442900   2.5454770
  42.2474250  17.2193010   3.4386640  53.2430750  16.2352330  14.0784790
  52.7404350  16.9757730  14.4178600  54.0587410  16.6236330  13.7621580
  51.5352760  21.4785510   7.5246150  50.5942900  21.4935740   7.6993840
  51.8496830  20.6921470   7.9706450  40.2081160  20.5930180   1.7683000
  40.2884750  19.6457690   1.8800400  41.1000910  20.9237060   1.8743660
  53.5378340  28.6494360   9.2000410  53.6625760  29.4725530   9.6724220
  54.4043900  28.4385090   8.8524560  41.0095870  30.7425570   8.8717540
  41.7458350  30.1941030   9.1426110  41.3936790  31.6081580   8.7323530
  37.8941350  26.8099140   4.7459050  36.9681130  27.0520280   4.7364460
  38.3597780  27.6373400   4.6243800  40.0154150  29.9271640  18.0603120
  40.8166880  30.2483690  18.4738520  39.5005970  29.5667220  18.7823030
  48.8518780  26.0351510  18.0078530  48.2456940  26.0583110  17.2674280
  48.5472890  25.3034550  18.5445780  50.2819150  29.7631800  16.6187940
  51.2340900  29.6789820  16.5688180  50.1347370  30.4273510  17.2921730
  37.7351960  22.4145100  17.0039170  38.2390980  21.8352380  17.5755400
  36.9959380  22.6985330  17.5415540  44.7889900  23.8216090  16.5374690
  44.0235570  24.3901090  16.4529360  44.9705860  23.5292300  15.6442920
  51.9313250  25.5521420  17.0949710  52.6722720  25.8897180  16.5917170
  51.1685930  25.7213480  16.5419480  39.7675040  20.5574690  17.8989240
  39.8080380  20.2588560  18.8074470  40.6220540  20.9582300  17.7396760
  43.5453430  23.1570240   3.0592750  43.9669850  22.9910110   3.9024140
  43.6704270  22.3470470   2.5647890  41.7080850  19.1366790  15.8663730
  41.1777310  18.6457740  15.2387070  42.3768920  19.5650990  15.3321660
  50.6058910  23.6036250  15.6304920  51.0199930  23.7581330  16.4795340
  49.6709910  23.7291470  15.7930700  51.0781080  20.9432410  17.6344070
  51.6601850  20.1884730  17.5464550  51.2542850  21.4739850  16.8575550
  42.1953150  16.1029160  15.9461020  42.1010020  15.4849910  15.2211890
  41.6150540  16.8295450  15.7190930  44.9614590  14.6602400  12.9788410
  44.5131890  14.6826660  12.1333960  44.3279790  14.2621420  13.5758710
  45.3674140  23.5556730  13.6000850  45.7862250  24.3989460  13.4277090
  44.4482770  23.6928770  13.3707630  47.7038040  21.2872910  14.9838690
  47.8234250  20.6914050  15.7233530  48.5632040  21.3242600  14.5639990
  50.0425940  21.8410100  13.5601200  49.5161160  22.3652720  12.9566340
  50.3857280  22.4737490  14.1910930  43.2181560  29.8609740  14.7158580
  42.6802650  30.5855800  14.3967280  43.4715520  29.3840080  13.9255920
  44.4706810  17.8294260  16.2414510  45.0606500  17.5210110  16.9292330
  43.6527050  17.3574010  16.3974410  49.2900240  17.4460070  16.4747530
  48.6015760  16.7841610  16.4097520  50.0106260  16.9998340  16.9195990
  49.9200640  14.0411700   2.5337790  50.2002930  13.1979600   2.8897210
  49.1466370  14.2734810   3.0476540  46.0743770  31.0960950  14.9745230
  46.0002470  31.9996090  15.2817600  45.1722610  30.7772850  14.9467300
  46.6229100  30.2619460   2.5971590  47.5179890  30.6004430   2.6190350
  46.6546730  29.5398870   1.9695870  37.4771060  28.4235540   8.2778850
  37.8074070  27.5556600   8.0457490  37.9062060  28.6294060   9.1083810
  42.0732980  26.7544550   5.9380820  41.7728520  26.6309520   6.8384730
  41.9670470  25.8953140   5.5296550  37.9661270  29.2906130  11.0160480
  37.5292260  29.4706930  11.8484630  38.5338950  30.0480750  10.8742200
  53.6023450  28.7923130  15.3037790  53.0025440  28.8515690  14.5601710
  53.7317350  27.8528110  15.4334640  54.2981360  23.2788430   3.1441700
  55.0600270  23.8485080   3.2501390  54.3135730  22.7115630   3.9150010
  37.7985700  21.8026360   7.3749360  37.1434540  21.5338000   6.7309060
  38.6363650  21.6930840   6.9251340  55.3041330  24.1338530   7.9883630
  55.6750160  23.3505850   7.5819600  55.9443260  24.8227630   7.8100930
  52.2875090  25.5175110  13.4013950  51.4734930  25.9472270  13.6639740
  52.6949290  26.1293520  12.7883000  54.2465870  21.5091790   5.2943650
  53.8709470  20.7419720   4.8624940  53.5168990  21.8914490   5.7818580
  38.8361630  22.1878930  11.9152700  39.2034670  22.1006330  12.7948720
  38.2672450  21.4245480  11.8159560  53.6365490  20.6563310  14.9283170
  53.4051580  20.4276060  14.0281120  53.8970040  21.5762860  14.8828060
  38.3877630  19.0988020  15.8211120  37.4933680  19.0654780  16.1604830
  38.9275180  19.2974810  16.5862370  52.0753560  15.8819740  17.7062870
  52.9523740  15.8903140  18.0896870  52.0874400  15.1450580  17.0955220
  37.0123780  19.0125290   3.3174690  36.1087860  19.2755490   3.1426350
  37.4964400  19.2836460   2.5374650  53.5216830  19.7349280   8.5950890
  54.0454310  19.2411930   7.9641060  54.1076250  19.8699640   9.3398460
  53.7006550  19.8189150  12.1170440  52.7509260  19.7852690  12.2315430
  53.8819560  20.7289260  11.8820210  53.0116800  18.9922630   4.5343300
  53.5075920  18.7593500   5.3192180  52.8132870  18.1534470   4.1180940
  38.8917340  13.3736350  10.1694340  39.5393530  12.8233730   9.7289500
  39.3119180  13.6279500  10.9910150  54.4403960  17.6283580   7.0680980
  54.3303240  17.4739620   8.0063250  55.2011550  17.1004520   6.8256390
  52.7869680  13.5677710  13.5263980  53.4241900  14.1811850  13.8923170
  52.9344570  13.6038370  12.5813210  55.4032720  16.2302160   2.9343830
  54.6084220  16.1647280   3.4636740  55.6076000  17.1652800   2.9229180
  52.3451140  30.2693710   6.9282220  52.9410210  29.9478280   6.2516640
  52.6029290  29.7965530   7.7195490  38.6449340  13.5292020  12.9119660
  38.2964160  13.9855840  13.6777840  38.3137040  12.6349150  12.9942090
  40.2513710  26.7011620  17.0772850  40.2083340  26.3304530  17.9587310
  40.3824720  27.6389190  17.2174670  43.9519740  28.2571210  12.6782570
  43.7111100  28.5245770  11.7913090  44.8922380  28.4276940  12.7333430
  46.1574160  14.7203900  16.4339080  46.0963050  15.3125730  17.1834490
  47.0974540  14.6129860  16.2889340  48.7948720  14.3773960  16.0731370
  49.4089130  14.6953250  15.4112450  49.3398280  13.8922550  16.6927230
  55.2123900  30.2765590  13.4793210  54.7182180  30.6734460  12.7620340
  54.6037190  29.6514800  13.8730490  39.3169980  13.0568220  16.1870430
  39.8652970  12.8756270  15.4236540  39.3825290  12.2662330  16.7226740
  40.0901740  29.6473870  14.1970630  39.4962060  29.5158570  14.9360670
  40.0825580  28.8112010  13.7312730  49.5356760  12.9406100  12.4000660
  48.6616600  13.2741210  12.1973590  49.4267510  12.4679280  13.2252530
  50.4428740  15.1476970  13.7842380  50.1142100  14.3328730  13.4044110
  51.3911040  15.1046780  13.6608070  52.8963350  30.9189010  10.7579950
  52.4366320  31.6704820  10.3837970  52.2675810  30.1995480  10.6994750
  39.7213970  27.0132250  13.1478670  38.9948030  26.3937540  13.0804620
  39.7823120  27.4072860  12.2776750  43.3259070  29.2277250   9.9328080
  43.8424090  28.6164610   9.4076340  43.9756450  29.7306030  10.4239090
  46.0654570  30.1185740  10.7597060  46.3532380  29.8640040   9.8830070
  46.5777790  29.5663100  11.3502630  47.2831580  13.8575940  11.3393570
  46.5003370  14.3321440  11.6190330  46.9894510  12.9530770  11.2306750
  51.8352650  14.5599040   9.3842660  52.2760740  14.5044140   8.5364260
  51.5660240  15.4757050   9.4552840  53.6991220  14.1914280   7.3951480
  53.6379620  13.2475500   7.2482500  54.4783250  14.2994370   7.9404940
  38.0043970  30.3306640   6.3575430  37.8366010  29.6977320   7.0557320
  37.1378480  30.5366040   6.0069620  38.6271990  14.1623420   3.8607290
  39.3851350  14.2752300   3.2871320  38.1649160  14.9992620   3.8150720
  45.1685800  16.2762690   6.8509600  44.3560310  15.9019580   6.5105480
  45.6727440  15.5207770   7.1530790  49.6710780  12.9405140   8.0892670
  50.2740150  13.5125350   8.5641190  48.9303770  13.5044580   7.8666570
  52.8145380  13.3426700   3.3632950  53.0096010  14.2410150   3.6300380
  52.0275250  13.1113780   3.8565900  39.6106670  29.0239870   3.8025570
  39.0854290  29.4047900   3.0987530  39.5351250  29.6490640   4.5235280
  40.9997140  14.6887470   2.4009260  41.5289900  13.9017270   2.2717210
  41.6325460  15.3678660   2.6344790  43.1934980  14.4262610   5.4554650
  42.5637720  13.7249920   5.6224780  42.6540120  15.1866740   5.2387810
  46.1326930  31.0401840  18.1265260  47.0594240  30.8046110  18.1701220
  46.1177360  31.8673840  17.6451290  54.3671990  30.5827410   5.1239510
  54.5424180  29.8965150   4.4800430  53.6693560  31.1074460   4.7316180
  43.3190540  13.7046590  17.8907140  43.0374810  14.2080190  17.1267960
  43.7010240  12.9068340  17.5249270  42.2099640  30.9722250   2.6774820
  42.9418460  30.6881530   2.1298710  42.4693310  30.7335530   3.5674200
  41.3714430  27.0886980   2.6821150  40.7423310  27.5572080   3.2306980
  41.4862260  26.2436200   3.1167340  49.9206000  13.1200170  18.4687610
  49.8071450  13.4394780  19.3639130  50.7375740  13.5212680  18.1724890
  52.7004490  30.2671700  17.9506300  53.4929810  29.7720930  17.7432260
  52.9937640  30.9461840  18.5581910  46.9582190   4.1428170  47.0362090
  46.1824290   3.6628610  47.3260660  47.6095120   3.4633820  46.8618250
  40.9748020   4.4547980  47.9137850  40.1432900   4.1996690  48.3134360
  41.5829000   4.5258750  48.6495770  50.9789620   8.5488360  45.8161220
  50.5171150   7.7775600  46.1448390  51.7915170   8.5754430  46.3213670
  40.9549280   8.4888070  48.1095870  41.2577320   7.5985810  47.9306090
  41.6992870   9.0458290  47.8818120  47.2052930  10.8346370  45.4365210
  46.5864370  11.2903870  44.8659650  48.0604710  10.9897830  45.0354910
  46.3991180   6.8185360  47.0432250  46.3299460   5.8775300  46.8821380
  47.1611040   6.9086770  47.6154820  48.0716280   5.7185610  42.8297120
  47.4533550   6.1835060  42.2659840  48.5839530   6.4113090  43.2466630
  42.9348040   5.2461480  49.5080720  42.6017420   5.8730400  50.1501790
  43.1114720   5.7723360  48.7282390  42.1467140   7.2142280  51.3229900
  42.7641140   7.8893360  51.0414350  41.2860260   7.6230260  51.2317400
  37.4399480   6.4042140  40.2036750  37.0627460   6.8929240  39.4721650
  37.6972550   7.0767420  40.8343280  53.0644730   8.6781690  49.2384540
  52.3808250   9.3480800  49.2301210  53.6039020   8.8762340  48.4729400
  50.6003470  10.5225820  47.9529720  50.6130630  10.1188110  47.0851980
  50.0478690  11.2973110  47.8491150  51.8948890   7.2442040  43.0419890
  51.7845220   6.3016370  43.1669310  51.8917140   7.6057680  43.9282650
  49.9988910   5.4255660  49.2812330  50.4157700   5.2115770  48.4465790
  50.7228730   5.6828450  49.8520950  47.4369170   2.8707360  42.3982380
  46.5098450   2.8044740  42.6270850  47.5893990   3.8087490  42.2837620
  53.9451010   3.8242880  49.3728570  53.1169640   3.8935970  48.8978700
  54.5401490   4.4097190  48.9044400  51.4666460   4.4327660  42.9017630
  50.8478880   4.0947210  42.2543930  51.4490910   3.7887420  43.6096820
  43.0425810   3.3972100  45.1802110  42.6382810   2.6849350  44.6848010
  43.1288930   3.0525340  46.0690150  43.5107510   7.0839660  47.3441320
  43.2135800   6.4785130  46.6649100  44.4607330   7.1216970  47.2330680
  51.5993120  10.6571530  51.0064420  51.1223680  11.4643720  50.8137030
  50.9154910  10.0049860  51.1590630  49.6431160   3.6714470  39.9090380
  50.0824440   2.8336900  39.7628200  50.3559580   4.3043870  39.9954520
  41.4297160   3.6934670  52.5706490  41.2904930   4.5657470  52.9393890
  40.5478520   3.3507480  52.4254430  47.7526540   8.6110540  43.8771620
  48.1922450   9.3534870  43.4627010  47.6913430   8.8537110  44.8010580
  37.3815810   5.4632220  48.4877400  37.4596230   5.5980990  47.5433120
  37.9957490   4.7548110  48.6805520  38.6263440   7.1632410  44.8983580
  38.2191520   7.3047000  44.0437180  39.5176450   6.8792570  44.6954790
  54.5825580   7.6096320  53.2355820  54.7088640   7.3708200  52.3173000
  54.6246960   6.7780860  53.7077900  48.4442320  11.3124320  51.8050630
  48.9586990  11.2232330  52.6073060  47.6011400  11.6584020  52.0978540
  50.4196720  11.5979660  41.2334630  50.2597860  11.3082600  42.1316460
  50.2543430  10.8219790  40.6979860  42.8985100  11.3778190  43.0106250
  42.7227580  10.4613730  42.7974050  42.0440840  11.7365480  43.2504050
  50.1222850   9.1067220  39.7932630  49.4288010   9.1044510  39.1334910
  50.8645710   8.6826540  39.3626800  49.6872780  10.7329930  43.8681120
  50.1429730   9.9519310  44.1819740  50.0265300  11.4436750  44.4122300
  37.4375330   6.5046390  51.0271860  37.6006370   6.0351750  50.2091230
  37.9027780   5.9969950  51.6920700  39.0114310   5.8797820  53.1867670
  38.6269100   5.2391490  53.7850630  39.3226500   6.5833940  53.7562400
  45.1611450   2.7274360  48.6676290  45.5281580   2.2532930  49.4137630
  44.9716510   3.6015930  49.0084630  42.9510820   1.7683000  50.9860500
  42.6467890   2.6474980  51.2110860  43.9057280   1.8282790  51.0217940
  41.4792610   5.9743990  41.5827350  40.7054870   5.4341610  41.4226070
  42.2087240   5.4550600  41.2445110  52.2380590   4.9709350  47.3753740
  52.9579710   5.4664640  46.9849850  52.0362410   4.2927240  46.7307610
  47.6199390   5.0418410  53.2622740  47.5536700   4.1214080  53.0080330
  46.9904530   5.1393850  53.9767380  41.5230010   5.6424370  45.2206160
  42.0408680   4.8392630  45.1663050  41.0714030   5.5803510  46.0622990
  46.4099510   6.9090650  40.4933460  46.7515210   7.6532880  39.9976780
  45.5812220   7.2221770  40.8558290  39.0074550   2.6085740  52.1331860
  38.6489490   3.2739590  52.7205200  38.7129110   1.7769290  52.5044480
  47.5516120   7.8638980  53.0126540  47.5660660   6.9319940  52.7945450
  46.8441220   7.9498740  53.6516310  52.6853190   2.0478800  39.2825150
  52.6016910   2.4793020  38.4321590  53.4047380   2.5077150  39.7151970
  53.7627330   4.5046320  52.3595120  53.0375520   5.0975100  52.1624510
  54.2902790   4.4969860  51.5608490  53.7140440   8.9021060  42.0107280
  53.0716600   8.2476680  42.2851000  53.3271100   9.3076150  41.2347950
  49.2926920   6.2306490  45.8578970  49.6450740   5.6334620  45.1980340
  48.4089250   5.9050720  46.0287220  45.3790200   6.9904180  43.2649380
  46.0661330   7.5373390  43.6456970  44.5922620   7.5344910  43.2998990
  37.5182600   2.6077000  38.7566460  38.3877450   2.8901800  39.0402380
  37.0272920   3.4212870  38.6415270  44.6817410   3.9950210  42.8774740
  45.1380190   4.8055460  43.1034930  44.3305620   3.6773350  43.7093230
  46.9850020   9.5056550  50.1067040  47.6292240   9.7115930  50.7840460
  47.3479460   8.7444950  49.6537890  48.2582100   7.5088900  48.8244490
  48.9004330   6.8082060  48.9376660  48.7831450   8.2887340  48.6441380
  52.1037820   7.7937520  38.5483630  51.8775400   7.0767960  39.1408270
  51.7134020   7.5449960  37.7105380  50.0319720   8.3083800  52.0280550
  50.3675960   8.8950490  52.7058470  49.1120060   8.1776510  52.2578340
  37.8853850  11.8204380  39.3228090  38.2451490  12.4193720  38.6685360
  37.7446190  12.3664270  40.0963120  51.6854070   5.7109460  40.2097790
  51.3975770   6.1722150  40.9975670  52.4806240   5.2507230  40.4782010
  37.8695710  10.0859240  53.7970490  37.9786830   9.1453980  53.6565880
  37.2176270  10.3513990  53.1484220  43.9022470   9.2035580  40.1401760
  43.8932570   9.9365270  39.5246270  42.9820830   8.9567160  40.2328720
  39.5029110   4.4250470  40.8848520  38.8957060   5.1649370  40.8943820
  39.9778460   4.5149830  40.0586720  46.8882070   9.2663820  38.8026950
  46.9894050   9.0627810  37.8728930  45.9883810   9.0122100  39.0074730
  45.5300180  11.7850140  43.4974620  45.7841680  11.7471530  42.5753990
  44.5812660  11.6583470  43.4902870  51.5352760   2.7042020  45.0733130
  50.5942900   2.7192250  45.2480820  51.8496830   1.9177980  45.5193430
  41.5134400   4.3861620  38.6337090  42.2797670   4.2742980  39.1962520
  41.5909090   3.6899590  37.9813860  53.5378340   9.8750870  46.7487390
  53.6625760  10.6982040  47.2211200  54.4043900   9.6641600  46.4011540
  41.0095870  11.9682080  46.4204520  41.7458350  11.4197540  46.6913090
  41.3936790  12.8338090  46.2810510  37.8941350   8.0355650  42.2946030
  36.9681130   8.2776790  42.2851440  38.3597780   8.8629910  42.1730780
  44.1198180  11.1412390  38.2430090  44.9126790  11.4301220  37.7911880
  43.6002530  10.7104560  37.5642570  53.1728350  10.3682520  39.6666830
  52.8869860   9.9547660  38.8521010  52.9747900  11.2970230  39.5467350
  44.6375580   6.3615800  38.1072440  44.5326220   5.7468150  38.8333820
  44.4699800   5.8381690  37.3235450  44.7889900   5.0472600  54.0861670
  44.0235570   5.6157600  54.0016340  44.9705860   4.7548810  53.1929900
  47.8778310   5.4235830  38.7114430  47.3288410   5.8705130  39.3557170
  48.4997570   4.9185080  39.2352100  43.5453430   4.3826750  40.6079730
  43.9669850   4.2166620  41.4511120  43.6704270   3.5726980  40.1134870
  46.0581070   3.4064360  37.8556830  46.5786730   2.6913380  37.4897980
  46.7049470   4.0450230  38.1557340  50.6058910   4.8292760  53.1791900
  51.0199930   4.9837840  54.0282320  49.6709910   4.9547980  53.3417680
  45.3674140   4.7813240  51.1487830  45.7862250   5.6245970  50.9764070
  44.4482770   4.9185280  50.9194610  47.7038040   2.5129420  52.5325670
  47.8234250   1.9170560  53.2720510  48.5632040   2.5499110  52.1126970
  50.0425940   3.0666610  51.1088180  49.5161160   3.5909230  50.5053320
  50.3857280   3.6994000  51.7397910  43.2181560  11.0866250  52.2645560
  42.6802650  11.8112310  51.9454260  43.4715520  10.6096590  51.4742900
  46.0743770  12.3217460  52.5232210  46.0002470  13.2252600  52.8304580
  45.1722610  12.0029360  52.4954280  46.6229100  11.4875970  40.1458570
  47.5179890  11.8260940  40.1677330  46.6546730  10.7655380  39.5182850
  40.2625260   6.8603020  38.3745570  40.7000130   7.4032690  39.0303150
  40.7472990   6.0349970  38.3841910  37.4771060   9.6492050  45.8265830
  37.8074070   8.7813110  45.5944470  37.9062060   9.8550570  46.6570790
  42.0732980   7.9801060  43.4867800  41.7728520   7.8566030  44.3871710
  41.9670470   7.1209650  43.0783530  37.9661270  10.5162640  48.5647460
  37.5292260  10.6963440  49.3971610  38.5338950  11.2737260  48.4229180
  53.6023450  10.0179640  52.8524770  53.0025440  10.0772200  52.1088690
  53.7317350   9.0784620  52.9821620  54.8424900   7.7597460  38.1894480
  54.0117860   7.8274110  38.6601710  55.0196730   8.6501580  37.8861340
  54.2981360   4.5044940  40.6928680  55.0600270   5.0741590  40.7988370
  54.3135730   3.9372140  41.4636990  37.7985700   3.0282870  44.9236340
  37.1434540   2.7594510  44.2796040  38.6363650   2.9187350  44.4738320
  55.3041330   5.3595040  45.5370610  55.6750160   4.5762360  45.1306580
  55.9443260   6.0484140  45.3587910  52.2875090   6.7431620  50.9500930
  51.4734930   7.1728780  51.2126720  52.6949290   7.3550030  50.3369980
  54.3500530   4.7979310  37.8501200  54.6249370   5.7058190  37.7220420
  54.1611270   4.7341840  38.7863190  54.2465870   2.7348300  42.8430630
  53.8709470   1.9676230  42.4111920  53.5168990   3.1171000  43.3305560
  38.8361630   3.4135440  49.4639680  39.2034670   3.3262840  50.3435700
  38.2672450   2.6501990  49.3646540  52.3451140  11.4950220  44.4769200
  52.9410210  11.1734790  43.8003620  52.6029290  11.0222040  45.2682470
  43.9519740   9.4827720  50.2269550  43.7111100   9.7502280  49.3400070
  44.8922380   9.6533450  50.2820410  55.2123900  11.5022100  51.0280190
  54.7182180  11.8990970  50.3107320  54.6037190  10.8771310  51.4217470
  40.0901740  10.8730380  51.7457610  39.4962060  10.7415080  52.4847650
  40.0825580  10.0368520  51.2799710  52.8963350  12.1445520  48.3066930
  52.4366320  12.8961330  47.9324950  52.2675810  11.4251990  48.2481730
  39.7213970   8.2388760  50.6965650  38.9948030   7.6194050  50.6291600
  39.7823120   8.6329370  49.8263730  43.3259070  10.4533760  47.4815060
  43.8424090   9.8421120  46.9563320  43.9756450  10.9562540  47.9726070
  46.0654570  11.3442250  48.3084040  46.3532380  11.0896550  47.4317050
  46.5777790  10.7919610  48.8989610  38.0043970  11.5563150  43.9062410
  37.8366010  10.9233830  44.6044300  37.1378480  11.7622550  43.5556600
  39.6106670  10.2496380  41.3512550  39.0854290  10.6304410  40.6474510
  39.5351250  10.8747150  42.0722260  54.3671990  11.8083920  42.6726490
  54.5424180  11.1221660  42.0287410  53.6693560  12.3330970  42.2803160
  42.2099640  12.1978760  40.2261800  42.9418460  11.9138040  39.6785690
  42.4693310  11.9592040  41.1161180  41.3714430   8.3143490  40.2308130
  40.7423310   8.7828590  40.7793960  41.4862260   7.4692710  40.6654320
  46.9582190   4.1428170  28.2618600  46.1824290   3.6628610  28.5517170
  47.6095120   3.4633820  28.0874760  40.9748020   4.4547980  29.1394360
  40.1432900   4.1996690  29.5390870  41.5829000   4.5258750  29.8752280
  50.9789620   8.5488360  27.0417730  50.5171150   7.7775600  27.3704900
  51.7915170   8.5754430  27.5470180  40.9549280   8.4888070  29.3352380
  41.2577320   7.5985810  29.1562600  41.6992870   9.0458290  29.1074630
  47.2052930  10.8346370  26.6621720  46.5864370  11.2903870  26.0916160
  48.0604710  10.9897830  26.2611420  46.3991180   6.8185360  28.2688760
  46.3299460   5.8775300  28.1077890  47.1611040   6.9086770  28.8411330
  48.0716280   5.7185610  24.0553630  47.4533550   6.1835060  23.4916350
  48.5839530   6.4113090  24.4723140  42.9348040   5.2461480  30.7337230
  42.6017420   5.8730400  31.3758300  43.1114720   5.7723360  29.9538900
  42.1467140   7.2142280  32.5486410  42.7641140   7.8893360  32.2670860
  41.2860260   7.6230260  32.4573910  37.4399480   6.4042140  21.4293260
  37.0627460   6.8929240  20.6978160  37.6972550   7.0767420  22.0599790
  53.0644730   8.6781690  30.4641050  52.3808250   9.3480800  30.4557720
  53.6039020   8.8762340  29.6985910  50.6003470  10.5225820  29.1786230
  50.6130630  10.1188110  28.3108490  50.0478690  11.2973110  29.0747660
  51.8948890   7.2442040  24.2676400  51.7845220   6.3016370  24.3925820
  51.8917140   7.6057680  25.1539160  49.9988910   5.4255660  30.5068840
  50.4157700   5.2115770  29.6722300  50.7228730   5.6828450  31.0777460
  47.4369170   2.8707360  23.6238890  46.5098450   2.8044740  23.8527360
  47.5893990   3.8087490  23.5094130  53.9451010   3.8242880  30.5985080
  53.1169640   3.8935970  30.1235210  54.5401490   4.4097190  30.1300910
  51.4666460   4.4327660  24.1274140  50.8478880   4.0947210  23.4800440
  51.4490910   3.7887420  24.8353330  43.0425810   3.3972100  26.4058620
  42.6382810   2.6849350  25.9104520  43.1288930   3.0525340  27.2946660
  43.5107510   7.0839660  28.5697830  43.2135800   6.4785130  27.8905610
  44.4607330   7.1216970  28.4587190  51.5993120  10.6571530  32.2320930
  51.1223680  11.4643720  32.0393540  50.9154910  10.0049860  32.3847140
  42.6025940   6.8221350  35.2205630  41.7054470   7.0461320  35.4679030
  42.6278810   6.9456290  34.2717030  49.6431160   3.6714470  21.1346890
  50.0824440   2.8336900  20.9884710  50.3559580   4.3043870  21.2211030
  41.4297160   3.6934670  33.7963000  41.2904930   4.5657470  34.1650400
  40.5478520   3.3507480  33.6510940  47.7526540   8.6110540  25.1028130
  48.1922450   9.3534870  24.6883520  47.6913430   8.8537110  26.0267090
  43.2277510   9.6356370  36.0048150  43.1992940  10.0399320  35.1376580
  43.0642480   8.7066730  35.8419750  55.1792330  10.4183470  37.3012320
  55.6552050  10.8966360  37.9801400  55.7999490  10.3500960  36.5757820
  37.3815810   5.4632220  29.7133910  37.4596230   5.5980990  28.7689630
  37.9957490   4.7548110  29.9062030  38.6263440   7.1632410  26.1240090
  38.2191520   7.3047000  25.2693690  39.5176450   6.8792570  25.9211300
  54.5825580   7.6096320  34.4612330  54.7088640   7.3708200  33.5429510
  54.6246960   6.7780860  34.9334410  48.4442320  11.3124320  33.0307140
  48.9586990  11.2232330  33.8329570  47.6011400  11.6584020  33.3235050
  50.4196720  11.5979660  22.4591140  50.2597860  11.3082600  23.3572970
  50.2543430  10.8219790  21.9236370  42.8985100  11.3778190  24.2362760
  42.7227580  10.4613730  24.0230560  42.0440840  11.7365480  24.4760560
  50.1222850   9.1067220  21.0189140  49.4288010   9.1044510  20.3591420
  50.8645710   8.6826540  20.5883310  49.6872780  10.7329930  25.0937630
  50.1429730   9.9519310  25.4076250  50.0265300  11.4436750  25.6378810
  37.4375330   6.5046390  32.2528370  37.6006370   6.0351750  31.4347740
  37.9027780   5.9969950  32.9177210  39.0114310   5.8797820  34.4124180
  38.6269100   5.2391490  35.0107140  39.3226500   6.5833940  34.9818910
  45.1611450   2.7274360  29.8932800  45.5281580   2.2532930  30.6394140
  44.9716510   3.6015930  30.2341140  42.9510820   1.7683000  32.2117010
  42.6467890   2.6474980  32.4367370  43.9057280   1.8282790  32.2474450
  41.4792610   5.9743990  22.8083860  40.7054870   5.4341610  22.6482580
  42.2087240   5.4550600  22.4701620  52.2380590   4.9709350  28.6010250
  52.9579710   5.4664640  28.2106360  52.0362410   4.2927240  27.9564120
  47.6199390   5.0418410  34.4879250  47.5536700   4.1214080  34.2336840
  46.9904530   5.1393850  35.2023890  41.5230010   5.6424370  26.4462670
  42.0408680   4.8392630  26.3919560  41.0714030   5.5803510  27.2879500
  46.4099510   6.9090650  21.7189970  46.7515210   7.6532880  21.2233290
  45.5812220   7.2221770  22.0814800  39.0074550   2.6085740  33.3588370
  38.6489490   3.2739590  33.9461710  38.7129110   1.7769290  33.7300990
  42.2087670   3.0669980  36.2427920  41.9087810   3.2127160  35.3455740
  42.9798910   2.5075270  36.1501310  47.5516120   7.8638980  34.2383050
  47.5660660   6.9319940  34.0201960  46.8441220   7.9498740  34.8772820
  52.6853190   2.0478800  20.5081660  52.6016910   2.4793020  19.6578100
  53.4047380   2.5077150  20.9408480  53.7627330   4.5046320  33.5851630
  53.0375520   5.0975100  33.3881020  54.2902790   4.4969860  32.7865000
  53.7140440   8.9021060  23.2363790  53.0716600   8.2476680  23.5107510
  53.3271100   9.3076150  22.4604460  49.2926920   6.2306490  27.0835480
  49.6450740   5.6334620  26.4236850  48.4089250   5.9050720  27.2543730
  45.3790200   6.9904180  24.4905890  46.0661330   7.5373390  24.8713480
  44.5922620   7.5344910  24.5255500  37.5182600   2.6077000  19.9822970
  38.3877450   2.8901800  20.2658890  37.0272920   3.4212870  19.8671780
  44.6817410   3.9950210  24.1031250  45.1380190   4.8055460  24.3291440
  44.3305620   3.6773350  24.9349740  46.9850020   9.5056550  31.3323550
  47.6292240   9.7115930  32.0096970  47.3479460   8.7444950  30.8794400
  48.2582100   7.5088900  30.0501000  48.9004330   6.8082060  30.1633170
  48.7831450   8.2887340  29.8697890  52.1037820   7.7937520  19.7740140
  51.8775400   7.0767960  20.3664780  51.7134020   7.5449960  18.9361890
  50.0319720   8.3083800  33.2537060  50.3675960   8.8950490  33.9314980
  49.1120060   8.1776510  33.4834850  37.8853850  11.8204380  20.5484600
  38.2451490  12.4193720  19.8941870  37.7446190  12.3664270  21.3219630
  51.6854070   5.7109460  21.4354300  51.3975770   6.1722150  22.2232180
  52.4806240   5.2507230  21.7038520  37.8695710  10.0859240  35.0227000
  37.9786830   9.1453980  34.8822390  37.2176270  10.3513990  34.3740730
  45.8608300   8.3575130  36.4225120  45.5405170   7.6384370  36.9670810
  45.1866660   9.0330200  36.4961180  43.9022470   9.2035580  21.3658270
  43.8932570   9.9365270  20.7502780  42.9820830   8.9567160  21.4585230
  39.5029110   4.4250470  22.1105030  38.8957060   5.1649370  22.1200330
  39.9778460   4.5149830  21.2843230  46.8882070   9.2663820  20.0283460
  46.9894050   9.0627810  19.0985440  45.9883810   9.0122100  20.2331240
  45.5300180  11.7850140  24.7231130  45.7841680  11.7471530  23.8010500
  44.5812660  11.6583470  24.7159380  51.5352760   2.7042020  26.2989640
  50.5942900   2.7192250  26.4737330  51.8496830   1.9177980  26.7449940
  41.5134400   4.3861620  19.8593600  42.2797670   4.2742980  20.4219030
  41.5909090   3.6899590  19.2070370  53.5378340   9.8750870  27.9743900
  53.6625760  10.6982040  28.4467710  54.4043900   9.6641600  27.6268050
  41.0095870  11.9682080  27.6461030  41.7458350  11.4197540  27.9169600
  41.3936790  12.8338090  27.5067020  37.8941350   8.0355650  23.5202540
  36.9681130   8.2776790  23.5107950  38.3597780   8.8629910  23.3987290
  40.0154150  11.1528150  36.8346610  40.8166880  11.4740200  37.2482010
  39.5005970  10.7923730  37.5566520  44.1198180  11.1412390  19.4686600
  44.9126790  11.4301220  19.0168390  43.6002530  10.7104560  18.7899080
  48.8518780   7.2608020  36.7822020  48.2456940   7.2839620  36.0417770
  48.5472890   6.5291060  37.3189270  50.2819150  10.9888310  35.3931430
  51.2340900  10.9046330  35.3431670  50.1347370  11.6530020  36.0665220
  53.1728350  10.3682520  20.8923340  52.8869860   9.9547660  20.0777520
  52.9747900  11.2970230  20.7723860  37.7351960   3.6401610  35.7782660
  38.2390980   3.0608890  36.3498890  36.9959380   3.9241840  36.3159030
  44.6375580   6.3615800  19.3328950  44.5326220   5.7468150  20.0590330
  44.4699800   5.8381690  18.5491960  44.7889900   5.0472600  35.3118180
  44.0235570   5.6157600  35.2272850  44.9705860   4.7548810  34.4186410
  47.8778310   5.4235830  19.9370940  47.3288410   5.8705130  20.5813680
  48.4997570   4.9185080  20.4608610  51.9313250   6.7777930  35.8693200
  52.6722720   7.1153690  35.3660660  51.1685930   6.9469990  35.3162970
  43.5453430   4.3826750  21.8336240  43.9669850   4.2166620  22.6767630
  43.6704270   3.5726980  21.3391380  46.0581070   3.4064360  19.0813340
  46.5786730   2.6913380  18.7154490  46.7049470   4.0450230  19.3813850
  50.6058910   4.8292760  34.4048410  51.0199930   4.9837840  35.2538830
  49.6709910   4.9547980  34.5674190  45.3674140   4.7813240  32.3744340
  45.7862250   5.6245970  32.2020580  44.4482770   4.9185280  32.1451120
  47.7038040   2.5129420  33.7582180  47.8234250   1.9170560  34.4977020
  48.5632040   2.5499110  33.3383480  50.0425940   3.0666610  32.3344690
  49.5161160   3.5909230  31.7309830  50.3857280   3.6994000  32.9654420
  43.2181560  11.0866250  33.4902070  42.6802650  11.8112310  33.1710770
  43.4715520  10.6096590  32.6999410  46.0743770  12.3217460  33.7488720
  46.0002470  13.2252600  34.0561090  45.1722610  12.0029360  33.7210790
  46.6229100  11.4875970  21.3715080  47.5179890  11.8260940  21.3933840
  46.6546730  10.7655380  20.7439360  40.2625260   6.8603020  19.6002080
  40.7000130   7.4032690  20.2559660  40.7472990   6.0349970  19.6098420
  37.4771060   9.6492050  27.0522340  37.8074070   8.7813110  26.8200980
  37.9062060   9.8550570  27.8827300  42.0732980   7.9801060  24.7124310
  41.7728520   7.8566030  25.6128220  41.9670470   7.1209650  24.3040040
  37.9661270  10.5162640  29.7903970  37.5292260  10.6963440  30.6228120
  38.5338950  11.2737260  29.6485690  53.6023450  10.0179640  34.0781280
  53.0025440  10.0772200  33.3345200  53.7317350   9.0784620  34.2078130
  54.8424900   7.7597460  19.4150990  54.0117860   7.8274110  19.8858220
  55.0196730   8.6501580  19.1117850  54.2981360   4.5044940  21.9185190
  55.0600270   5.0741590  22.0244880  54.3135730   3.9372140  22.6893500
  37.7985700   3.0282870  26.1492850  37.1434540   2.7594510  25.5052550
  38.6363650   2.9187350  25.6994830  55.3041330   5.3595040  26.7627120
  55.6750160   4.5762360  26.3563090  55.9443260   6.0484140  26.5844420
  52.2875090   6.7431620  32.1757440  51.4734930   7.1728780  32.4383230
  52.6949290   7.3550030  31.5626490  54.3500530   4.7979310  19.0757710
  54.6249370   5.7058190  18.9476930  54.1611270   4.7341840  20.0119700
  54.2465870   2.7348300  24.0687140  53.8709470   1.9676230  23.6368430
  53.5168990   3.1171000  24.5562070  38.8361630   3.4135440  30.6896190
  39.2034670   3.3262840  31.5692210  38.2672450   2.6501990  30.5903050
  52.3451140  11.4950220  25.7025710  52.9410210  11.1734790  25.0260130
  52.6029290  11.0222040  26.4938980  40.2513710   7.9268130  35.8516340
  40.2083340   7.5561040  36.7330800  40.3824720   8.8645700  35.9918160
  43.9519740   9.4827720  31.4526060  43.7111100   9.7502280  30.5656580
  44.8922380   9.6533450  31.5076920  55.2123900  11.5022100  32.2536700
  54.7182180  11.8990970  31.5363830  54.6037190  10.8771310  32.6473980
  40.0901740  10.8730380  32.9714120  39.4962060  10.7415080  33.7104160
  40.0825580  10.0368520  32.5056220  52.8963350  12.1445520  29.5323440
  52.4366320  12.8961330  29.1581460  52.2675810  11.4251990  29.4738240
  39.7213970   8.2388760  31.9222160  38.9948030   7.6194050  31.8548110
  39.7823120   8.6329370  31.0520240  43.3259070  10.4533760  28.7071570
  43.8424090   9.8421120  28.1819830  43.9756450  10.9562540  29.1982580
  46.0654570  11.3442250  29.5340550  46.3532380  11.0896550  28.6573560
  46.5777790  10.7919610  30.1246120  38.0043970  11.5563150  25.1318920
  37.8366010  10.9233830  25.8300810  37.1378480  11.7622550  24.7813110
  39.6106670  10.2496380  22.5769060  39.0854290  10.6304410  21.8731020
  39.5351250  10.8747150  23.2978770  46.1326930  12.2658350  36.9008750
  47.0594240  12.0302620  36.9444710  46.1177360  13.0930350  36.4194780
  54.3671990  11.8083920  23.8983000  54.5424180  11.1221660  23.2543920
  53.6693560  12.3330970  23.5059670  42.2099640  12.1978760  21.4518310
  42.9418460  11.9138040  20.9042200  42.4693310  11.9592040  22.3417690
  41.3714430   8.3143490  21.4564640  40.7423310   8.7828590  22.0050470
  41.4862260   7.4692710  21.8910830  52.7004490  11.4928210  36.7249790
  53.4929810  10.9977440  36.5175750  52.9937640  12.1718350  37.3325400
  46.9582190   4.1428170   9.4875110  46.1824290   3.6628610   9.7773680
  47.6095120   3.4633820   9.3131270  40.9748020   4.4547980  10.3650870
  40.1432900   4.1996690  10.7647380  41.5829000   4.5258750  11.1008790
  50.9789620   8.5488360   8.2674240  50.5171150   7.7775600   8.5961410
  51.7915170   8.5754430   8.7726690  40.9549280   8.4888070  10.5608890
  41.2577320   7.5985810  10.3819110  41.6992870   9.0458290  10.3331140
  47.2052930  10.8346370   7.8878230  46.5864370  11.2903870   7.3172670
  48.0604710  10.9897830   7.4867930  46.3991180   6.8185360   9.4945270
  46.3299460   5.8775300   9.3334400  47.1611040   6.9086770  10.0667840
  48.0716280   5.7185610   5.2810140  47.4533550   6.1835060   4.7172860
  48.5839530   6.4113090   5.6979650  42.9348040   5.2461480  11.9593740
  42.6017420   5.8730400  12.6014810  43.1114720   5.7723360  11.1795410
  42.1467140   7.2142280  13.7742920  42.7641140   7.8893360  13.4927370
  41.2860260   7.6230260  13.6830420  37.4399480   6.4042140   2.6549770
  37.0627460   6.8929240   1.9234670  37.6972550   7.0767420   3.2856300
  53.0644730   8.6781690  11.6897560  52.3808250   9.3480800  11.6814230
  53.6039020   8.8762340  10.9242420  50.6003470  10.5225820  10.4042740
  50.6130630  10.1188110   9.5365000  50.0478690  11.2973110  10.3004170
  51.8948890   7.2442040   5.4932910  51.7845220   6.3016370   5.6182330
  51.8917140   7.6057680   6.3795670  49.9988910   5.4255660  11.7325350
  50.4157700   5.2115770  10.8978810  50.7228730   5.6828450  12.3033970
  47.4369170   2.8707360   4.8495400  46.5098450   2.8044740   5.0783870
  47.5893990   3.8087490   4.7350640  53.9451010   3.8242880  11.8241590
  53.1169640   3.8935970  11.3491720  54.5401490   4.4097190  11.3557420
  51.4666460   4.4327660   5.3530650  50.8478880   4.0947210   4.7056950
  51.4490910   3.7887420   6.0609840  43.0425810   3.3972100   7.6315130
  42.6382810   2.6849350   7.1361030  43.1288930   3.0525340   8.5203170
  43.5107510   7.0839660   9.7954340  43.2135800   6.4785130   9.1162120
  44.4607330   7.1216970   9.6843700  51.5993120  10.6571530  13.4577440
  51.1223680  11.4643720  13.2650050  50.9154910  10.0049860  13.6103650
  42.6025940   6.8221350  16.4462140  41.7054470   7.0461320  16.6935540
  42.6278810   6.9456290  15.4973540  49.6431160   3.6714470   2.3603400
  50.0824440   2.8336900   2.2141220  50.3559580   4.3043870   2.4467540
  41.4297160   3.6934670  15.0219510  41.2904930   4.5657470  15.3906910
  40.5478520   3.3507480  14.8767450  47.7526540   8.6110540   6.3284640
  48.1922450   9.3534870   5.9140030  47.6913430   8.8537110   7.2523600
  43.2277510   9.6356370  17.2304660  43.1992940  10.0399320  16.3633090
  43.0642480   8.7066730  17.0676260  55.1792330  10.4183470  18.5268830
  55.6552050  10.8966360  19.2057910  55.7999490  10.3500960  17.8014330
  37.3815810   5.4632220  10.9390420  37.4596230   5.5980990   9.9946140
  37.9957490   4.7548110  11.1318540  38.6263440   7.1632410   7.3496600
  38.2191520   7.3047000   6.4950200  39.5176450   6.8792570   7.1467810
  54.5825580   7.6096320  15.6868840  54.7088640   7.3708200  14.7686020
  54.6246960   6.7780860  16.1590920  48.4442320  11.3124320  14.2563650
  48.9586990  11.2232330  15.0586080  47.6011400  11.6584020  14.5491560
  50.4196720  11.5979660   3.6847650  50.2597860  11.3082600   4.5829480
  50.2543430  10.8219790   3.1492880  42.8985100  11.3778190   5.4619270
  42.7227580  10.4613730   5.2487070  42.0440840  11.7365480   5.7017070
  49.6872780  10.7329930   6.3194140  50.1429730   9.9519310   6.6332760
  50.0265300  11.4436750   6.8635320  37.4375330   6.5046390  13.4784880
  37.6006370   6.0351750  12.6604250  37.9027780   5.9969950  14.1433720
  39.0114310   5.8797820  15.6380690  38.6269100   5.2391490  16.2363650
  39.3226500   6.5833940  16.2075420  45.1611450   2.7274360  11.1189310
  45.5281580   2.2532930  11.8650650  44.9716510   3.6015930  11.4597650
  42.9510820   1.7683000  13.4373520  42.6467890   2.6474980  13.6623880
  43.9057280   1.8282790  13.4730960  41.4792610   5.9743990   4.0340370
  40.7054870   5.4341610   3.8739090  42.2087240   5.4550600   3.6958130
  52.2380590   4.9709350   9.8266760  52.9579710   5.4664640   9.4362870
  52.0362410   4.2927240   9.1820630  47.6199390   5.0418410  15.7135760
  47.5536700   4.1214080  15.4593350  46.9904530   5.1393850  16.4280400
  41.5230010   5.6424370   7.6719180  42.0408680   4.8392630   7.6176070
  41.0714030   5.5803510   8.5136010  46.4099510   6.9090650   2.9446480
  46.7515210   7.6532880   2.4489800  45.5812220   7.2221770   3.3071310
  39.0074550   2.6085740  14.5844880  38.6489490   3.2739590  15.1718220
  38.7129110   1.7769290  14.9557500  42.2087670   3.0669980  17.4684430
  41.9087810   3.2127160  16.5712250  42.9798910   2.5075270  17.3757820
  47.5516120   7.8638980  15.4639560  47.5660660   6.9319940  15.2458470
  46.8441220   7.9498740  16.1029330  53.7627330   4.5046320  14.8108140
  53.0375520   5.0975100  14.6137530  54.2902790   4.4969860  14.0121510
  53.7140440   8.9021060   4.4620300  53.0716600   8.2476680   4.7364020
  53.3271100   9.3076150   3.6860970  49.2926920   6.2306490   8.3091990
  49.6450740   5.6334620   7.6493360  48.4089250   5.9050720   8.4800240
  45.3790200   6.9904180   5.7162400  46.0661330   7.5373390   6.0969990
  44.5922620   7.5344910   5.7512010  44.6817410   3.9950210   5.3287760
  45.1380190   4.8055460   5.5547950  44.3305620   3.6773350   6.1606250
  46.9850020   9.5056550  12.5580060  47.6292240   9.7115930  13.2353480
  47.3479460   8.7444950  12.1050910  48.2582100   7.5088900  11.2757510
  48.9004330   6.8082060  11.3889680  48.7831450   8.2887340  11.0954400
  50.0319720   8.3083800  14.4793570  50.3675960   8.8950490  15.1571490
  49.1120060   8.1776510  14.7091360  51.6854070   5.7109460   2.6610810
  51.3975770   6.1722150   3.4488690  52.4806240   5.2507230   2.9295030
  37.8695710  10.0859240  16.2483510  37.9786830   9.1453980  16.1078900
  37.2176270  10.3513990  15.5997240  45.8608300   8.3575130  17.6481630
  45.5405170   7.6384370  18.1927320  45.1866660   9.0330200  17.7217690
  43.9022470   9.2035580   2.5914780  43.8932570   9.9365270   1.9759290
  42.9820830   8.9567160   2.6841740  39.5029110   4.4250470   3.3361540
  38.8957060   5.1649370   3.3456840  39.9778460   4.5149830   2.5099740
  45.5300180  11.7850140   5.9487640  45.7841680  11.7471530   5.0267010
  44.5812660  11.6583470   5.9415890  51.5352760   2.7042020   7.5246150
  50.5942900   2.7192250   7.6993840  51.8496830   1.9177980   7.9706450
  53.5378340   9.8750870   9.2000410  53.6625760  10.6982040   9.6724220
  54.4043900   9.6641600   8.8524560  41.0095870  11.9682080   8.8717540
  41.7458350  11.4197540   9.1426110  41.3936790  12.8338090   8.7323530
  37.8941350   8.0355650   4.7459050  36.9681130   8.2776790   4.7364460
  38.3597780   8.8629910   4.6243800  40.0154150  11.1528150  18.0603120
  40.8166880  11.4740200  18.4738520  39.5005970  10.7923730  18.7823030
  48.8518780   7.2608020  18.0078530  48.2456940   7.2839620  17.2674280
  48.5472890   6.5291060  18.5445780  50.2819150  10.9888310  16.6187940
  51.2340900  10.9046330  16.5688180  50.1347370  11.6530020  17.2921730
  37.7351960   3.6401610  17.0039170  38.2390980   3.0608890  17.5755400
  36.9959380   3.9241840  17.5415540  44.7889900   5.0472600  16.5374690
  44.0235570   5.6157600  16.4529360  44.9705860   4.7548810  15.6442920
  51.9313250   6.7777930  17.0949710  52.6722720   7.1153690  16.5917170
  51.1685930   6.9469990  16.5419480  43.5453430   4.3826750   3.0592750
  43.9669850   4.2166620   3.9024140  43.6704270   3.5726980   2.5647890
  50.6058910   4.8292760  15.6304920  51.0199930   4.9837840  16.4795340
  49.6709910   4.9547980  15.7930700  45.3674140   4.7813240  13.6000850
  45.7862250   5.6245970  13.4277090  44.4482770   4.9185280  13.3707630
  47.7038040   2.5129420  14.9838690  47.8234250   1.9170560  15.7233530
  48.5632040   2.5499110  14.5639990  50.0425940   3.0666610  13.5601200
  49.5161160   3.5909230  12.9566340  50.3857280   3.6994000  14.1910930
  43.2181560  11.0866250  14.7158580  42.6802650  11.8112310  14.3967280
  43.4715520  10.6096590  13.9255920  46.0743770  12.3217460  14.9745230
  46.0002470  13.2252600  15.2817600  45.1722610  12.0029360  14.9467300
  46.6229100  11.4875970   2.5971590  47.5179890  11.8260940   2.6190350
  46.6546730  10.7655380   1.9695870  37.4771060   9.6492050   8.2778850
  37.8074070   8.7813110   8.0457490  37.9062060   9.8550570   9.1083810
  42.0732980   7.9801060   5.9380820  41.7728520   7.8566030   6.8384730
  41.9670470   7.1209650   5.5296550  37.9661270  10.5162640  11.0160480
  37.5292260  10.6963440  11.8484630  38.5338950  11.2737260  10.8742200
  53.6023450  10.0179640  15.3037790  53.0025440  10.0772200  14.5601710
  53.7317350   9.0784620  15.4334640  54.2981360   4.5044940   3.1441700
  55.0600270   5.0741590   3.2501390  54.3135730   3.9372140   3.9150010
  37.7985700   3.0282870   7.3749360  37.1434540   2.7594510   6.7309060
  38.6363650   2.9187350   6.9251340  55.3041330   5.3595040   7.9883630
  55.6750160   4.5762360   7.5819600  55.9443260   6.0484140   7.8100930
  52.2875090   6.7431620  13.4013950  51.4734930   7.1728780  13.6639740
  52.6949290   7.3550030  12.7883000  54.2465870   2.7348300   5.2943650
  53.8709470   1.9676230   4.8624940  53.5168990   3.1171000   5.7818580
  38.8361630   3.4135440  11.9152700  39.2034670   3.3262840  12.7948720
  38.2672450   2.6501990  11.8159560  52.3451140  11.4950220   6.9282220
  52.9410210  11.1734790   6.2516640  52.6029290  11.0222040   7.7195490
  40.2513710   7.9268130  17.0772850  40.2083340   7.5561040  17.9587310
  40.3824720   8.8645700  17.2174670  43.9519740   9.4827720  12.6782570
  43.7111100   9.7502280  11.7913090  44.8922380   9.6533450  12.7333430
  55.2123900  11.5022100  13.4793210  54.7182180  11.8990970  12.7620340
  54.6037190  10.8771310  13.8730490  40.0901740  10.8730380  14.1970630
  39.4962060  10.7415080  14.9360670  40.0825580  10.0368520  13.7312730
  52.8963350  12.1445520  10.7579950  52.4366320  12.8961330  10.3837970
  52.2675810  11.4251990  10.6994750  39.7213970   8.2388760  13.1478670
  38.9948030   7.6194050  13.0804620  39.7823120   8.6329370  12.2776750
  43.3259070  10.4533760   9.9328080  43.8424090   9.8421120   9.4076340
  43.9756450  10.9562540  10.4239090  46.0654570  11.3442250  10.7597060
  46.3532380  11.0896550   9.8830070  46.5777790  10.7919610  11.3502630
  38.0043970  11.5563150   6.3575430  37.8366010  10.9233830   7.0557320
  37.1378480  11.7622550   6.0069620  39.6106670  10.2496380   3.8025570
  39.0854290  10.6304410   3.0987530  39.5351250  10.8747150   4.5235280
  46.1326930  12.2658350  18.1265260  47.0594240  12.0302620  18.1701220
  46.1177360  13.0930350  17.6451290  54.3671990  11.8083920   5.1239510
  54.5424180  11.1221660   4.4800430  53.6693560  12.3330970   4.7316180
  42.2099640  12.1978760   2.6774820  42.9418460  11.9138040   2.1298710
  42.4693310  11.9592040   3.5674200  41.3714430   8.3143490   2.6821150
  40.7423310   8.7828590   3.2306980  41.4862260   7.4692710   3.1167340
  52.7004490  11.4928210  17.9506300  53.4929810  10.9977440  17.7432260
  52.9937640  12.1718350  18.5581910  30.0520660  96.2366600  45.1552820
  29.9714710  95.3221210  44.8844530  29.6385080  96.7333670  44.4492530
  28.1838700  98.0145620  47.0362090  27.4080800  97.5346060  47.3260660
  28.8351630  97.3351270  46.8618250  22.2004530  98.3265430  47.9137850
  21.3689410  98.0714140  48.3134360  22.8085510  98.3976200  48.6495770
  20.6096480  93.2867320  41.6980240  19.7213180  93.6283290  41.5960120
  20.8937670  93.0867640  40.8061070  18.5729490  95.8872970  47.5819940
  19.1445600  95.1195170  47.5823580  18.5731030  96.1861730  46.6726550
  19.8154360  91.2957330  49.3688870  19.6357200  90.3983080  49.6491630
  19.4134440  91.8429200  50.0435820  28.6552860  93.4973190  47.2701180
  29.0317680  92.6245070  47.1574850  28.5572370  93.8331890  46.3791620
  22.7857870  91.8698820  42.7318620  22.8924620  92.7702550  43.0387380
  21.8750230  91.8216790  42.4413270  32.4376980  90.9923630  44.2029520
  33.2586600  90.5020200  44.2455000  32.4711060  91.5821290  44.9561360
  20.4341030  93.7917830  47.9771210  21.1151140  94.0556200  48.5958610
  20.1189080  92.9518700  48.3109220  24.6265600  94.8385190  47.0643800
  25.1343820  95.3366160  47.7048820  25.1578840  94.0620390  46.8883160
  36.7276530  93.0090380  50.7673150  36.0228700  93.3972090  50.2488260
  36.9934450  93.7040670  51.3694080  22.9101700  89.4783750  51.3307220
  22.9120140  89.9956140  50.5253120  22.0806010  89.0013930  51.3077150
  32.6738460  92.9324010  46.9757060  31.9694030  93.2208900  47.5560170
  33.0350620  93.7424120  46.6156620  22.5917030  91.1893710  49.3377670
  22.9333840  92.0335760  49.0431540  21.6532840  91.3377450  49.4543010
  35.7425380  92.3778800  47.3666270  34.7950290  92.4117780  47.4981700
  36.0675370  93.1917750  47.7515630  26.2744920  88.6775980  45.6622260
  26.5819900  88.1222870  44.9457760  25.3445620  88.8120440  45.4795250
  28.6625680  96.7424810  42.3982380  27.7354960  96.6762190  42.6270850
  28.8150500  97.6804940  42.2837620  28.6494760  93.0141810  39.3949540
  27.7098430  93.1755770  39.4802000  28.9678020  93.7327490  38.8485530
  35.1707520  97.6960330  49.3728570  34.3426150  97.7653420  48.8978700
  35.7658000  98.2814640  48.9044400  32.6922970  98.3045110  42.9017630
  32.0735390  97.9664660  42.2543930  32.6747420  97.6604870  43.6096820
  32.1349530  94.4829650  50.3183440  31.7220710  95.3083360  50.5723430
  31.4025480  93.8974690  50.1259800  24.2682320  97.2689550  45.1802110
  23.8639320  96.5566800  44.6848010  24.3545440  96.9242790  46.0690150
  22.9810940  94.0432760  48.9601150  23.5325530  94.1528100  48.1854400
  23.4954450  94.4170360  49.6756380  30.8687670  97.5431920  39.9090380
  31.3080950  96.7054350  39.7628200  31.5816090  98.1761320  39.9954520
  22.6553670  97.5652120  52.5706490  22.5161440  98.4374920  52.9393890
  21.7735030  97.2224930  52.4254430  34.4504810  88.7974730  38.2231420
  34.1377470  88.8901560  39.1230490  35.2117280  89.3755760  38.1728850
  20.9686950  96.1634530  42.6808760  20.8484550  96.8896620  42.0690030
  20.6587840  95.3937440  42.2036670  35.6606100  93.5346230  54.2005560
  35.0450370  94.0425900  53.6721020  35.3402520  92.6344560  54.1431500
  23.4350610  89.5069600  46.0632430  22.9918760  90.2879140  45.7316950
  23.9935600  89.8299490  46.7703370  27.7220420  92.3738120  51.6667750
  27.2599790  92.5821140  52.4787690  27.3198530  91.5597470  51.3638420
  32.7224930  93.5947070  52.7964410  31.8718520  93.2952820  53.1173480
  32.5626720  93.8389080  51.8848230  26.5509430  89.1280300  40.9438260
  25.9263610  89.1240170  41.6691570  26.4639550  88.2611260  40.5474230
  25.4726510  90.0516930  47.9222030  25.7698840  90.9579760  47.8414050
  26.0212070  89.5635710  47.3081600  23.2264830  94.6303170  43.7913680
  23.0005750  94.4140340  44.6960300  22.4457360  95.0631630  43.4459650
  30.4562590  94.6366540  42.3904330  29.8571480  95.3602340  42.2067950
  31.0042200  94.5743320  41.6080780  29.0627460  93.2730080  44.4207610
  29.4557030  93.5902280  43.6076300  29.4244310  92.3941960  44.5352130
  20.7974580  91.9402420  52.6107730  20.4037970  92.7877630  52.8180510
  20.1092980  91.3028790  52.8016370  18.0991630  89.8630880  46.6437810
  17.8104680  90.4333740  47.3562790  18.8437390  89.3835330  47.0069040
  18.2861860  93.8051000  37.8540530  18.2036530  94.7481760  37.9955520
  17.9344920  93.6625910  36.9752880  29.6482600  95.8635830  48.5158390
  28.9163720  96.3722640  48.8648490  29.2506940  95.0465810  48.2147170
  26.0859990  92.5390030  46.9210880  26.0896050  92.0979980  46.0715420
  26.9811110  92.8607360  47.0282700  21.9362370  92.4216520  45.8805090
  21.5962420  92.8991750  46.6372140  21.1739690  91.9681640  45.5206190
  26.1480140  93.5402110  39.9117640  26.2692960  93.4988590  40.8603460
  25.7628650  94.4026260  39.7564370  30.1108510  91.3169510  47.9281330
  30.1281250  91.7678160  48.7723180  29.8624090  90.4175150  48.1414770
  25.1601640  95.8503250  39.3100940  24.5918540  95.4021500  38.6836850
  25.8690640  96.2096030  38.7766090  26.3867960  96.5991810  48.6676290
  26.7538090  96.1250380  49.4137630  26.1973020  97.4733380  49.0084630
  19.2508450  91.3435500  44.7969760  18.9655370  90.9791170  45.6348380
  19.1887310  90.6115960  44.1832900  24.1767330  95.6400450  50.9860500
  23.8724400  96.5192430  51.2110860  25.1313790  95.7000240  51.0217940
  28.9247040  90.2364760  41.5183130  28.1111650  89.7377930  41.4428440
  28.7308990  91.0763010  41.1019480  31.6395430  94.6084410  39.8145290
  32.5275050  94.9201640  39.6396630  31.6100520  93.7356660  39.4225870
  20.2331060  96.4803190  52.1331860  19.8746000  97.1457040  52.7205200
  19.9385620  95.6486740  52.5044480  33.9109700  95.9196250  39.2825150
  33.8273420  96.3510470  38.4321590  34.6303890  96.3794600  39.7151970
  18.7439110  96.4794450  38.7566460  19.6133960  96.7619250  39.0402380
  18.2529430  97.2930320  38.6415270  21.8085700  88.2105310  43.3497260
  21.6800330  88.2023210  44.2982180  20.9847720  88.5488400  42.9988270
  18.8079630  89.9696430  52.8103960  18.0938150  90.1693350  53.4156570
  19.2274670  89.1936000  53.1818760  30.3018410  92.4618740  50.5605410
  30.6699230  91.6413950  50.8884980  29.4416610  92.5220630  50.9761060
  33.6680440  91.4175680  41.3692970  33.0393600  91.5221350  40.6551200
  33.1732360  91.6372460  42.1586850  25.6364470  93.6961630  42.7850850
  24.9280620  94.1647970  43.2264460  25.9208950  93.0383640  43.4196040
  27.2620400  95.1158330  50.7843380  27.7605650  95.5904150  51.4495230
  27.4043350  94.1921850  50.9913410  29.6679900  90.4212290  44.2246640
  29.5447680  90.4398420  43.2756150  30.6164460  90.4691230  44.3445040
  23.8399490  92.0046710  40.1601560  24.6890020  92.4416860  40.0941750
  23.4730760  92.3166970  40.9873620  34.4687260  91.3326290  51.6271770
  33.9660860  92.0731690  51.9665580  35.2843920  91.7210290  51.3108560
  32.7609270  96.5759470  45.0733130  31.8199410  96.5909700  45.2480820
  33.0753340  95.7895430  45.5193430  22.7390910  98.2579070  38.6337090
  23.5054180  98.1460430  39.1962520  22.8165600  97.5617040  37.9813860
  21.4337670  95.6904140  39.3169980  21.5141260  94.7431650  39.4287380
  22.3257420  96.0211020  39.4230640  24.7709940  98.2544200  40.6079730
  25.1926360  98.0884070  41.4511120  24.8960780  97.4444430  40.1134870
  22.9337360  94.2340750  53.4150710  22.4033820  93.7431700  52.7874050
  23.6025430  94.6624950  52.8808640  27.2837580  97.2781810  37.8556830
  27.8043240  96.5630830  37.4897980  27.9305980  97.9167680  38.1557340
  23.4209660  91.2003120  53.4948000  23.3266530  90.5823870  52.7698870
  22.8407050  91.9269410  53.2677910  26.1871100  89.7576360  50.5275390
  25.7388400  89.7800620  49.6820940  25.5536300  89.3595380  51.1245690
  28.9294550  96.3846870  52.5325670  29.0490760  95.7888010  53.2720510
  29.7888550  96.4216560  52.1126970  31.2682450  96.9384060  51.1088180
  30.7417670  97.4626680  50.5053320  31.6113790  97.5711450  51.7397910
  23.6668840  94.3277430  37.5537890  23.4657900  93.4644790  37.9151230
  23.4960890  94.2410790  36.6159490  31.1457150  89.1385660  40.0824770
  31.4259440  88.2953560  40.4384190  30.3722880  89.3708770  40.5963520
  22.4651640  91.4278050  37.5415770  22.7677540  91.4345480  36.6334920
  23.2046230  91.0775910  38.0383430  25.6836570  90.3712670  38.5271970
  25.3358570  89.6936660  37.9474420  25.8849340  89.9102180  39.3415360
  19.0242210  96.9000320  44.9236340  18.3691050  96.6311960  44.2796040
  19.8620160  96.7904800  44.4738320  31.9732650  91.6941610  39.1454830
  32.3917530  91.5072590  38.3051490  31.6668710  90.8420660  39.4557760
  35.4722380  96.6065750  42.8430630  35.0965980  95.8393680  42.4111920
  34.7425500  96.9888450  43.3305560  20.0618140  97.2852890  49.4639680
  20.4291180  97.1980290  50.3435700  19.4928960  96.5219440  49.3646540
  34.8622000  95.7537270  52.4770150  34.6308090  95.5250020  51.5768100
  35.1226550  96.6736820  52.4315040  19.6134140  94.1961980  53.3698100
  18.7190190  94.1628740  53.7091810  20.1531690  94.3948770  54.1349350
  18.2380290  94.1099250  40.8661670  17.3344370  94.3729450  40.6913330
  18.7220910  94.3810420  40.0861630  34.7473340  94.8323240  46.1437870
  35.2710820  94.3385890  45.5128040  35.3332760  94.9673600  46.8885440
  34.9263060  94.9163110  49.6657420  33.9765770  94.8826650  49.7802410
  35.1076070  95.8263220  49.4307190  20.7807500  93.1664790  38.7756050
  21.4899200  92.7448010  38.2903330  20.0647440  93.2340020  38.1439400
  20.4281660  89.2204120  37.8158700  21.1509790  89.7613060  38.1339920
  20.7006180  88.9467540  36.9400240  34.2373310  94.0896590  42.0830280
  34.7332430  93.8567460  42.8679160  34.0389380  93.2508430  41.6667920
  20.1173850  88.4710310  47.7181320  20.7650040  87.9207690  47.2776480
  20.5375690  88.7253460  48.5397130  35.6660470  92.7257540  44.6167960
  35.5559750  92.5713580  45.5550230  36.4268060  92.1978480  44.3743370
  34.0126190  88.6651670  51.0750960  34.6498410  89.2785810  51.4410150
  34.1601080  88.7012330  50.1300190  36.5550740  90.5565460  37.8574100
  37.4800050  90.4246640  37.6492390  36.5326530  90.6358280  38.8110550
  36.6289230  91.3276120  40.4830810  35.8340730  91.2621240  41.0123720
  36.8332510  92.2626760  40.4716160  19.8705850  88.6265980  50.4606640
  19.5220670  89.0829800  51.2264820  19.5393550  87.7323110  50.5429070
  30.7613270  88.0380060  49.9487640  29.8873110  88.3715170  49.7460570
  30.6524020  87.5653240  50.7739510  31.6685250  90.2450930  51.3329360
  31.3398610  89.4302690  50.9531090  32.6167550  90.2020740  51.2095050
  28.5088090  88.9549900  48.8880550  27.7259880  89.4295400  49.1677310
  28.2151020  88.0504730  48.7793730  33.0609160  89.6573000  46.9329640
  33.5017250  89.6018100  46.0851240  32.7916750  90.5731010  47.0039820
  34.9247730  89.2888240  44.9438460  34.8636130  88.3449460  44.7969480
  35.7039760  89.3968330  45.4891920  19.8528500  89.2597380  41.4094270
  20.6107860  89.3726260  40.8358300  19.3905670  90.0966580  41.3637700
  26.3942310  91.3736650  44.3996580  25.5816820  90.9993540  44.0592460
  26.8983950  90.6181730  44.7017770  30.8967290  88.0379100  45.6379650
  31.4996660  88.6099310  46.1128170  30.1560280  88.6018540  45.4153550
  34.0401890  88.4400660  40.9119930  34.2352520  89.3384110  41.1787360
  33.2531760  88.2087740  41.4052880  22.2253650  89.7861430  39.9496240
  22.7546410  88.9991230  39.8204190  22.8581970  90.4652620  40.1831770
  24.4191490  89.5236570  43.0041630  23.7894230  88.8223880  43.1711760
  23.8796630  90.2840700  42.7874790  30.0520660  96.2366600  26.3809330
  29.9714710  95.3221210  26.1101040  29.6385080  96.7333670  25.6749040
  28.1838700  98.0145620  28.2618600  27.4080800  97.5346060  28.5517170
  28.8351630  97.3351270  28.0874760  22.2004530  98.3265430  29.1394360
  21.3689410  98.0714140  29.5390870  22.8085510  98.3976200  29.8752280
  20.6096480  93.2867320  22.9236750  19.7213180  93.6283290  22.8216630
  20.8937670  93.0867640  22.0317580  18.5729490  95.8872970  28.8076450
  19.1445600  95.1195170  28.8080090  18.5731030  96.1861730  27.8983060
  19.8154360  91.2957330  30.5945380  19.6357200  90.3983080  30.8748140
  19.4134440  91.8429200  31.2692330  28.6552860  93.4973190  28.4957690
  29.0317680  92.6245070  28.3831360  28.5572370  93.8331890  27.6048130
  22.7857870  91.8698820  23.9575130  22.8924620  92.7702550  24.2643890
  21.8750230  91.8216790  23.6669780  32.4376980  90.9923630  25.4286030
  33.2586600  90.5020200  25.4711510  32.4711060  91.5821290  26.1817870
  20.4341030  93.7917830  29.2027720  21.1151140  94.0556200  29.8215120
  20.1189080  92.9518700  29.5365730  24.6265600  94.8385190  28.2900310
  25.1343820  95.3366160  28.9305330  25.1578840  94.0620390  28.1139670
  36.7276530  93.0090380  31.9929660  36.0228700  93.3972090  31.4744770
  36.9934450  93.7040670  32.5950590  22.9101700  89.4783750  32.5563730
  22.9120140  89.9956140  31.7509630  22.0806010  89.0013930  32.5333660
  32.6738460  92.9324010  28.2013570  31.9694030  93.2208900  28.7816680
  33.0350620  93.7424120  27.8413130  22.5917030  91.1893710  30.5634180
  22.9333840  92.0335760  30.2688050  21.6532840  91.3377450  30.6799520
  35.7425380  92.3778800  28.5922780  34.7950290  92.4117780  28.7238210
  36.0675370  93.1917750  28.9772140  26.2744920  88.6775980  26.8878770
  26.5819900  88.1222870  26.1714270  25.3445620  88.8120440  26.7051760
  28.6625680  96.7424810  23.6238890  27.7354960  96.6762190  23.8527360
  28.8150500  97.6804940  23.5094130  28.6494760  93.0141810  20.6206050
  27.7098430  93.1755770  20.7058510  28.9678020  93.7327490  20.0742040
  35.1707520  97.6960330  30.5985080  34.3426150  97.7653420  30.1235210
  35.7658000  98.2814640  30.1300910  32.6922970  98.3045110  24.1274140
  32.0735390  97.9664660  23.4800440  32.6747420  97.6604870  24.8353330
  32.1349530  94.4829650  31.5439950  31.7220710  95.3083360  31.7979940
  31.4025480  93.8974690  31.3516310  24.2682320  97.2689550  26.4058620
  23.8639320  96.5566800  25.9104520  24.3545440  96.9242790  27.2946660
  22.9810940  94.0432760  30.1857660  23.5325530  94.1528100  29.4110910
  23.4954450  94.4170360  30.9012890  30.8687670  97.5431920  21.1346890
  31.3080950  96.7054350  20.9884710  31.5816090  98.1761320  21.2211030
  22.6553670  97.5652120  33.7963000  22.5161440  98.4374920  34.1650400
  21.7735030  97.2224930  33.6510940  34.4504810  88.7974730  19.4487930
  34.1377470  88.8901560  20.3487000  35.2117280  89.3755760  19.3985360
  20.9686950  96.1634530  23.9065270  20.8484550  96.8896620  23.2946540
  20.6587840  95.3937440  23.4293180  35.6606100  93.5346230  35.4262070
  35.0450370  94.0425900  34.8977530  35.3402520  92.6344560  35.3688010
  23.4350610  89.5069600  27.2888940  22.9918760  90.2879140  26.9573460
  23.9935600  89.8299490  27.9959880  27.7220420  92.3738120  32.8924260
  27.2599790  92.5821140  33.7044200  27.3198530  91.5597470  32.5894930
  32.7224930  93.5947070  34.0220920  31.8718520  93.2952820  34.3429990
  32.5626720  93.8389080  33.1104740  29.8174640  95.0948820  36.1219710
  30.1428050  94.2612570  35.7821940  30.6054970  95.6177340  36.2698040
  26.5509430  89.1280300  22.1694770  25.9263610  89.1240170  22.8948080
  26.4639550  88.2611260  21.7730740  25.4726510  90.0516930  29.1478540
  25.7698840  90.9579760  29.0670560  26.0212070  89.5635710  28.5338110
  23.2264830  94.6303170  25.0170190  23.0005750  94.4140340  25.9216810
  22.4457360  95.0631630  24.6716160  30.4562590  94.6366540  23.6160840
  29.8571480  95.3602340  23.4324460  31.0042200  94.5743320  22.8337290
  25.6664040  95.5288750  35.6830460  25.5707640  94.5883480  35.5330860
  26.5096020  95.7503820  35.2878530  29.0627460  93.2730080  25.6464120
  29.4557030  93.5902280  24.8332810  29.4244310  92.3941960  25.7608640
  20.7974580  91.9402420  33.8364240  20.4037970  92.7877630  34.0437020
  20.1092980  91.3028790  34.0272880  27.3719630  92.0237390  36.9060980
  26.6817950  91.8309590  37.5407070  28.1151930  92.3072030  37.4385280
  18.0991630  89.8630880  27.8694320  17.8104680  90.4333740  28.5819300
  18.8437390  89.3835330  28.2325550  18.2861860  93.8051000  19.0797040
  18.2036530  94.7481760  19.2212030  17.9344920  93.6625910  18.2009390
  29.6482600  95.8635830  29.7414900  28.9163720  96.3722640  30.0905000
  29.2506940  95.0465810  29.4403680  26.0859990  92.5390030  28.1467390
  26.0896050  92.0979980  27.2971930  26.9811110  92.8607360  28.2539210
  21.9362370  92.4216520  27.1061600  21.5962420  92.8991750  27.8628650
  21.1739690  91.9681640  26.7462700  26.1480140  93.5402110  21.1374150
  26.2692960  93.4988590  22.0859970  25.7628650  94.4026260  20.9820880
  30.1108510  91.3169510  29.1537840  30.1281250  91.7678160  29.9979690
  29.8624090  90.4175150  29.3671280  25.1601640  95.8503250  20.5357450
  24.5918540  95.4021500  19.9093360  25.8690640  96.2096030  20.0022600
  33.5379260  88.7301690  34.9924220  33.8625030  87.9991350  35.5182200
  33.5735770  88.4115330  34.0905210  26.3867960  96.5991810  29.8932800
  26.7538090  96.1250380  30.6394140  26.1973020  97.4733380  30.2341140
  19.2508450  91.3435500  26.0226270  18.9655370  90.9791170  26.8604890
  19.1887310  90.6115960  25.4089410  24.1767330  95.6400450  32.2117010
  23.8724400  96.5192430  32.4367370  25.1313790  95.7000240  32.2474450
  28.9247040  90.2364760  22.7439640  28.1111650  89.7377930  22.6684950
  28.7308990  91.0763010  22.3275990  31.6395430  94.6084410  21.0401800
  32.5275050  94.9201640  20.8653140  31.6100520  93.7356660  20.6482380
  20.2331060  96.4803190  33.3588370  19.8746000  97.1457040  33.9461710
  19.9385620  95.6486740  33.7300990  23.4344180  96.9387430  36.2427920
  23.1344320  97.0844610  35.3455740  24.2055420  96.3792720  36.1501310
  33.9109700  95.9196250  20.5081660  33.8273420  96.3510470  19.6578100
  34.6303890  96.3794600  20.9408480  18.7439110  96.4794450  19.9822970
  19.6133960  96.7619250  20.2658890  18.2529430  97.2930320  19.8671780
  21.8085700  88.2105310  24.5753770  21.6800330  88.2023210  25.5238690
  20.9847720  88.5488400  24.2244780  18.8079630  89.9696430  34.0360470
  18.0938150  90.1693350  34.6413080  19.2274670  89.1936000  34.4075270
  30.3018410  92.4618740  31.7861920  30.6699230  91.6413950  32.1141490
  29.4416610  92.5220630  32.2017570  33.6680440  91.4175680  22.5949480
  33.0393600  91.5221350  21.8807710  33.1732360  91.6372460  23.3843360
  25.6364470  93.6961630  24.0107360  24.9280620  94.1647970  24.4520970
  25.9208950  93.0383640  24.6452550  27.2620400  95.1158330  32.0099890
  27.7605650  95.5904150  32.6751740  27.4043350  94.1921850  32.2169920
  29.6679900  90.4212290  25.4503150  29.5447680  90.4398420  24.5012660
  30.6164460  90.4691230  25.5701550  23.8399490  92.0046710  21.3858070
  24.6890020  92.4416860  21.3198260  23.4730760  92.3166970  22.2130130
  34.4687260  91.3326290  32.8528280  33.9660860  92.0731690  33.1922090
  35.2843920  91.7210290  32.5365070  32.7609270  96.5759470  26.2989640
  31.8199410  96.5909700  26.4737330  33.0753340  95.7895430  26.7449940
  22.7390910  98.2579070  19.8593600  23.5054180  98.1460430  20.4219030
  22.8165600  97.5617040  19.2070370  21.4337670  95.6904140  20.5426490
  21.5141260  94.7431650  20.6543890  22.3257420  96.0211020  20.6487150
  18.9608470  97.5119060  35.7782660  19.4647490  96.9326340  36.3498890
  18.2215890  97.7959290  36.3159030  20.9931550  95.6548650  36.6732730
  21.0336890  95.3562520  37.5817960  21.8477050  96.0556260  36.5140250
  24.7709940  98.2544200  21.8336240  25.1926360  98.0884070  22.6767630
  24.8960780  97.4444430  21.3391380  22.9337360  94.2340750  34.6407220
  22.4033820  93.7431700  34.0130560  23.6025430  94.6624950  34.1065150
  27.2837580  97.2781810  19.0813340  27.8043240  96.5630830  18.7154490
  27.9305980  97.9167680  19.3813850  32.3037590  96.0406370  36.4087560
  32.8858360  95.2858690  36.3208040  32.4799360  96.5713810  35.6319040
  23.4209660  91.2003120  34.7204510  23.3266530  90.5823870  33.9955380
  22.8407050  91.9269410  34.4934420  26.1871100  89.7576360  31.7531900
  25.7388400  89.7800620  30.9077450  25.5536300  89.3595380  32.3502200
  28.9294550  96.3846870  33.7582180  29.0490760  95.7888010  34.4977020
  29.7888550  96.4216560  33.3383480  31.2682450  96.9384060  32.3344690
  30.7417670  97.4626680  31.7309830  31.6113790  97.5711450  32.9654420
  23.6668840  94.3277430  18.7794400  23.4657900  93.4644790  19.1407740
  23.4960890  94.2410790  17.8416000  25.6963320  92.9268220  35.0158000
  26.2863010  92.6184070  35.7035820  24.8783560  92.4547970  35.1717900
  30.5156750  92.5434030  35.2491020  29.8272270  91.8815570  35.1841010
  31.2362770  92.0972300  35.6939480  31.1457150  89.1385660  21.3081280
  31.4259440  88.2953560  21.6640700  30.3722880  89.3708770  21.8220030
  22.4651640  91.4278050  18.7672280  22.7677540  91.4345480  17.8591430
  23.2046230  91.0775910  19.2639940  25.6836570  90.3712670  19.7528480
  25.3358570  89.6936660  19.1730930  25.8849340  89.9102180  20.5671870
  19.0242210  96.9000320  26.1492850  18.3691050  96.6311960  25.5052550
  19.8620160  96.7904800  25.6994830  31.9732650  91.6941610  20.3711340
  32.3917530  91.5072590  19.5308000  31.6668710  90.8420660  20.6814270
  35.4722380  96.6065750  24.0687140  35.0965980  95.8393680  23.6368430
  34.7425500  96.9888450  24.5562070  20.0618140  97.2852890  30.6896190
  20.4291180  97.1980290  31.5692210  19.4928960  96.5219440  30.5903050
  34.8622000  95.7537270  33.7026660  34.6308090  95.5250020  32.8024610
  35.1226550  96.6736820  33.6571550  19.6134140  94.1961980  34.5954610
  18.7190190  94.1628740  34.9348320  20.1531690  94.3948770  35.3605860
  33.3010070  90.9793700  36.4806360  34.1780250  90.9877100  36.8640360
  33.3130910  90.2424540  35.8698710  18.2380290  94.1099250  22.0918180
  17.3344370  94.3729450  21.9169840  18.7220910  94.3810420  21.3118140
  34.7473340  94.8323240  27.3694380  35.2710820  94.3385890  26.7384550
  35.3332760  94.9673600  28.1141950  34.9263060  94.9163110  30.8913930
  33.9765770  94.8826650  31.0058920  35.1076070  95.8263220  30.6563700
  20.7807500  93.1664790  20.0012560  21.4899200  92.7448010  19.5159840
  20.0647440  93.2340020  19.3695910  20.4281660  89.2204120  19.0415210
  21.1509790  89.7613060  19.3596430  20.7006180  88.9467540  18.1656750
  34.2373310  94.0896590  23.3086790  34.7332430  93.8567460  24.0935670
  34.0389380  93.2508430  22.8924430  20.1173850  88.4710310  28.9437830
  20.7650040  87.9207690  28.5032990  20.5375690  88.7253460  29.7653640
  35.6660470  92.7257540  25.8424470  35.5559750  92.5713580  26.7806740
  36.4268060  92.1978480  25.5999880  34.0126190  88.6651670  32.3007470
  34.6498410  89.2785810  32.6666660  34.1601080  88.7012330  31.3556700
  36.5550740  90.5565460  19.0830610  37.4800050  90.4246640  18.8748900
  36.5326530  90.6358280  20.0367060  36.6289230  91.3276120  21.7087320
  35.8340730  91.2621240  22.2380230  36.8332510  92.2626760  21.6972670
  19.8705850  88.6265980  31.6863150  19.5220670  89.0829800  32.4521330
  19.5393550  87.7323110  31.7685580  27.3830670  89.8177860  35.2082570
  27.3219560  90.4099690  35.9577980  28.3231050  89.7103820  35.0632830
  30.0205230  89.4747920  34.8474860  30.6345640  89.7927210  34.1855940
  30.5654790  88.9896510  35.4670720  20.5426490  88.1542180  34.9613920
  21.0909480  87.9730230  34.1980030  20.6081800  87.3636290  35.4970230
  30.7613270  88.0380060  31.1744150  29.8873110  88.3715170  30.9717080
  30.6524020  87.5653240  31.9996020  31.6685250  90.2450930  32.5585870
  31.3398610  89.4302690  32.1787600  32.6167550  90.2020740  32.4351560
  28.5088090  88.9549900  30.1137060  27.7259880  89.4295400  30.3933820
  28.2151020  88.0504730  30.0050240  33.0609160  89.6573000  28.1586150
  33.5017250  89.6018100  27.3107750  32.7916750  90.5731010  28.2296330
  34.9247730  89.2888240  26.1694970  34.8636130  88.3449460  26.0225990
  35.7039760  89.3968330  26.7148430  19.8528500  89.2597380  22.6350780
  20.6107860  89.3726260  22.0614810  19.3905670  90.0966580  22.5894210
  26.3942310  91.3736650  25.6253090  25.5816820  90.9993540  25.2848970
  26.8983950  90.6181730  25.9274280  30.8967290  88.0379100  26.8636160
  31.4996660  88.6099310  27.3384680  30.1560280  88.6018540  26.6410060
  34.0401890  88.4400660  22.1376440  34.2352520  89.3384110  22.4043870
  33.2531760  88.2087740  22.6309390  22.2253650  89.7861430  21.1752750
  22.7546410  88.9991230  21.0460700  22.8581970  90.4652620  21.4088280
  24.4191490  89.5236570  24.2298140  23.7894230  88.8223880  24.3968270
  23.8796630  90.2840700  24.0131300  24.5447050  88.8020550  36.6650630
  24.2631320  89.3054150  35.9011450  24.9266750  88.0042300  36.2992760
  31.1462510  88.2174130  37.2431100  31.0327960  88.5368740  38.1382620
  31.9632250  88.6186640  36.9468380  30.0520660  96.2366600   7.6065840
  29.9714710  95.3221210   7.3357550  29.6385080  96.7333670   6.9005550
  28.1838700  98.0145620   9.4875110  27.4080800  97.5346060   9.7773680
  28.8351630  97.3351270   9.3131270  22.2004530  98.3265430  10.3650870
  21.3689410  98.0714140  10.7647380  22.8085510  98.3976200  11.1008790
  20.6096480  93.2867320   4.1493260  19.7213180  93.6283290   4.0473140
  20.8937670  93.0867640   3.2574090  18.5729490  95.8872970  10.0332960
  19.1445600  95.1195170  10.0336600  18.5731030  96.1861730   9.1239570
  19.8154360  91.2957330  11.8201890  19.6357200  90.3983080  12.1004650
  19.4134440  91.8429200  12.4948840  28.6552860  93.4973190   9.7214200
  29.0317680  92.6245070   9.6087870  28.5572370  93.8331890   8.8304640
  22.7857870  91.8698820   5.1831640  22.8924620  92.7702550   5.4900400
  21.8750230  91.8216790   4.8926290  32.4376980  90.9923630   6.6542540
  33.2586600  90.5020200   6.6968020  32.4711060  91.5821290   7.4074380
  20.4341030  93.7917830  10.4284230  21.1151140  94.0556200  11.0471630
  20.1189080  92.9518700  10.7622240  24.6265600  94.8385190   9.5156820
  25.1343820  95.3366160  10.1561840  25.1578840  94.0620390   9.3396180
  36.7276530  93.0090380  13.2186170  36.0228700  93.3972090  12.7001280
  36.9934450  93.7040670  13.8207100  22.9101700  89.4783750  13.7820240
  22.9120140  89.9956140  12.9766140  22.0806010  89.0013930  13.7590170
  32.6738460  92.9324010   9.4270080  31.9694030  93.2208900  10.0073190
  33.0350620  93.7424120   9.0669640  22.5917030  91.1893710  11.7890690
  22.9333840  92.0335760  11.4944560  21.6532840  91.3377450  11.9056030
  35.7425380  92.3778800   9.8179290  34.7950290  92.4117780   9.9494720
  36.0675370  93.1917750  10.2028650  26.2744920  88.6775980   8.1135280
  26.5819900  88.1222870   7.3970780  25.3445620  88.8120440   7.9308270
  28.6625680  96.7424810   4.8495400  27.7354960  96.6762190   5.0783870
  28.8150500  97.6804940   4.7350640  35.1707520  97.6960330  11.8241590
  34.3426150  97.7653420  11.3491720  35.7658000  98.2814640  11.3557420
  32.6922970  98.3045110   5.3530650  32.0735390  97.9664660   4.7056950
  32.6747420  97.6604870   6.0609840  32.1349530  94.4829650  12.7696460
  31.7220710  95.3083360  13.0236450  31.4025480  93.8974690  12.5772820
  24.2682320  97.2689550   7.6315130  23.8639320  96.5566800   7.1361030
  24.3545440  96.9242790   8.5203170  22.9810940  94.0432760  11.4114170
  23.5325530  94.1528100  10.6367420  23.4954450  94.4170360  12.1269400
  30.8687670  97.5431920   2.3603400  31.3080950  96.7054350   2.2141220
  31.5816090  98.1761320   2.4467540  22.6553670  97.5652120  15.0219510
  22.5161440  98.4374920  15.3906910  21.7735030  97.2224930  14.8767450
  20.9686950  96.1634530   5.1321780  20.8484550  96.8896620   4.5203050
  20.6587840  95.3937440   4.6549690  35.6606100  93.5346230  16.6518580
  35.0450370  94.0425900  16.1234040  35.3402520  92.6344560  16.5944520
  23.4350610  89.5069600   8.5145450  22.9918760  90.2879140   8.1829970
  23.9935600  89.8299490   9.2216390  27.7220420  92.3738120  14.1180770
  27.2599790  92.5821140  14.9300710  27.3198530  91.5597470  13.8151440
  32.7224930  93.5947070  15.2477430  31.8718520  93.2952820  15.5686500
  32.5626720  93.8389080  14.3361250  29.8174640  95.0948820  17.3476220
  30.1428050  94.2612570  17.0078450  30.6054970  95.6177340  17.4954550
  26.5509430  89.1280300   3.3951280  25.9263610  89.1240170   4.1204590
  26.4639550  88.2611260   2.9987250  25.4726510  90.0516930  10.3735050
  25.7698840  90.9579760  10.2927070  26.0212070  89.5635710   9.7594620
  23.2264830  94.6303170   6.2426700  23.0005750  94.4140340   7.1473320
  22.4457360  95.0631630   5.8972670  30.4562590  94.6366540   4.8417350
  29.8571480  95.3602340   4.6580970  31.0042200  94.5743320   4.0593800
  25.6664040  95.5288750  16.9086970  25.5707640  94.5883480  16.7587370
  26.5096020  95.7503820  16.5135040  29.0627460  93.2730080   6.8720630
  29.4557030  93.5902280   6.0589320  29.4244310  92.3941960   6.9865150
  20.7974580  91.9402420  15.0620750  20.4037970  92.7877630  15.2693530
  20.1092980  91.3028790  15.2529390  27.3719630  92.0237390  18.1317490
  26.6817950  91.8309590  18.7663580  28.1151930  92.3072030  18.6641790
  18.0991630  89.8630880   9.0950830  17.8104680  90.4333740   9.8075810
  18.8437390  89.3835330   9.4582060  29.6482600  95.8635830  10.9671410
  28.9163720  96.3722640  11.3161510  29.2506940  95.0465810  10.6660190
  26.0859990  92.5390030   9.3723900  26.0896050  92.0979980   8.5228440
  26.9811110  92.8607360   9.4795720  21.9362370  92.4216520   8.3318110
  21.5962420  92.8991750   9.0885160  21.1739690  91.9681640   7.9719210
  26.1480140  93.5402110   2.3630660  26.2692960  93.4988590   3.3116480
  25.7628650  94.4026260   2.2077390  30.1108510  91.3169510  10.3794350
  30.1281250  91.7678160  11.2236200  29.8624090  90.4175150  10.5927790
  33.5379260  88.7301690  16.2180730  33.8625030  87.9991350  16.7438710
  33.5735770  88.4115330  15.3161720  26.3867960  96.5991810  11.1189310
  26.7538090  96.1250380  11.8650650  26.1973020  97.4733380  11.4597650
  19.2508450  91.3435500   7.2482780  18.9655370  90.9791170   8.0861400
  19.1887310  90.6115960   6.6345920  24.1767330  95.6400450  13.4373520
  23.8724400  96.5192430  13.6623880  25.1313790  95.7000240  13.4730960
  28.9247040  90.2364760   3.9696150  28.1111650  89.7377930   3.8941460
  28.7308990  91.0763010   3.5532500  31.6395430  94.6084410   2.2658310
  32.5275050  94.9201640   2.0909650  31.6100520  93.7356660   1.8738890
  20.2331060  96.4803190  14.5844880  19.8746000  97.1457040  15.1718220
  19.9385620  95.6486740  14.9557500  23.4344180  96.9387430  17.4684430
  23.1344320  97.0844610  16.5712250  24.2055420  96.3792720  17.3757820
  21.8085700  88.2105310   5.8010280  21.6800330  88.2023210   6.7495200
  20.9847720  88.5488400   5.4501290  18.8079630  89.9696430  15.2616980
  18.0938150  90.1693350  15.8669590  19.2274670  89.1936000  15.6331780
  30.3018410  92.4618740  13.0118430  30.6699230  91.6413950  13.3398000
  29.4416610  92.5220630  13.4274080  33.6680440  91.4175680   3.8205990
  33.0393600  91.5221350   3.1064220  33.1732360  91.6372460   4.6099870
  25.6364470  93.6961630   5.2363870  24.9280620  94.1647970   5.6777480
  25.9208950  93.0383640   5.8709060  27.2620400  95.1158330  13.2356400
  27.7605650  95.5904150  13.9008250  27.4043350  94.1921850  13.4426430
  29.6679900  90.4212290   6.6759660  29.5447680  90.4398420   5.7269170
  30.6164460  90.4691230   6.7958060  23.8399490  92.0046710   2.6114580
  24.6890020  92.4416860   2.5454770  23.4730760  92.3166970   3.4386640
  34.4687260  91.3326290  14.0784790  33.9660860  92.0731690  14.4178600
  35.2843920  91.7210290  13.7621580  32.7609270  96.5759470   7.5246150
  31.8199410  96.5909700   7.6993840  33.0753340  95.7895430   7.9706450
  21.4337670  95.6904140   1.7683000  21.5141260  94.7431650   1.8800400
  22.3257420  96.0211020   1.8743660  18.9608470  97.5119060  17.0039170
  19.4647490  96.9326340  17.5755400  18.2215890  97.7959290  17.5415540
  20.9931550  95.6548650  17.8989240  21.0336890  95.3562520  18.8074470
  21.8477050  96.0556260  17.7396760  24.7709940  98.2544200   3.0592750
  25.1926360  98.0884070   3.9024140  24.8960780  97.4444430   2.5647890
  22.9337360  94.2340750  15.8663730  22.4033820  93.7431700  15.2387070
  23.6025430  94.6624950  15.3321660  32.3037590  96.0406370  17.6344070
  32.8858360  95.2858690  17.5464550  32.4799360  96.5713810  16.8575550
  23.4209660  91.2003120  15.9461020  23.3266530  90.5823870  15.2211890
  22.8407050  91.9269410  15.7190930  26.1871100  89.7576360  12.9788410
  25.7388400  89.7800620  12.1333960  25.5536300  89.3595380  13.5758710
  28.9294550  96.3846870  14.9838690  29.0490760  95.7888010  15.7233530
  29.7888550  96.4216560  14.5639990  31.2682450  96.9384060  13.5601200
  30.7417670  97.4626680  12.9566340  31.6113790  97.5711450  14.1910930
  25.6963320  92.9268220  16.2414510  26.2863010  92.6184070  16.9292330
  24.8783560  92.4547970  16.3974410  30.5156750  92.5434030  16.4747530
  29.8272270  91.8815570  16.4097520  31.2362770  92.0972300  16.9195990
  31.1457150  89.1385660   2.5337790  31.4259440  88.2953560   2.8897210
  30.3722880  89.3708770   3.0476540  19.0242210  96.9000320   7.3749360
  18.3691050  96.6311960   6.7309060  19.8620160  96.7904800   6.9251340
  35.4722380  96.6065750   5.2943650  35.0965980  95.8393680   4.8624940
  34.7425500  96.9888450   5.7818580  20.0618140  97.2852890  11.9152700
  20.4291180  97.1980290  12.7948720  19.4928960  96.5219440  11.8159560
  34.8622000  95.7537270  14.9283170  34.6308090  95.5250020  14.0281120
  35.1226550  96.6736820  14.8828060  19.6134140  94.1961980  15.8211120
  18.7190190  94.1628740  16.1604830  20.1531690  94.3948770  16.5862370
  33.3010070  90.9793700  17.7062870  34.1780250  90.9877100  18.0896870
  33.3130910  90.2424540  17.0955220  18.2380290  94.1099250   3.3174690
  17.3344370  94.3729450   3.1426350  18.7220910  94.3810420   2.5374650
  34.7473340  94.8323240   8.5950890  35.2710820  94.3385890   7.9641060
  35.3332760  94.9673600   9.3398460  34.9263060  94.9163110  12.1170440
  33.9765770  94.8826650  12.2315430  35.1076070  95.8263220  11.8820210
  34.2373310  94.0896590   4.5343300  34.7332430  93.8567460   5.3192180
  34.0389380  93.2508430   4.1180940  20.1173850  88.4710310  10.1694340
  20.7650040  87.9207690   9.7289500  20.5375690  88.7253460  10.9910150
  35.6660470  92.7257540   7.0680980  35.5559750  92.5713580   8.0063250
  36.4268060  92.1978480   6.8256390  34.0126190  88.6651670  13.5263980
  34.6498410  89.2785810  13.8923170  34.1601080  88.7012330  12.5813210
  36.6289230  91.3276120   2.9343830  35.8340730  91.2621240   3.4636740
  36.8332510  92.2626760   2.9229180  19.8705850  88.6265980  12.9119660
  19.5220670  89.0829800  13.6777840  19.5393550  87.7323110  12.9942090
  27.3830670  89.8177860  16.4339080  27.3219560  90.4099690  17.1834490
  28.3231050  89.7103820  16.2889340  30.0205230  89.4747920  16.0731370
  30.6345640  89.7927210  15.4112450  30.5654790  88.9896510  16.6927230
  20.5426490  88.1542180  16.1870430  21.0909480  87.9730230  15.4236540
  20.6081800  87.3636290  16.7226740  30.7613270  88.0380060  12.4000660
  29.8873110  88.3715170  12.1973590  30.6524020  87.5653240  13.2252530
  31.6685250  90.2450930  13.7842380  31.3398610  89.4302690  13.4044110
  32.6167550  90.2020740  13.6608070  28.5088090  88.9549900  11.3393570
  27.7259880  89.4295400  11.6190330  28.2151020  88.0504730  11.2306750
  33.0609160  89.6573000   9.3842660  33.5017250  89.6018100   8.5364260
  32.7916750  90.5731010   9.4552840  34.9247730  89.2888240   7.3951480
  34.8636130  88.3449460   7.2482500  35.7039760  89.3968330   7.9404940
  19.8528500  89.2597380   3.8607290  20.6107860  89.3726260   3.2871320
  19.3905670  90.0966580   3.8150720  26.3942310  91.3736650   6.8509600
  25.5816820  90.9993540   6.5105480  26.8983950  90.6181730   7.1530790
  30.8967290  88.0379100   8.0892670  31.4996660  88.6099310   8.5641190
  30.1560280  88.6018540   7.8666570  34.0401890  88.4400660   3.3632950
  34.2352520  89.3384110   3.6300380  33.2531760  88.2087740   3.8565900
  22.2253650  89.7861430   2.4009260  22.7546410  88.9991230   2.2717210
  22.8581970  90.4652620   2.6344790  24.4191490  89.5236570   5.4554650
  23.7894230  88.8223880   5.6224780  23.8796630  90.2840700   5.2387810
  24.5447050  88.8020550  17.8907140  24.2631320  89.3054150  17.1267960
  24.9266750  88.0042300  17.5249270  31.1462510  88.2174130  18.4687610
  31.0327960  88.5368740  19.3639130  31.9632250  88.6186640  18.1724890
  30.0520660  77.4623110  45.1552820  29.9714710  76.5477720  44.8844530
  29.6385080  77.9590180  44.4492530  28.1838700  79.2402130  47.0362090
  27.4080800  78.7602570  47.3260660  28.8351630  78.5607780  46.8618250
  22.2004530  79.5521940  47.9137850  21.3689410  79.2970650  48.3134360
  22.8085510  79.6232710  48.6495770  32.2046130  83.6462320  45.8161220
  31.7427660  82.8749560  46.1448390  33.0171680  83.6728390  46.3213670
  22.1805790  83.5862030  48.1095870  22.4833830  82.6959770  47.9306090
  22.9249380  84.1432250  47.8818120  20.6096480  74.5123830  41.6980240
  19.7213180  74.8539800  41.5960120  20.8937670  74.3124150  40.8061070
  18.5729490  77.1129480  47.5819940  19.1445600  76.3451680  47.5823580
  18.5731030  77.4118240  46.6726550  28.4309440  85.9320330  45.4365210
  27.8120880  86.3877830  44.8659650  29.2861220  86.0871790  45.0354910
  27.6247690  81.9159320  47.0432250  27.5555970  80.9749260  46.8821380
  28.3867550  82.0060730  47.6154820  19.8154360  72.5213840  49.3688870
  19.6357200  71.6239590  49.6491630  19.4134440  73.0685710  50.0435820
  28.6552860  74.7229700  47.2701180  29.0317680  73.8501580  47.1574850
  28.5572370  75.0588400  46.3791620  22.7857870  73.0955330  42.7318620
  22.8924620  73.9959060  43.0387380  21.8750230  73.0473300  42.4413270
  32.4376980  72.2180140  44.2029520  33.2586600  71.7276710  44.2455000
  32.4711060  72.8077800  44.9561360  20.4341030  75.0174340  47.9771210
  21.1151140  75.2812710  48.5958610  20.1189080  74.1775210  48.3109220
  24.6265600  76.0641700  47.0643800  25.1343820  76.5622670  47.7048820
  25.1578840  75.2876900  46.8883160  36.7276530  74.2346890  50.7673150
  36.0228700  74.6228600  50.2488260  36.9934450  74.9297180  51.3694080
  22.9101700  70.7040260  51.3307220  22.9120140  71.2212650  50.5253120
  22.0806010  70.2270440  51.3077150  29.2972790  80.8159570  42.8297120
  28.6790060  81.2809020  42.2659840  29.8096040  81.5087050  43.2466630
  24.1604550  80.3435440  49.5080720  23.8273930  80.9704360  50.1501790
  24.3371230  80.8697320  48.7282390  32.6738460  74.1580520  46.9757060
  31.9694030  74.4465410  47.5560170  33.0350620  74.9680630  46.6156620
  22.5917030  72.4150220  49.3377670  22.9333840  73.2592270  49.0431540
  21.6532840  72.5633960  49.4543010  23.3723650  82.3116240  51.3229900
  23.9897650  82.9867320  51.0414350  22.5116770  82.7204220  51.2317400
  18.6655990  81.5016100  40.2036750  18.2883970  81.9903200  39.4721650
  18.9229060  82.1741380  40.8343280  34.2901240  83.7755650  49.2384540
  33.6064760  84.4454760  49.2301210  34.8295530  83.9736300  48.4729400
  35.7425380  73.6035310  47.3666270  34.7950290  73.6374290  47.4981700
  36.0675370  74.4174260  47.7515630  26.2744920  69.9032490  45.6622260
  26.5819900  69.3479380  44.9457760  25.3445620  70.0376950  45.4795250
  31.8259980  85.6199780  47.9529720  31.8387140  85.2162070  47.0851980
  31.2735200  86.3947070  47.8491150  33.1205400  82.3416000  43.0419890
  33.0101730  81.3990330  43.1669310  33.1173650  82.7031640  43.9282650
  31.2245420  80.5229620  49.2812330  31.6414210  80.3089730  48.4465790
  31.9485240  80.7802410  49.8520950  28.6625680  77.9681320  42.3982380
  27.7354960  77.9018700  42.6270850  28.8150500  78.9061450  42.2837620
  28.6494760  74.2398320  39.3949540  27.7098430  74.4012280  39.4802000
  28.9678020  74.9584000  38.8485530  35.1707520  78.9216840  49.3728570
  34.3426150  78.9909930  48.8978700  35.7658000  79.5071150  48.9044400
  32.6922970  79.5301620  42.9017630  32.0735390  79.1921170  42.2543930
  32.6747420  78.8861380  43.6096820  32.1349530  75.7086160  50.3183440
  31.7220710  76.5339870  50.5723430  31.4025480  75.1231200  50.1259800
  24.2682320  78.4946060  45.1802110  23.8639320  77.7823310  44.6848010
  24.3545440  78.1499300  46.0690150  24.7364020  82.1813620  47.3441320
  24.4392310  81.5759090  46.6649100  25.6863840  82.2190930  47.2330680
  22.9810940  75.2689270  48.9601150  23.5325530  75.3784610  48.1854400
  23.4954450  75.6426870  49.6756380  32.8249630  85.7545490  51.0064420
  32.3480190  86.5617680  50.8137030  32.1411420  85.1023820  51.1590630
  30.8687670  78.7688430  39.9090380  31.3080950  77.9310860  39.7628200
  31.5816090  79.4017830  39.9954520  22.6553670  78.7908630  52.5706490
  22.5161440  79.6631430  52.9393890  21.7735030  78.4481440  52.4254430
  28.9783050  83.7084500  43.8771620  29.4178960  84.4508830  43.4627010
  28.9169940  83.9511070  44.8010580  34.4504810  70.0231240  38.2231420
  34.1377470  70.1158070  39.1230490  35.2117280  70.6012270  38.1728850
  20.9686950  77.3891040  42.6808760  20.8484550  78.1153130  42.0690030
  20.6587840  76.6193950  42.2036670  18.6072320  80.5606180  48.4877400
  18.6852740  80.6954950  47.5433120  19.2214000  79.8522070  48.6805520
  19.8519950  82.2606370  44.8983580  19.4448030  82.4020960  44.0437180
  20.7432960  81.9766530  44.6954790  35.8082090  82.7070280  53.2355820
  35.9345150  82.4682160  52.3173000  35.8503470  81.8754820  53.7077900
  29.6698830  86.4098280  51.8050630  30.1843500  86.3206290  52.6073060
  28.8267910  86.7557980  52.0978540  31.6453230  86.6953620  41.2334630
  31.4854370  86.4056560  42.1316460  31.4799940  85.9193750  40.6979860
  24.1241610  86.4752150  43.0106250  23.9484090  85.5587690  42.7974050
  23.2697350  86.8339440  43.2504050  31.3479360  84.2041180  39.7932630
  30.6544520  84.2018470  39.1334910  32.0902220  83.7800500  39.3626800
  30.9129290  85.8303890  43.8681120  31.3686240  85.0493270  44.1819740
  31.2521810  86.5410710  44.4122300  35.6606100  74.7602740  54.2005560
  35.0450370  75.2682410  53.6721020  35.3402520  73.8601070  54.1431500
  18.6631840  81.6020350  51.0271860  18.8262880  81.1325710  50.2091230
  19.1284290  81.0943910  51.6920700  23.4350610  70.7326110  46.0632430
  22.9918760  71.5135650  45.7316950  23.9935600  71.0556000  46.7703370
  27.7220420  73.5994630  51.6667750  27.2599790  73.8077650  52.4787690
  27.3198530  72.7853980  51.3638420  32.7224930  74.8203580  52.7964410
  31.8718520  74.5209330  53.1173480  32.5626720  75.0645590  51.8848230
  26.5509430  70.3536810  40.9438260  25.9263610  70.3496680  41.6691570
  26.4639550  69.4867770  40.5474230  25.4726510  71.2773440  47.9222030
  25.7698840  72.1836270  47.8414050  26.0212070  70.7892220  47.3081600
  23.2264830  75.8559680  43.7913680  23.0005750  75.6396850  44.6960300
  22.4457360  76.2888140  43.4459650  30.4562590  75.8623050  42.3904330
  29.8571480  76.5858850  42.2067950  31.0042200  75.7999830  41.6080780
  29.0627460  74.4986590  44.4207610  29.4557030  74.8158790  43.6076300
  29.4244310  73.6198470  44.5352130  20.7974580  73.1658930  52.6107730
  20.4037970  74.0134140  52.8180510  20.1092980  72.5285300  52.8016370
  18.0991630  71.0887390  46.6437810  17.8104680  71.6590250  47.3562790
  18.8437390  70.6091840  47.0069040  18.2861860  75.0307510  37.8540530
  18.2036530  75.9738270  37.9955520  17.9344920  74.8882420  36.9752880
  29.6482600  77.0892340  48.5158390  28.9163720  77.5979150  48.8648490
  29.2506940  76.2722320  48.2147170  26.0859990  73.7646540  46.9210880
  26.0896050  73.3236490  46.0715420  26.9811110  74.0863870  47.0282700
  21.9362370  73.6473030  45.8805090  21.5962420  74.1248260  46.6372140
  21.1739690  73.1938150  45.5206190  26.1480140  74.7658620  39.9117640
  26.2692960  74.7245100  40.8603460  25.7628650  75.6282770  39.7564370
  30.1108510  72.5426020  47.9281330  30.1281250  72.9934670  48.7723180
  29.8624090  71.6431660  48.1414770  25.1601640  77.0759760  39.3100940
  24.5918540  76.6278010  38.6836850  25.8690640  77.4352540  38.7766090
  20.2370820  80.9771780  53.1867670  19.8525610  80.3365450  53.7850630
  20.5483010  81.6807900  53.7562400  26.3867960  77.8248320  48.6676290
  26.7538090  77.3506890  49.4137630  26.1973020  78.6989890  49.0084630
  19.2508450  72.5692010  44.7969760  18.9655370  72.2047680  45.6348380
  19.1887310  71.8372470  44.1832900  24.1767330  76.8656960  50.9860500
  23.8724400  77.7448940  51.2110860  25.1313790  76.9256750  51.0217940
  22.7049120  81.0717950  41.5827350  21.9311380  80.5315570  41.4226070
  23.4343750  80.5524560  41.2445110  33.4637100  80.0683310  47.3753740
  34.1836220  80.5638600  46.9849850  33.2618920  79.3901200  46.7307610
  28.9247040  71.4621270  41.5183130  28.1111650  70.9634440  41.4428440
  28.7308990  72.3019520  41.1019480  28.8455900  80.1392370  53.2622740
  28.7793210  79.2188040  53.0080330  28.2161040  80.2367810  53.9767380
  31.6395430  75.8340920  39.8145290  32.5275050  76.1458150  39.6396630
  31.6100520  74.9613170  39.4225870  22.7486520  80.7398330  45.2206160
  23.2665190  79.9366590  45.1663050  22.2970540  80.6777470  46.0622990
  27.6356020  82.0064610  40.4933460  27.9771720  82.7506840  39.9976780
  26.8068730  82.3195730  40.8558290  20.2331060  77.7059700  52.1331860
  19.8746000  78.3713550  52.7205200  19.9385620  76.8743250  52.5044480
  28.7772630  82.9612940  53.0126540  28.7917170  82.0293900  52.7945450
  28.0697730  83.0472700  53.6516310  33.9109700  77.1452760  39.2825150
  33.8273420  77.5766980  38.4321590  34.6303890  77.6051110  39.7151970
  34.9883840  79.6020280  52.3595120  34.2632030  80.1949060  52.1624510
  35.5159300  79.5943820  51.5608490  34.9396950  83.9995020  42.0107280
  34.2973110  83.3450640  42.2851000  34.5527610  84.4050110  41.2347950
  30.5183430  81.3280450  45.8578970  30.8707250  80.7308580  45.1980340
  29.6345760  81.0024680  46.0287220  26.6046710  82.0878140  43.2649380
  27.2917840  82.6347350  43.6456970  25.8179130  82.6318870  43.2998990
  18.7439110  77.7050960  38.7566460  19.6133960  77.9875760  39.0402380
  18.2529430  78.5186830  38.6415270  25.9073920  79.0924170  42.8774740
  26.3636700  79.9029420  43.1034930  25.5562130  78.7747310  43.7093230
  28.2106530  84.6030510  50.1067040  28.8548750  84.8089890  50.7840460
  28.5735970  83.8418910  49.6537890  21.8085700  69.4361820  43.3497260
  21.6800330  69.4279720  44.2982180  20.9847720  69.7744910  42.9988270
  29.4838610  82.6062860  48.8244490  30.1260840  81.9056020  48.9376660
  30.0087960  83.3861300  48.6441380  33.3294330  82.8911480  38.5483630
  33.1031910  82.1741920  39.1408270  32.9390530  82.6423920  37.7105380
  31.2576230  83.4057760  52.0280550  31.5932470  83.9924450  52.7058470
  30.3376570  83.2750470  52.2578340  19.1110360  86.9178340  39.3228090
  19.4708000  87.5167680  38.6685360  18.9702700  87.4638230  40.0963120
  18.8079630  71.1952940  52.8103960  18.0938150  71.3949860  53.4156570
  19.2274670  70.4192510  53.1818760  32.9110580  80.8083420  40.2097790
  32.6232280  81.2696110  40.9975670  33.7062750  80.3481190  40.4782010
  19.0952220  85.1833200  53.7970490  19.2043340  84.2427940  53.6565880
  18.4432780  85.4487950  53.1484220  25.1278980  84.3009540  40.1401760
  25.1189080  85.0339230  39.5246270  24.2077340  84.0541120  40.2328720
  20.7285620  79.5224430  40.8848520  20.1213570  80.2623330  40.8943820
  21.2034970  79.6123790  40.0586720  30.3018410  73.6875250  50.5605410
  30.6699230  72.8670460  50.8884980  29.4416610  73.7477140  50.9761060
  33.6680440  72.6432190  41.3692970  33.0393600  72.7477860  40.6551200
  33.1732360  72.8628970  42.1586850  28.1138580  84.3637780  38.8026950
  28.2150560  84.1601770  37.8728930  27.2140320  84.1096060  39.0074730
  25.6364470  74.9218140  42.7850850  24.9280620  75.3904480  43.2264460
  25.9208950  74.2640150  43.4196040  27.2620400  76.3414840  50.7843380
  27.7605650  76.8160660  51.4495230  27.4043350  75.4178360  50.9913410
  29.6679900  71.6468800  44.2246640  29.5447680  71.6654930  43.2756150
  30.6164460  71.6947740  44.3445040  26.7556690  86.8824100  43.4974620
  27.0098190  86.8445490  42.5753990  25.8069170  86.7557430  43.4902870
  23.8399490  73.2303220  40.1601560  24.6890020  73.6673370  40.0941750
  23.4730760  73.5423480  40.9873620  34.4687260  72.5582800  51.6271770
  33.9660860  73.2988200  51.9665580  35.2843920  72.9466800  51.3108560
  32.7609270  77.8015980  45.0733130  31.8199410  77.8166210  45.2480820
  33.0753340  77.0151940  45.5193430  22.7390910  79.4835580  38.6337090
  23.5054180  79.3716940  39.1962520  22.8165600  78.7873550  37.9813860
  21.4337670  76.9160650  39.3169980  21.5141260  75.9688160  39.4287380
  22.3257420  77.2467530  39.4230640  34.7634850  84.9724830  46.7487390
  34.8882270  85.7956000  47.2211200  35.6300410  84.7615560  46.4011540
  22.2352380  87.0656040  46.4204520  22.9714860  86.5171500  46.6913090
  22.6193300  87.9312050  46.2810510  19.1197860  83.1329610  42.2946030
  18.1937640  83.3750750  42.2851440  19.5854290  83.9603870  42.1730780
  25.3454690  86.2386350  38.2430090  26.1383300  86.5275180  37.7911880
  24.8259040  85.8078520  37.5642570  34.3984860  85.4656480  39.6666830
  34.1126370  85.0521620  38.8521010  34.2004410  86.3944190  39.5467350
  25.8632090  81.4589760  38.1072440  25.7582730  80.8442110  38.8333820
  25.6956310  80.9355650  37.3235450  26.0146410  80.1446560  54.0861670
  25.2492080  80.7131560  54.0016340  26.1962370  79.8522770  53.1929900
  29.1034820  80.5209790  38.7114430  28.5544920  80.9679090  39.3557170
  29.7254080  80.0159040  39.2352100  24.7709940  79.4800710  40.6079730
  25.1926360  79.3140580  41.4511120  24.8960780  78.6700940  40.1134870
  22.9337360  75.4597260  53.4150710  22.4033820  74.9688210  52.7874050
  23.6025430  75.8881460  52.8808640  27.2837580  78.5038320  37.8556830
  27.8043240  77.7887340  37.4897980  27.9305980  79.1424190  38.1557340
  31.8315420  79.9266720  53.1791900  32.2456440  80.0811800  54.0282320
  30.8966420  80.0521940  53.3417680  23.4209660  72.4259630  53.4948000
  23.3266530  71.8080380  52.7698870  22.8407050  73.1525920  53.2677910
  26.1871100  70.9832870  50.5275390  25.7388400  71.0057130  49.6820940
  25.5536300  70.5851890  51.1245690  26.5930650  79.8787200  51.1487830
  27.0118760  80.7219930  50.9764070  25.6739280  80.0159240  50.9194610
  28.9294550  77.6103380  52.5325670  29.0490760  77.0144520  53.2720510
  29.7888550  77.6473070  52.1126970  31.2682450  78.1640570  51.1088180
  30.7417670  78.6883190  50.5053320  31.6113790  78.7967960  51.7397910
  23.6668840  75.5533940  37.5537890  23.4657900  74.6901300  37.9151230
  23.4960890  75.4667300  36.6159490  24.4438070  86.1840210  52.2645560
  23.9059160  86.9086270  51.9454260  24.6972030  85.7070550  51.4742900
  31.1457150  70.3642170  40.0824770  31.4259440  69.5210070  40.4384190
  30.3722880  70.5965280  40.5963520  22.4651640  72.6534560  37.5415770
  22.7677540  72.6601990  36.6334920  23.2046230  72.3032420  38.0383430
  27.3000280  87.4191420  52.5232210  27.2258980  88.3226560  52.8304580
  26.3979120  87.1003320  52.4954280  25.6836570  71.5969180  38.5271970
  25.3358570  70.9193170  37.9474420  25.8849340  71.1358690  39.3415360
  27.8485610  86.5849930  40.1458570  28.7436400  86.9234900  40.1677330
  27.8803240  85.8629340  39.5182850  21.4881770  81.9576980  38.3745570
  21.9256640  82.5006650  39.0303150  21.9729500  81.1323930  38.3841910
  18.7027570  84.7466010  45.8265830  19.0330580  83.8787070  45.5944470
  19.1318570  84.9524530  46.6570790  23.2989490  83.0775020  43.4867800
  22.9985030  82.9539990  44.3871710  23.1926980  82.2183610  43.0783530
  19.1917780  85.6136600  48.5647460  18.7548770  85.7937400  49.3971610
  19.7595460  86.3711220  48.4229180  34.8279960  85.1153600  52.8524770
  34.2281950  85.1746160  52.1088690  34.9573860  84.1758580  52.9821620
  36.0681410  82.8571420  38.1894480  35.2374370  82.9248070  38.6601710
  36.2453240  83.7475540  37.8861340  35.5237870  79.6018900  40.6928680
  36.2856780  80.1715550  40.7988370  35.5392240  79.0346100  41.4636990
  19.0242210  78.1256830  44.9236340  18.3691050  77.8568470  44.2796040
  19.8620160  78.0161310  44.4738320  36.5297840  80.4569000  45.5370610
  36.9006670  79.6736320  45.1306580  37.1699770  81.1458100  45.3587910
  33.5131600  81.8405580  50.9500930  32.6991440  82.2702740  51.2126720
  33.9205800  82.4523990  50.3369980  35.5757040  79.8953270  37.8501200
  35.8505880  80.8032150  37.7220420  35.3867780  79.8315800  38.7863190
  31.9732650  72.9198120  39.1454830  32.3917530  72.7329100  38.3051490
  31.6668710  72.0677170  39.4557760  35.4722380  77.8322260  42.8430630
  35.0965980  77.0650190  42.4111920  34.7425500  78.2144960  43.3305560
  20.0618140  78.5109400  49.4639680  20.4291180  78.4236800  50.3435700
  19.4928960  77.7475950  49.3646540  34.8622000  76.9793780  52.4770150
  34.6308090  76.7506530  51.5768100  35.1226550  77.8993330  52.4315040
  19.6134140  75.4218490  53.3698100  18.7190190  75.3885250  53.7091810
  20.1531690  75.6205280  54.1349350  18.2380290  75.3355760  40.8661670
  17.3344370  75.5985960  40.6913330  18.7220910  75.6066930  40.0861630
  34.7473340  76.0579750  46.1437870  35.2710820  75.5642400  45.5128040
  35.3332760  76.1930110  46.8885440  34.9263060  76.1419620  49.6657420
  33.9765770  76.1083160  49.7802410  35.1076070  77.0519730  49.4307190
  20.7807500  74.3921300  38.7756050  21.4899200  73.9704520  38.2903330
  20.0647440  74.4596530  38.1439400  20.4281660  70.4460630  37.8158700
  21.1509790  70.9869570  38.1339920  20.7006180  70.1724050  36.9400240
  34.2373310  75.3153100  42.0830280  34.7332430  75.0823970  42.8679160
  34.0389380  74.4764940  41.6667920  20.1173850  69.6966820  47.7181320
  20.7650040  69.1464200  47.2776480  20.5375690  69.9509970  48.5397130
  35.6660470  73.9514050  44.6167960  35.5559750  73.7970090  45.5550230
  36.4268060  73.4234990  44.3743370  34.0126190  69.8908180  51.0750960
  34.6498410  70.5042320  51.4410150  34.1601080  69.9268840  50.1300190
  36.5550740  71.7821970  37.8574100  37.4800050  71.6503150  37.6492390
  36.5326530  71.8614790  38.8110550  36.6289230  72.5532630  40.4830810
  35.8340730  72.4877750  41.0123720  36.8332510  73.4883270  40.4716160
  33.5707650  86.5924180  44.4769200  34.1666720  86.2708750  43.8003620
  33.8285800  86.1196000  45.2682470  19.8705850  69.8522490  50.4606640
  19.5220670  70.3086310  51.2264820  19.5393550  68.9579620  50.5429070
  25.1776250  84.5801680  50.2269550  24.9367610  84.8476240  49.3400070
  26.1178890  84.7507410  50.2820410  36.4380410  86.5996060  51.0280190
  35.9438690  86.9964930  50.3107320  35.8293700  85.9745270  51.4217470
  21.3158250  85.9704340  51.7457610  20.7218570  85.8389040  52.4847650
  21.3082090  85.1342480  51.2799710  30.7613270  69.2636570  49.9487640
  29.8873110  69.5971680  49.7460570  30.6524020  68.7909750  50.7739510
  31.6685250  71.4707440  51.3329360  31.3398610  70.6559200  50.9531090
  32.6167550  71.4277250  51.2095050  34.1219860  87.2419480  48.3066930
  33.6622830  87.9935290  47.9324950  33.4932320  86.5225950  48.2481730
  20.9470480  83.3362720  50.6965650  20.2204540  82.7168010  50.6291600
  21.0079630  83.7303330  49.8263730  24.5515580  85.5507720  47.4815060
  25.0680600  84.9395080  46.9563320  25.2012960  86.0536500  47.9726070
  27.2911080  86.4416210  48.3084040  27.5788890  86.1870510  47.4317050
  27.8034300  85.8893570  48.8989610  28.5088090  70.1806410  48.8880550
  27.7259880  70.6551910  49.1677310  28.2151020  69.2761240  48.7793730
  33.0609160  70.8829510  46.9329640  33.5017250  70.8274610  46.0851240
  32.7916750  71.7987520  47.0039820  34.9247730  70.5144750  44.9438460
  34.8636130  69.5705970  44.7969480  35.7039760  70.6224840  45.4891920
  19.2300480  86.6537110  43.9062410  19.0622520  86.0207790  44.6044300
  18.3634990  86.8596510  43.5556600  19.8528500  70.4853890  41.4094270
  20.6107860  70.5982770  40.8358300  19.3905670  71.3223090  41.3637700
  26.3942310  72.5993160  44.3996580  25.5816820  72.2250050  44.0592460
  26.8983950  71.8438240  44.7017770  30.8967290  69.2635610  45.6379650
  31.4996660  69.8355820  46.1128170  30.1560280  69.8275050  45.4153550
  34.0401890  69.6657170  40.9119930  34.2352520  70.5640620  41.1787360
  33.2531760  69.4344250  41.4052880  20.8363180  85.3470340  41.3512550
  20.3110800  85.7278370  40.6474510  20.7607760  85.9721110  42.0722260
  22.2253650  71.0117940  39.9496240  22.7546410  70.2247740  39.8204190
  22.8581970  71.6909130  40.1831770  24.4191490  70.7493080  43.0041630
  23.7894230  70.0480390  43.1711760  23.8796630  71.5097210  42.7874790
  35.5928500  86.9057880  42.6726490  35.7680690  86.2195620  42.0287410
  34.8950070  87.4304930  42.2803160  23.4356150  87.2952720  40.2261800
  24.1674970  87.0112000  39.6785690  23.6949820  87.0566000  41.1161180
  22.5970940  83.4117450  40.2308130  21.9679820  83.8802550  40.7793960
  22.7118770  82.5666670  40.6654320  30.0520660  77.4623110  26.3809330
  29.9714710  76.5477720  26.1101040  29.6385080  77.9590180  25.6749040
  28.1838700  79.2402130  28.2618600  27.4080800  78.7602570  28.5517170
  28.8351630  78.5607780  28.0874760  22.2004530  79.5521940  29.1394360
  21.3689410  79.2970650  29.5390870  22.8085510  79.6232710  29.8752280
  32.2046130  83.6462320  27.0417730  31.7427660  82.8749560  27.3704900
  33.0171680  83.6728390  27.5470180  22.1805790  83.5862030  29.3352380
  22.4833830  82.6959770  29.1562600  22.9249380  84.1432250  29.1074630
  20.6096480  74.5123830  22.9236750  19.7213180  74.8539800  22.8216630
  20.8937670  74.3124150  22.0317580  18.5729490  77.1129480  28.8076450
  19.1445600  76.3451680  28.8080090  18.5731030  77.4118240  27.8983060
  28.4309440  85.9320330  26.6621720  27.8120880  86.3877830  26.0916160
  29.2861220  86.0871790  26.2611420  27.6247690  81.9159320  28.2688760
  27.5555970  80.9749260  28.1077890  28.3867550  82.0060730  28.8411330
  19.8154360  72.5213840  30.5945380  19.6357200  71.6239590  30.8748140
  19.4134440  73.0685710  31.2692330  28.6552860  74.7229700  28.4957690
  29.0317680  73.8501580  28.3831360  28.5572370  75.0588400  27.6048130
  22.7857870  73.0955330  23.9575130  22.8924620  73.9959060  24.2643890
  21.8750230  73.0473300  23.6669780  32.4376980  72.2180140  25.4286030
  33.2586600  71.7276710  25.4711510  32.4711060  72.8077800  26.1817870
  20.4341030  75.0174340  29.2027720  21.1151140  75.2812710  29.8215120
  20.1189080  74.1775210  29.5365730  24.6265600  76.0641700  28.2900310
  25.1343820  76.5622670  28.9305330  25.1578840  75.2876900  28.1139670
  36.7276530  74.2346890  31.9929660  36.0228700  74.6228600  31.4744770
  36.9934450  74.9297180  32.5950590  22.9101700  70.7040260  32.5563730
  22.9120140  71.2212650  31.7509630  22.0806010  70.2270440  32.5333660
  29.2972790  80.8159570  24.0553630  28.6790060  81.2809020  23.4916350
  29.8096040  81.5087050  24.4723140  24.1604550  80.3435440  30.7337230
  23.8273930  80.9704360  31.3758300  24.3371230  80.8697320  29.9538900
  32.6738460  74.1580520  28.2013570  31.9694030  74.4465410  28.7816680
  33.0350620  74.9680630  27.8413130  22.5917030  72.4150220  30.5634180
  22.9333840  73.2592270  30.2688050  21.6532840  72.5633960  30.6799520
  23.3723650  82.3116240  32.5486410  23.9897650  82.9867320  32.2670860
  22.5116770  82.7204220  32.4573910  18.6655990  81.5016100  21.4293260
  18.2883970  81.9903200  20.6978160  18.9229060  82.1741380  22.0599790
  34.2901240  83.7755650  30.4641050  33.6064760  84.4454760  30.4557720
  34.8295530  83.9736300  29.6985910  35.7425380  73.6035310  28.5922780
  34.7950290  73.6374290  28.7238210  36.0675370  74.4174260  28.9772140
  26.2744920  69.9032490  26.8878770  26.5819900  69.3479380  26.1714270
  25.3445620  70.0376950  26.7051760  31.8259980  85.6199780  29.1786230
  31.8387140  85.2162070  28.3108490  31.2735200  86.3947070  29.0747660
  33.1205400  82.3416000  24.2676400  33.0101730  81.3990330  24.3925820
  33.1173650  82.7031640  25.1539160  31.2245420  80.5229620  30.5068840
  31.6414210  80.3089730  29.6722300  31.9485240  80.7802410  31.0777460
  28.6625680  77.9681320  23.6238890  27.7354960  77.9018700  23.8527360
  28.8150500  78.9061450  23.5094130  28.6494760  74.2398320  20.6206050
  27.7098430  74.4012280  20.7058510  28.9678020  74.9584000  20.0742040
  35.1707520  78.9216840  30.5985080  34.3426150  78.9909930  30.1235210
  35.7658000  79.5071150  30.1300910  32.6922970  79.5301620  24.1274140
  32.0735390  79.1921170  23.4800440  32.6747420  78.8861380  24.8353330
  32.1349530  75.7086160  31.5439950  31.7220710  76.5339870  31.7979940
  31.4025480  75.1231200  31.3516310  24.2682320  78.4946060  26.4058620
  23.8639320  77.7823310  25.9104520  24.3545440  78.1499300  27.2946660
  24.7364020  82.1813620  28.5697830  24.4392310  81.5759090  27.8905610
  25.6863840  82.2190930  28.4587190  22.9810940  75.2689270  30.1857660
  23.5325530  75.3784610  29.4110910  23.4954450  75.6426870  30.9012890
  32.8249630  85.7545490  32.2320930  32.3480190  86.5617680  32.0393540
  32.1411420  85.1023820  32.3847140  23.8282450  81.9195310  35.2205630
  22.9310980  82.1435280  35.4679030  23.8535320  82.0430250  34.2717030
  30.8687670  78.7688430  21.1346890  31.3080950  77.9310860  20.9884710
  31.5816090  79.4017830  21.2211030  22.6553670  78.7908630  33.7963000
  22.5161440  79.6631430  34.1650400  21.7735030  78.4481440  33.6510940
  28.9783050  83.7084500  25.1028130  29.4178960  84.4508830  24.6883520
  28.9169940  83.9511070  26.0267090  24.4534020  84.7330330  36.0048150
  24.4249450  85.1373280  35.1376580  24.2898990  83.8040690  35.8419750
  34.4504810  70.0231240  19.4487930  34.1377470  70.1158070  20.3487000
  35.2117280  70.6012270  19.3985360  20.9686950  77.3891040  23.9065270
  20.8484550  78.1153130  23.2946540  20.6587840  76.6193950  23.4293180
  36.4048840  85.5157430  37.3012320  36.8808560  85.9940320  37.9801400
  37.0256000  85.4474920  36.5757820  18.6072320  80.5606180  29.7133910
  18.6852740  80.6954950  28.7689630  19.2214000  79.8522070  29.9062030
  19.8519950  82.2606370  26.1240090  19.4448030  82.4020960  25.2693690
  20.7432960  81.9766530  25.9211300  35.8082090  82.7070280  34.4612330
  35.9345150  82.4682160  33.5429510  35.8503470  81.8754820  34.9334410
  29.6698830  86.4098280  33.0307140  30.1843500  86.3206290  33.8329570
  28.8267910  86.7557980  33.3235050  31.6453230  86.6953620  22.4591140
  31.4854370  86.4056560  23.3572970  31.4799940  85.9193750  21.9236370
  24.1241610  86.4752150  24.2362760  23.9484090  85.5587690  24.0230560
  23.2697350  86.8339440  24.4760560  31.3479360  84.2041180  21.0189140
  30.6544520  84.2018470  20.3591420  32.0902220  83.7800500  20.5883310
  30.9129290  85.8303890  25.0937630  31.3686240  85.0493270  25.4076250
  31.2521810  86.5410710  25.6378810  35.6606100  74.7602740  35.4262070
  35.0450370  75.2682410  34.8977530  35.3402520  73.8601070  35.3688010
  18.6631840  81.6020350  32.2528370  18.8262880  81.1325710  31.4347740
  19.1284290  81.0943910  32.9177210  23.4350610  70.7326110  27.2888940
  22.9918760  71.5135650  26.9573460  23.9935600  71.0556000  27.9959880
  27.7220420  73.5994630  32.8924260  27.2599790  73.8077650  33.7044200
  27.3198530  72.7853980  32.5894930  32.7224930  74.8203580  34.0220920
  31.8718520  74.5209330  34.3429990  32.5626720  75.0645590  33.1104740
  29.8174640  76.3205330  36.1219710  30.1428050  75.4869080  35.7821940
  30.6054970  76.8433850  36.2698040  26.5509430  70.3536810  22.1694770
  25.9263610  70.3496680  22.8948080  26.4639550  69.4867770  21.7730740
  25.4726510  71.2773440  29.1478540  25.7698840  72.1836270  29.0670560
  26.0212070  70.7892220  28.5338110  23.2264830  75.8559680  25.0170190
  23.0005750  75.6396850  25.9216810  22.4457360  76.2888140  24.6716160
  30.4562590  75.8623050  23.6160840  29.8571480  76.5858850  23.4324460
  31.0042200  75.7999830  22.8337290  25.6664040  76.7545260  35.6830460
  25.5707640  75.8139990  35.5330860  26.5096020  76.9760330  35.2878530
  29.0627460  74.4986590  25.6464120  29.4557030  74.8158790  24.8332810
  29.4244310  73.6198470  25.7608640  20.7974580  73.1658930  33.8364240
  20.4037970  74.0134140  34.0437020  20.1092980  72.5285300  34.0272880
  27.3719630  73.2493900  36.9060980  26.6817950  73.0566100  37.5407070
  28.1151930  73.5328540  37.4385280  18.0991630  71.0887390  27.8694320
  17.8104680  71.6590250  28.5819300  18.8437390  70.6091840  28.2325550
  18.2861860  75.0307510  19.0797040  18.2036530  75.9738270  19.2212030
  17.9344920  74.8882420  18.2009390  29.6482600  77.0892340  29.7414900
  28.9163720  77.5979150  30.0905000  29.2506940  76.2722320  29.4403680
  26.0859990  73.7646540  28.1467390  26.0896050  73.3236490  27.2971930
  26.9811110  74.0863870  28.2539210  21.9362370  73.6473030  27.1061600
  21.5962420  74.1248260  27.8628650  21.1739690  73.1938150  26.7462700
  26.1480140  74.7658620  21.1374150  26.2692960  74.7245100  22.0859970
  25.7628650  75.6282770  20.9820880  30.1108510  72.5426020  29.1537840
  30.1281250  72.9934670  29.9979690  29.8624090  71.6431660  29.3671280
  25.1601640  77.0759760  20.5357450  24.5918540  76.6278010  19.9093360
  25.8690640  77.4352540  20.0022600  33.5379260  69.9558200  34.9924220
  33.8625030  69.2247860  35.5182200  33.5735770  69.6371840  34.0905210
  20.2370820  80.9771780  34.4124180  19.8525610  80.3365450  35.0107140
  20.5483010  81.6807900  34.9818910  26.3867960  77.8248320  29.8932800
  26.7538090  77.3506890  30.6394140  26.1973020  78.6989890  30.2341140
  19.2508450  72.5692010  26.0226270  18.9655370  72.2047680  26.8604890
  19.1887310  71.8372470  25.4089410  24.1767330  76.8656960  32.2117010
  23.8724400  77.7448940  32.4367370  25.1313790  76.9256750  32.2474450
  22.7049120  81.0717950  22.8083860  21.9311380  80.5315570  22.6482580
  23.4343750  80.5524560  22.4701620  33.4637100  80.0683310  28.6010250
  34.1836220  80.5638600  28.2106360  33.2618920  79.3901200  27.9564120
  28.9247040  71.4621270  22.7439640  28.1111650  70.9634440  22.6684950
  28.7308990  72.3019520  22.3275990  28.8455900  80.1392370  34.4879250
  28.7793210  79.2188040  34.2336840  28.2161040  80.2367810  35.2023890
  31.6395430  75.8340920  21.0401800  32.5275050  76.1458150  20.8653140
  31.6100520  74.9613170  20.6482380  22.7486520  80.7398330  26.4462670
  23.2665190  79.9366590  26.3919560  22.2970540  80.6777470  27.2879500
  27.6356020  82.0064610  21.7189970  27.9771720  82.7506840  21.2233290
  26.8068730  82.3195730  22.0814800  20.2331060  77.7059700  33.3588370
  19.8746000  78.3713550  33.9461710  19.9385620  76.8743250  33.7300990
  23.4344180  78.1643940  36.2427920  23.1344320  78.3101120  35.3455740
  24.2055420  77.6049230  36.1501310  28.7772630  82.9612940  34.2383050
  28.7917170  82.0293900  34.0201960  28.0697730  83.0472700  34.8772820
  33.9109700  77.1452760  20.5081660  33.8273420  77.5766980  19.6578100
  34.6303890  77.6051110  20.9408480  34.9883840  79.6020280  33.5851630
  34.2632030  80.1949060  33.3881020  35.5159300  79.5943820  32.7865000
  34.9396950  83.9995020  23.2363790  34.2973110  83.3450640  23.5107510
  34.5527610  84.4050110  22.4604460  30.5183430  81.3280450  27.0835480
  30.8707250  80.7308580  26.4236850  29.6345760  81.0024680  27.2543730
  26.6046710  82.0878140  24.4905890  27.2917840  82.6347350  24.8713480
  25.8179130  82.6318870  24.5255500  18.7439110  77.7050960  19.9822970
  19.6133960  77.9875760  20.2658890  18.2529430  78.5186830  19.8671780
  25.9073920  79.0924170  24.1031250  26.3636700  79.9029420  24.3291440
  25.5562130  78.7747310  24.9349740  28.2106530  84.6030510  31.3323550
  28.8548750  84.8089890  32.0096970  28.5735970  83.8418910  30.8794400
  21.8085700  69.4361820  24.5753770  21.6800330  69.4279720  25.5238690
  20.9847720  69.7744910  24.2244780  29.4838610  82.6062860  30.0501000
  30.1260840  81.9056020  30.1633170  30.0087960  83.3861300  29.8697890
  33.3294330  82.8911480  19.7740140  33.1031910  82.1741920  20.3664780
  32.9390530  82.6423920  18.9361890  31.2576230  83.4057760  33.2537060
  31.5932470  83.9924450  33.9314980  30.3376570  83.2750470  33.4834850
  19.1110360  86.9178340  20.5484600  19.4708000  87.5167680  19.8941870
  18.9702700  87.4638230  21.3219630  18.8079630  71.1952940  34.0360470
  18.0938150  71.3949860  34.6413080  19.2274670  70.4192510  34.4075270
  32.9110580  80.8083420  21.4354300  32.6232280  81.2696110  22.2232180
  33.7062750  80.3481190  21.7038520  19.0952220  85.1833200  35.0227000
  19.2043340  84.2427940  34.8822390  18.4432780  85.4487950  34.3740730
  27.0864810  83.4549090  36.4225120  26.7661680  82.7358330  36.9670810
  26.4123170  84.1304160  36.4961180  25.1278980  84.3009540  21.3658270
  25.1189080  85.0339230  20.7502780  24.2077340  84.0541120  21.4585230
  20.7285620  79.5224430  22.1105030  20.1213570  80.2623330  22.1200330
  21.2034970  79.6123790  21.2843230  30.3018410  73.6875250  31.7861920
  30.6699230  72.8670460  32.1141490  29.4416610  73.7477140  32.2017570
  33.6680440  72.6432190  22.5949480  33.0393600  72.7477860  21.8807710
  33.1732360  72.8628970  23.3843360  28.1138580  84.3637780  20.0283460
  28.2150560  84.1601770  19.0985440  27.2140320  84.1096060  20.2331240
  25.6364470  74.9218140  24.0107360  24.9280620  75.3904480  24.4520970
  25.9208950  74.2640150  24.6452550  27.2620400  76.3414840  32.0099890
  27.7605650  76.8160660  32.6751740  27.4043350  75.4178360  32.2169920
  29.6679900  71.6468800  25.4503150  29.5447680  71.6654930  24.5012660
  30.6164460  71.6947740  25.5701550  26.7556690  86.8824100  24.7231130
  27.0098190  86.8445490  23.8010500  25.8069170  86.7557430  24.7159380
  23.8399490  73.2303220  21.3858070  24.6890020  73.6673370  21.3198260
  23.4730760  73.5423480  22.2130130  34.4687260  72.5582800  32.8528280
  33.9660860  73.2988200  33.1922090  35.2843920  72.9466800  32.5365070
  32.7609270  77.8015980  26.2989640  31.8199410  77.8166210  26.4737330
  33.0753340  77.0151940  26.7449940  22.7390910  79.4835580  19.8593600
  23.5054180  79.3716940  20.4219030  22.8165600  78.7873550  19.2070370
  21.4337670  76.9160650  20.5426490  21.5141260  75.9688160  20.6543890
  22.3257420  77.2467530  20.6487150  34.7634850  84.9724830  27.9743900
  34.8882270  85.7956000  28.4467710  35.6300410  84.7615560  27.6268050
  22.2352380  87.0656040  27.6461030  22.9714860  86.5171500  27.9169600
  22.6193300  87.9312050  27.5067020  19.1197860  83.1329610  23.5202540
  18.1937640  83.3750750  23.5107950  19.5854290  83.9603870  23.3987290
  21.2410660  86.2502110  36.8346610  22.0423390  86.5714160  37.2482010
  20.7262480  85.8897690  37.5566520  25.3454690  86.2386350  19.4686600
  26.1383300  86.5275180  19.0168390  24.8259040  85.8078520  18.7899080
  30.0775290  82.3581980  36.7822020  29.4713450  82.3813580  36.0417770
  29.7729400  81.6265020  37.3189270  31.5075660  86.0862270  35.3931430
  32.4597410  86.0020290  35.3431670  31.3603880  86.7503980  36.0665220
  34.3984860  85.4656480  20.8923340  34.1126370  85.0521620  20.0777520
  34.2004410  86.3944190  20.7723860  18.9608470  78.7375570  35.7782660
  19.4647490  78.1582850  36.3498890  18.2215890  79.0215800  36.3159030
  25.8632090  81.4589760  19.3328950  25.7582730  80.8442110  20.0590330
  25.6956310  80.9355650  18.5491960  26.0146410  80.1446560  35.3118180
  25.2492080  80.7131560  35.2272850  26.1962370  79.8522770  34.4186410
  29.1034820  80.5209790  19.9370940  28.5544920  80.9679090  20.5813680
  29.7254080  80.0159040  20.4608610  33.1569760  81.8751890  35.8693200
  33.8979230  82.2127650  35.3660660  32.3942440  82.0443950  35.3162970
  20.9931550  76.8805160  36.6732730  21.0336890  76.5819030  37.5817960
  21.8477050  77.2812770  36.5140250  24.7709940  79.4800710  21.8336240
  25.1926360  79.3140580  22.6767630  24.8960780  78.6700940  21.3391380
  22.9337360  75.4597260  34.6407220  22.4033820  74.9688210  34.0130560
  23.6025430  75.8881460  34.1065150  27.2837580  78.5038320  19.0813340
  27.8043240  77.7887340  18.7154490  27.9305980  79.1424190  19.3813850
  31.8315420  79.9266720  34.4048410  32.2456440  80.0811800  35.2538830
  30.8966420  80.0521940  34.5674190  32.3037590  77.2662880  36.4087560
  32.8858360  76.5115200  36.3208040  32.4799360  77.7970320  35.6319040
  23.4209660  72.4259630  34.7204510  23.3266530  71.8080380  33.9955380
  22.8407050  73.1525920  34.4934420  26.1871100  70.9832870  31.7531900
  25.7388400  71.0057130  30.9077450  25.5536300  70.5851890  32.3502200
  26.5930650  79.8787200  32.3744340  27.0118760  80.7219930  32.2020580
  25.6739280  80.0159240  32.1451120  28.9294550  77.6103380  33.7582180
  29.0490760  77.0144520  34.4977020  29.7888550  77.6473070  33.3383480
  31.2682450  78.1640570  32.3344690  30.7417670  78.6883190  31.7309830
  31.6113790  78.7967960  32.9654420  23.6668840  75.5533940  18.7794400
  23.4657900  74.6901300  19.1407740  23.4960890  75.4667300  17.8416000
  24.4438070  86.1840210  33.4902070  23.9059160  86.9086270  33.1710770
  24.6972030  85.7070550  32.6999410  25.6963320  74.1524730  35.0158000
  26.2863010  73.8440580  35.7035820  24.8783560  73.6804480  35.1717900
  30.5156750  73.7690540  35.2491020  29.8272270  73.1072080  35.1841010
  31.2362770  73.3228810  35.6939480  31.1457150  70.3642170  21.3081280
  31.4259440  69.5210070  21.6640700  30.3722880  70.5965280  21.8220030
  22.4651640  72.6534560  18.7672280  22.7677540  72.6601990  17.8591430
  23.2046230  72.3032420  19.2639940  27.3000280  87.4191420  33.7488720
  27.2258980  88.3226560  34.0561090  26.3979120  87.1003320  33.7210790
  25.6836570  71.5969180  19.7528480  25.3358570  70.9193170  19.1730930
  25.8849340  71.1358690  20.5671870  27.8485610  86.5849930  21.3715080
  28.7436400  86.9234900  21.3933840  27.8803240  85.8629340  20.7439360
  21.4881770  81.9576980  19.6002080  21.9256640  82.5006650  20.2559660
  21.9729500  81.1323930  19.6098420  18.7027570  84.7466010  27.0522340
  19.0330580  83.8787070  26.8200980  19.1318570  84.9524530  27.8827300
  23.2989490  83.0775020  24.7124310  22.9985030  82.9539990  25.6128220
  23.1926980  82.2183610  24.3040040  19.1917780  85.6136600  29.7903970
  18.7548770  85.7937400  30.6228120  19.7595460  86.3711220  29.6485690
  34.8279960  85.1153600  34.0781280  34.2281950  85.1746160  33.3345200
  34.9573860  84.1758580  34.2078130  36.0681410  82.8571420  19.4150990
  35.2374370  82.9248070  19.8858220  36.2453240  83.7475540  19.1117850
  35.5237870  79.6018900  21.9185190  36.2856780  80.1715550  22.0244880
  35.5392240  79.0346100  22.6893500  19.0242210  78.1256830  26.1492850
  18.3691050  77.8568470  25.5052550  19.8620160  78.0161310  25.6994830
  36.5297840  80.4569000  26.7627120  36.9006670  79.6736320  26.3563090
  37.1699770  81.1458100  26.5844420  33.5131600  81.8405580  32.1757440
  32.6991440  82.2702740  32.4383230  33.9205800  82.4523990  31.5626490
  35.5757040  79.8953270  19.0757710  35.8505880  80.8032150  18.9476930
  35.3867780  79.8315800  20.0119700  31.9732650  72.9198120  20.3711340
  32.3917530  72.7329100  19.5308000  31.6668710  72.0677170  20.6814270
  35.4722380  77.8322260  24.0687140  35.0965980  77.0650190  23.6368430
  34.7425500  78.2144960  24.5562070  20.0618140  78.5109400  30.6896190
  20.4291180  78.4236800  31.5692210  19.4928960  77.7475950  30.5903050
  34.8622000  76.9793780  33.7026660  34.6308090  76.7506530  32.8024610
  35.1226550  77.8993330  33.6571550  19.6134140  75.4218490  34.5954610
  18.7190190  75.3885250  34.9348320  20.1531690  75.6205280  35.3605860
  33.3010070  72.2050210  36.4806360  34.1780250  72.2133610  36.8640360
  33.3130910  71.4681050  35.8698710  18.2380290  75.3355760  22.0918180
  17.3344370  75.5985960  21.9169840  18.7220910  75.6066930  21.3118140
  34.7473340  76.0579750  27.3694380  35.2710820  75.5642400  26.7384550
  35.3332760  76.1930110  28.1141950  34.9263060  76.1419620  30.8913930
  33.9765770  76.1083160  31.0058920  35.1076070  77.0519730  30.6563700
  20.7807500  74.3921300  20.0012560  21.4899200  73.9704520  19.5159840
  20.0647440  74.4596530  19.3695910  20.4281660  70.4460630  19.0415210
  21.1509790  70.9869570  19.3596430  20.7006180  70.1724050  18.1656750
  34.2373310  75.3153100  23.3086790  34.7332430  75.0823970  24.0935670
  34.0389380  74.4764940  22.8924430  20.1173850  69.6966820  28.9437830
  20.7650040  69.1464200  28.5032990  20.5375690  69.9509970  29.7653640
  35.6660470  73.9514050  25.8424470  35.5559750  73.7970090  26.7806740
  36.4268060  73.4234990  25.5999880  34.0126190  69.8908180  32.3007470
  34.6498410  70.5042320  32.6666660  34.1601080  69.9268840  31.3556700
  36.5550740  71.7821970  19.0830610  37.4800050  71.6503150  18.8748900
  36.5326530  71.8614790  20.0367060  36.6289230  72.5532630  21.7087320
  35.8340730  72.4877750  22.2380230  36.8332510  73.4883270  21.6972670
  33.5707650  86.5924180  25.7025710  34.1666720  86.2708750  25.0260130
  33.8285800  86.1196000  26.4938980  19.8705850  69.8522490  31.6863150
  19.5220670  70.3086310  32.4521330  19.5393550  68.9579620  31.7685580
  21.4770220  83.0242090  35.8516340  21.4339850  82.6535000  36.7330800
  21.6081230  83.9619660  35.9918160  25.1776250  84.5801680  31.4526060
  24.9367610  84.8476240  30.5656580  26.1178890  84.7507410  31.5076920
  27.3830670  71.0434370  35.2082570  27.3219560  71.6356200  35.9577980
  28.3231050  70.9360330  35.0632830  30.0205230  70.7004430  34.8474860
  30.6345640  71.0183720  34.1855940  30.5654790  70.2153020  35.4670720
  36.4380410  86.5996060  32.2536700  35.9438690  86.9964930  31.5363830
  35.8293700  85.9745270  32.6473980  20.5426490  69.3798690  34.9613920
  21.0909480  69.1986740  34.1980030  20.6081800  68.5892800  35.4970230
  21.3158250  85.9704340  32.9714120  20.7218570  85.8389040  33.7104160
  21.3082090  85.1342480  32.5056220  30.7613270  69.2636570  31.1744150
  29.8873110  69.5971680  30.9717080  30.6524020  68.7909750  31.9996020
  31.6685250  71.4707440  32.5585870  31.3398610  70.6559200  32.1787600
  32.6167550  71.4277250  32.4351560  34.1219860  87.2419480  29.5323440
  33.6622830  87.9935290  29.1581460  33.4932320  86.5225950  29.4738240
  20.9470480  83.3362720  31.9222160  20.2204540  82.7168010  31.8548110
  21.0079630  83.7303330  31.0520240  24.5515580  85.5507720  28.7071570
  25.0680600  84.9395080  28.1819830  25.2012960  86.0536500  29.1982580
  27.2911080  86.4416210  29.5340550  27.5788890  86.1870510  28.6573560
  27.8034300  85.8893570  30.1246120  28.5088090  70.1806410  30.1137060
  27.7259880  70.6551910  30.3933820  28.2151020  69.2761240  30.0050240
  33.0609160  70.8829510  28.1586150  33.5017250  70.8274610  27.3107750
  32.7916750  71.7987520  28.2296330  19.2300480  86.6537110  25.1318920
  19.0622520  86.0207790  25.8300810  18.3634990  86.8596510  24.7813110
  19.8528500  70.4853890  22.6350780  20.6107860  70.5982770  22.0614810
  19.3905670  71.3223090  22.5894210  26.3942310  72.5993160  25.6253090
  25.5816820  72.2250050  25.2848970  26.8983950  71.8438240  25.9274280
  30.8967290  69.2635610  26.8636160  31.4996660  69.8355820  27.3384680
  30.1560280  69.8275050  26.6410060  34.0401890  69.6657170  22.1376440
  34.2352520  70.5640620  22.4043870  33.2531760  69.4344250  22.6309390
  20.8363180  85.3470340  22.5769060  20.3110800  85.7278370  21.8731020
  20.7607760  85.9721110  23.2978770  22.2253650  71.0117940  21.1752750
  22.7546410  70.2247740  21.0460700  22.8581970  71.6909130  21.4088280
  24.4191490  70.7493080  24.2298140  23.7894230  70.0480390  24.3968270
  23.8796630  71.5097210  24.0131300  27.3583440  87.3632310  36.9008750
  28.2850750  87.1276580  36.9444710  27.3433870  88.1904310  36.4194780
  35.5928500  86.9057880  23.8983000  35.7680690  86.2195620  23.2543920
  34.8950070  87.4304930  23.5059670  24.5447050  70.0277060  36.6650630
  24.2631320  70.5310660  35.9011450  24.9266750  69.2298810  36.2992760
  23.4356150  87.2952720  21.4518310  24.1674970  87.0112000  20.9042200
  23.6949820  87.0566000  22.3417690  22.5970940  83.4117450  21.4564640
  21.9679820  83.8802550  22.0050470  22.7118770  82.5666670  21.8910830
  31.1462510  69.4430640  37.2431100  31.0327960  69.7625250  38.1382620
  31.9632250  69.8443150  36.9468380  33.9261000  86.5902170  36.7249790
  34.7186320  86.0951400  36.5175750  34.2194150  87.2692310  37.3325400
  30.0520660  77.4623110   7.6065840  29.9714710  76.5477720   7.3357550
  29.6385080  77.9590180   6.9005550  28.1838700  79.2402130   9.4875110
  27.4080800  78.7602570   9.7773680  28.8351630  78.5607780   9.3131270
  22.2004530  79.5521940  10.3650870  21.3689410  79.2970650  10.7647380
  22.8085510  79.6232710  11.1008790  32.2046130  83.6462320   8.2674240
  31.7427660  82.8749560   8.5961410  33.0171680  83.6728390   8.7726690
  22.1805790  83.5862030  10.5608890  22.4833830  82.6959770  10.3819110
  22.9249380  84.1432250  10.3331140  20.6096480  74.5123830   4.1493260
  19.7213180  74.8539800   4.0473140  20.8937670  74.3124150   3.2574090
  18.5729490  77.1129480  10.0332960  19.1445600  76.3451680  10.0336600
  18.5731030  77.4118240   9.1239570  28.4309440  85.9320330   7.8878230
  27.8120880  86.3877830   7.3172670  29.2861220  86.0871790   7.4867930
  27.6247690  81.9159320   9.4945270  27.5555970  80.9749260   9.3334400
  28.3867550  82.0060730  10.0667840  19.8154360  72.5213840  11.8201890
  19.6357200  71.6239590  12.1004650  19.4134440  73.0685710  12.4948840
  28.6552860  74.7229700   9.7214200  29.0317680  73.8501580   9.6087870
  28.5572370  75.0588400   8.8304640  22.7857870  73.0955330   5.1831640
  22.8924620  73.9959060   5.4900400  21.8750230  73.0473300   4.8926290
  32.4376980  72.2180140   6.6542540  33.2586600  71.7276710   6.6968020
  32.4711060  72.8077800   7.4074380  20.4341030  75.0174340  10.4284230
  21.1151140  75.2812710  11.0471630  20.1189080  74.1775210  10.7622240
  24.6265600  76.0641700   9.5156820  25.1343820  76.5622670  10.1561840
  25.1578840  75.2876900   9.3396180  36.7276530  74.2346890  13.2186170
  36.0228700  74.6228600  12.7001280  36.9934450  74.9297180  13.8207100
  22.9101700  70.7040260  13.7820240  22.9120140  71.2212650  12.9766140
  22.0806010  70.2270440  13.7590170  29.2972790  80.8159570   5.2810140
  28.6790060  81.2809020   4.7172860  29.8096040  81.5087050   5.6979650
  24.1604550  80.3435440  11.9593740  23.8273930  80.9704360  12.6014810
  24.3371230  80.8697320  11.1795410  32.6738460  74.1580520   9.4270080
  31.9694030  74.4465410  10.0073190  33.0350620  74.9680630   9.0669640
  22.5917030  72.4150220  11.7890690  22.9333840  73.2592270  11.4944560
  21.6532840  72.5633960  11.9056030  23.3723650  82.3116240  13.7742920
  23.9897650  82.9867320  13.4927370  22.5116770  82.7204220  13.6830420
  18.6655990  81.5016100   2.6549770  18.2883970  81.9903200   1.9234670
  18.9229060  82.1741380   3.2856300  34.2901240  83.7755650  11.6897560
  33.6064760  84.4454760  11.6814230  34.8295530  83.9736300  10.9242420
  35.7425380  73.6035310   9.8179290  34.7950290  73.6374290   9.9494720
  36.0675370  74.4174260  10.2028650  26.2744920  69.9032490   8.1135280
  26.5819900  69.3479380   7.3970780  25.3445620  70.0376950   7.9308270
  31.8259980  85.6199780  10.4042740  31.8387140  85.2162070   9.5365000
  31.2735200  86.3947070  10.3004170  33.1205400  82.3416000   5.4932910
  33.0101730  81.3990330   5.6182330  33.1173650  82.7031640   6.3795670
  31.2245420  80.5229620  11.7325350  31.6414210  80.3089730  10.8978810
  31.9485240  80.7802410  12.3033970  28.6625680  77.9681320   4.8495400
  27.7354960  77.9018700   5.0783870  28.8150500  78.9061450   4.7350640
  35.1707520  78.9216840  11.8241590  34.3426150  78.9909930  11.3491720
  35.7658000  79.5071150  11.3557420  32.6922970  79.5301620   5.3530650
  32.0735390  79.1921170   4.7056950  32.6747420  78.8861380   6.0609840
  32.1349530  75.7086160  12.7696460  31.7220710  76.5339870  13.0236450
  31.4025480  75.1231200  12.5772820  24.2682320  78.4946060   7.6315130
  23.8639320  77.7823310   7.1361030  24.3545440  78.1499300   8.5203170
  24.7364020  82.1813620   9.7954340  24.4392310  81.5759090   9.1162120
  25.6863840  82.2190930   9.6843700  22.9810940  75.2689270  11.4114170
  23.5325530  75.3784610  10.6367420  23.4954450  75.6426870  12.1269400
  32.8249630  85.7545490  13.4577440  32.3480190  86.5617680  13.2650050
  32.1411420  85.1023820  13.6103650  23.8282450  81.9195310  16.4462140
  22.9310980  82.1435280  16.6935540  23.8535320  82.0430250  15.4973540
  30.8687670  78.7688430   2.3603400  31.3080950  77.9310860   2.2141220
  31.5816090  79.4017830   2.4467540  22.6553670  78.7908630  15.0219510
  22.5161440  79.6631430  15.3906910  21.7735030  78.4481440  14.8767450
  28.9783050  83.7084500   6.3284640  29.4178960  84.4508830   5.9140030
  28.9169940  83.9511070   7.2523600  24.4534020  84.7330330  17.2304660
  24.4249450  85.1373280  16.3633090  24.2898990  83.8040690  17.0676260
  20.9686950  77.3891040   5.1321780  20.8484550  78.1153130   4.5203050
  20.6587840  76.6193950   4.6549690  36.4048840  85.5157430  18.5268830
  36.8808560  85.9940320  19.2057910  37.0256000  85.4474920  17.8014330
  18.6072320  80.5606180  10.9390420  18.6852740  80.6954950   9.9946140
  19.2214000  79.8522070  11.1318540  19.8519950  82.2606370   7.3496600
  19.4448030  82.4020960   6.4950200  20.7432960  81.9766530   7.1467810
  35.8082090  82.7070280  15.6868840  35.9345150  82.4682160  14.7686020
  35.8503470  81.8754820  16.1590920  29.6698830  86.4098280  14.2563650
  30.1843500  86.3206290  15.0586080  28.8267910  86.7557980  14.5491560
  31.6453230  86.6953620   3.6847650  31.4854370  86.4056560   4.5829480
  31.4799940  85.9193750   3.1492880  24.1241610  86.4752150   5.4619270
  23.9484090  85.5587690   5.2487070  23.2697350  86.8339440   5.7017070
  30.9129290  85.8303890   6.3194140  31.3686240  85.0493270   6.6332760
  31.2521810  86.5410710   6.8635320  35.6606100  74.7602740  16.6518580
  35.0450370  75.2682410  16.1234040  35.3402520  73.8601070  16.5944520
  18.6631840  81.6020350  13.4784880  18.8262880  81.1325710  12.6604250
  19.1284290  81.0943910  14.1433720  23.4350610  70.7326110   8.5145450
  22.9918760  71.5135650   8.1829970  23.9935600  71.0556000   9.2216390
  27.7220420  73.5994630  14.1180770  27.2599790  73.8077650  14.9300710
  27.3198530  72.7853980  13.8151440  32.7224930  74.8203580  15.2477430
  31.8718520  74.5209330  15.5686500  32.5626720  75.0645590  14.3361250
  29.8174640  76.3205330  17.3476220  30.1428050  75.4869080  17.0078450
  30.6054970  76.8433850  17.4954550  26.5509430  70.3536810   3.3951280
  25.9263610  70.3496680   4.1204590  26.4639550  69.4867770   2.9987250
  25.4726510  71.2773440  10.3735050  25.7698840  72.1836270  10.2927070
  26.0212070  70.7892220   9.7594620  23.2264830  75.8559680   6.2426700
  23.0005750  75.6396850   7.1473320  22.4457360  76.2888140   5.8972670
  30.4562590  75.8623050   4.8417350  29.8571480  76.5858850   4.6580970
  31.0042200  75.7999830   4.0593800  25.6664040  76.7545260  16.9086970
  25.5707640  75.8139990  16.7587370  26.5096020  76.9760330  16.5135040
  29.0627460  74.4986590   6.8720630  29.4557030  74.8158790   6.0589320
  29.4244310  73.6198470   6.9865150  20.7974580  73.1658930  15.0620750
  20.4037970  74.0134140  15.2693530  20.1092980  72.5285300  15.2529390
  27.3719630  73.2493900  18.1317490  26.6817950  73.0566100  18.7663580
  28.1151930  73.5328540  18.6641790  18.0991630  71.0887390   9.0950830
  17.8104680  71.6590250   9.8075810  18.8437390  70.6091840   9.4582060
  29.6482600  77.0892340  10.9671410  28.9163720  77.5979150  11.3161510
  29.2506940  76.2722320  10.6660190  26.0859990  73.7646540   9.3723900
  26.0896050  73.3236490   8.5228440  26.9811110  74.0863870   9.4795720
  21.9362370  73.6473030   8.3318110  21.5962420  74.1248260   9.0885160
  21.1739690  73.1938150   7.9719210  26.1480140  74.7658620   2.3630660
  26.2692960  74.7245100   3.3116480  25.7628650  75.6282770   2.2077390
  30.1108510  72.5426020  10.3794350  30.1281250  72.9934670  11.2236200
  29.8624090  71.6431660  10.5927790  33.5379260  69.9558200  16.2180730
  33.8625030  69.2247860  16.7438710  33.5735770  69.6371840  15.3161720
  20.2370820  80.9771780  15.6380690  19.8525610  80.3365450  16.2363650
  20.5483010  81.6807900  16.2075420  26.3867960  77.8248320  11.1189310
  26.7538090  77.3506890  11.8650650  26.1973020  78.6989890  11.4597650
  19.2508450  72.5692010   7.2482780  18.9655370  72.2047680   8.0861400
  19.1887310  71.8372470   6.6345920  24.1767330  76.8656960  13.4373520
  23.8724400  77.7448940  13.6623880  25.1313790  76.9256750  13.4730960
  22.7049120  81.0717950   4.0340370  21.9311380  80.5315570   3.8739090
  23.4343750  80.5524560   3.6958130  33.4637100  80.0683310   9.8266760
  34.1836220  80.5638600   9.4362870  33.2618920  79.3901200   9.1820630
  28.9247040  71.4621270   3.9696150  28.1111650  70.9634440   3.8941460
  28.7308990  72.3019520   3.5532500  28.8455900  80.1392370  15.7135760
  28.7793210  79.2188040  15.4593350  28.2161040  80.2367810  16.4280400
  31.6395430  75.8340920   2.2658310  32.5275050  76.1458150   2.0909650
  31.6100520  74.9613170   1.8738890  22.7486520  80.7398330   7.6719180
  23.2665190  79.9366590   7.6176070  22.2970540  80.6777470   8.5136010
  27.6356020  82.0064610   2.9446480  27.9771720  82.7506840   2.4489800
  26.8068730  82.3195730   3.3071310  20.2331060  77.7059700  14.5844880
  19.8746000  78.3713550  15.1718220  19.9385620  76.8743250  14.9557500
  23.4344180  78.1643940  17.4684430  23.1344320  78.3101120  16.5712250
  24.2055420  77.6049230  17.3757820  28.7772630  82.9612940  15.4639560
  28.7917170  82.0293900  15.2458470  28.0697730  83.0472700  16.1029330
  34.9883840  79.6020280  14.8108140  34.2632030  80.1949060  14.6137530
  35.5159300  79.5943820  14.0121510  34.9396950  83.9995020   4.4620300
  34.2973110  83.3450640   4.7364020  34.5527610  84.4050110   3.6860970
  30.5183430  81.3280450   8.3091990  30.8707250  80.7308580   7.6493360
  29.6345760  81.0024680   8.4800240  26.6046710  82.0878140   5.7162400
  27.2917840  82.6347350   6.0969990  25.8179130  82.6318870   5.7512010
  25.9073920  79.0924170   5.3287760  26.3636700  79.9029420   5.5547950
  25.5562130  78.7747310   6.1606250  28.2106530  84.6030510  12.5580060
  28.8548750  84.8089890  13.2353480  28.5735970  83.8418910  12.1050910
  21.8085700  69.4361820   5.8010280  21.6800330  69.4279720   6.7495200
  20.9847720  69.7744910   5.4501290  29.4838610  82.6062860  11.2757510
  30.1260840  81.9056020  11.3889680  30.0087960  83.3861300  11.0954400
  31.2576230  83.4057760  14.4793570  31.5932470  83.9924450  15.1571490
  30.3376570  83.2750470  14.7091360  18.8079630  71.1952940  15.2616980
  18.0938150  71.3949860  15.8669590  19.2274670  70.4192510  15.6331780
  32.9110580  80.8083420   2.6610810  32.6232280  81.2696110   3.4488690
  33.7062750  80.3481190   2.9295030  19.0952220  85.1833200  16.2483510
  19.2043340  84.2427940  16.1078900  18.4432780  85.4487950  15.5997240
  27.0864810  83.4549090  17.6481630  26.7661680  82.7358330  18.1927320
  26.4123170  84.1304160  17.7217690  25.1278980  84.3009540   2.5914780
  25.1189080  85.0339230   1.9759290  24.2077340  84.0541120   2.6841740
  20.7285620  79.5224430   3.3361540  20.1213570  80.2623330   3.3456840
  21.2034970  79.6123790   2.5099740  30.3018410  73.6875250  13.0118430
  30.6699230  72.8670460  13.3398000  29.4416610  73.7477140  13.4274080
  33.6680440  72.6432190   3.8205990  33.0393600  72.7477860   3.1064220
  33.1732360  72.8628970   4.6099870  25.6364470  74.9218140   5.2363870
  24.9280620  75.3904480   5.6777480  25.9208950  74.2640150   5.8709060
  27.2620400  76.3414840  13.2356400  27.7605650  76.8160660  13.9008250
  27.4043350  75.4178360  13.4426430  29.6679900  71.6468800   6.6759660
  29.5447680  71.6654930   5.7269170  30.6164460  71.6947740   6.7958060
  26.7556690  86.8824100   5.9487640  27.0098190  86.8445490   5.0267010
  25.8069170  86.7557430   5.9415890  23.8399490  73.2303220   2.6114580
  24.6890020  73.6673370   2.5454770  23.4730760  73.5423480   3.4386640
  34.4687260  72.5582800  14.0784790  33.9660860  73.2988200  14.4178600
  35.2843920  72.9466800  13.7621580  32.7609270  77.8015980   7.5246150
  31.8199410  77.8166210   7.6993840  33.0753340  77.0151940   7.9706450
  21.4337670  76.9160650   1.7683000  21.5141260  75.9688160   1.8800400
  22.3257420  77.2467530   1.8743660  34.7634850  84.9724830   9.2000410
  34.8882270  85.7956000   9.6724220  35.6300410  84.7615560   8.8524560
  22.2352380  87.0656040   8.8717540  22.9714860  86.5171500   9.1426110
  22.6193300  87.9312050   8.7323530  19.1197860  83.1329610   4.7459050
  18.1937640  83.3750750   4.7364460  19.5854290  83.9603870   4.6243800
  21.2410660  86.2502110  18.0603120  22.0423390  86.5714160  18.4738520
  20.7262480  85.8897690  18.7823030  30.0775290  82.3581980  18.0078530
  29.4713450  82.3813580  17.2674280  29.7729400  81.6265020  18.5445780
  31.5075660  86.0862270  16.6187940  32.4597410  86.0020290  16.5688180
  31.3603880  86.7503980  17.2921730  18.9608470  78.7375570  17.0039170
  19.4647490  78.1582850  17.5755400  18.2215890  79.0215800  17.5415540
  26.0146410  80.1446560  16.5374690  25.2492080  80.7131560  16.4529360
  26.1962370  79.8522770  15.6442920  33.1569760  81.8751890  17.0949710
  33.8979230  82.2127650  16.5917170  32.3942440  82.0443950  16.5419480
  20.9931550  76.8805160  17.8989240  21.0336890  76.5819030  18.8074470
  21.8477050  77.2812770  17.7396760  24.7709940  79.4800710   3.0592750
  25.1926360  79.3140580   3.9024140  24.8960780  78.6700940   2.5647890
  22.9337360  75.4597260  15.8663730  22.4033820  74.9688210  15.2387070
  23.6025430  75.8881460  15.3321660  31.8315420  79.9266720  15.6304920
  32.2456440  80.0811800  16.4795340  30.8966420  80.0521940  15.7930700
  32.3037590  77.2662880  17.6344070  32.8858360  76.5115200  17.5464550
  32.4799360  77.7970320  16.8575550  23.4209660  72.4259630  15.9461020
  23.3266530  71.8080380  15.2211890  22.8407050  73.1525920  15.7190930
  26.1871100  70.9832870  12.9788410  25.7388400  71.0057130  12.1333960
  25.5536300  70.5851890  13.5758710  26.5930650  79.8787200  13.6000850
  27.0118760  80.7219930  13.4277090  25.6739280  80.0159240  13.3707630
  28.9294550  77.6103380  14.9838690  29.0490760  77.0144520  15.7233530
  29.7888550  77.6473070  14.5639990  31.2682450  78.1640570  13.5601200
  30.7417670  78.6883190  12.9566340  31.6113790  78.7967960  14.1910930
  24.4438070  86.1840210  14.7158580  23.9059160  86.9086270  14.3967280
  24.6972030  85.7070550  13.9255920  25.6963320  74.1524730  16.2414510
  26.2863010  73.8440580  16.9292330  24.8783560  73.6804480  16.3974410
  30.5156750  73.7690540  16.4747530  29.8272270  73.1072080  16.4097520
  31.2362770  73.3228810  16.9195990  31.1457150  70.3642170   2.5337790
  31.4259440  69.5210070   2.8897210  30.3722880  70.5965280   3.0476540
  27.3000280  87.4191420  14.9745230  27.2258980  88.3226560  15.2817600
  26.3979120  87.1003320  14.9467300  27.8485610  86.5849930   2.5971590
  28.7436400  86.9234900   2.6190350  27.8803240  85.8629340   1.9695870
  18.7027570  84.7466010   8.2778850  19.0330580  83.8787070   8.0457490
  19.1318570  84.9524530   9.1083810  23.2989490  83.0775020   5.9380820
  22.9985030  82.9539990   6.8384730  23.1926980  82.2183610   5.5296550
  19.1917780  85.6136600  11.0160480  18.7548770  85.7937400  11.8484630
  19.7595460  86.3711220  10.8742200  34.8279960  85.1153600  15.3037790
  34.2281950  85.1746160  14.5601710  34.9573860  84.1758580  15.4334640
  35.5237870  79.6018900   3.1441700  36.2856780  80.1715550   3.2501390
  35.5392240  79.0346100   3.9150010  19.0242210  78.1256830   7.3749360
  18.3691050  77.8568470   6.7309060  19.8620160  78.0161310   6.9251340
  36.5297840  80.4569000   7.9883630  36.9006670  79.6736320   7.5819600
  37.1699770  81.1458100   7.8100930  33.5131600  81.8405580  13.4013950
  32.6991440  82.2702740  13.6639740  33.9205800  82.4523990  12.7883000
  35.4722380  77.8322260   5.2943650  35.0965980  77.0650190   4.8624940
  34.7425500  78.2144960   5.7818580  20.0618140  78.5109400  11.9152700
  20.4291180  78.4236800  12.7948720  19.4928960  77.7475950  11.8159560
  34.8622000  76.9793780  14.9283170  34.6308090  76.7506530  14.0281120
  35.1226550  77.8993330  14.8828060  19.6134140  75.4218490  15.8211120
  18.7190190  75.3885250  16.1604830  20.1531690  75.6205280  16.5862370
  33.3010070  72.2050210  17.7062870  34.1780250  72.2133610  18.0896870
  33.3130910  71.4681050  17.0955220  18.2380290  75.3355760   3.3174690
  17.3344370  75.5985960   3.1426350  18.7220910  75.6066930   2.5374650
  34.7473340  76.0579750   8.5950890  35.2710820  75.5642400   7.9641060
  35.3332760  76.1930110   9.3398460  34.9263060  76.1419620  12.1170440
  33.9765770  76.1083160  12.2315430  35.1076070  77.0519730  11.8820210
  34.2373310  75.3153100   4.5343300  34.7332430  75.0823970   5.3192180
  34.0389380  74.4764940   4.1180940  20.1173850  69.6966820  10.1694340
  20.7650040  69.1464200   9.7289500  20.5375690  69.9509970  10.9910150
  35.6660470  73.9514050   7.0680980  35.5559750  73.7970090   8.0063250
  36.4268060  73.4234990   6.8256390  34.0126190  69.8908180  13.5263980
  34.6498410  70.5042320  13.8923170  34.1601080  69.9268840  12.5813210
  36.6289230  72.5532630   2.9343830  35.8340730  72.4877750   3.4636740
  36.8332510  73.4883270   2.9229180  33.5707650  86.5924180   6.9282220
  34.1666720  86.2708750   6.2516640  33.8285800  86.1196000   7.7195490
  19.8705850  69.8522490  12.9119660  19.5220670  70.3086310  13.6777840
  19.5393550  68.9579620  12.9942090  21.4770220  83.0242090  17.0772850
  21.4339850  82.6535000  17.9587310  21.6081230  83.9619660  17.2174670
  25.1776250  84.5801680  12.6782570  24.9367610  84.8476240  11.7913090
  26.1178890  84.7507410  12.7333430  27.3830670  71.0434370  16.4339080
  27.3219560  71.6356200  17.1834490  28.3231050  70.9360330  16.2889340
  30.0205230  70.7004430  16.0731370  30.6345640  71.0183720  15.4112450
  30.5654790  70.2153020  16.6927230  36.4380410  86.5996060  13.4793210
  35.9438690  86.9964930  12.7620340  35.8293700  85.9745270  13.8730490
  20.5426490  69.3798690  16.1870430  21.0909480  69.1986740  15.4236540
  20.6081800  68.5892800  16.7226740  21.3158250  85.9704340  14.1970630
  20.7218570  85.8389040  14.9360670  21.3082090  85.1342480  13.7312730
  30.7613270  69.2636570  12.4000660  29.8873110  69.5971680  12.1973590
  30.6524020  68.7909750  13.2252530  31.6685250  71.4707440  13.7842380
  31.3398610  70.6559200  13.4044110  32.6167550  71.4277250  13.6608070
  34.1219860  87.2419480  10.7579950  33.6622830  87.9935290  10.3837970
  33.4932320  86.5225950  10.6994750  20.9470480  83.3362720  13.1478670
  20.2204540  82.7168010  13.0804620  21.0079630  83.7303330  12.2776750
  24.5515580  85.5507720   9.9328080  25.0680600  84.9395080   9.4076340
  25.2012960  86.0536500  10.4239090  27.2911080  86.4416210  10.7597060
  27.5788890  86.1870510   9.8830070  27.8034300  85.8893570  11.3502630
  28.5088090  70.1806410  11.3393570  27.7259880  70.6551910  11.6190330
  28.2151020  69.2761240  11.2306750  33.0609160  70.8829510   9.3842660
  33.5017250  70.8274610   8.5364260  32.7916750  71.7987520   9.4552840
  34.9247730  70.5144750   7.3951480  34.8636130  69.5705970   7.2482500
  35.7039760  70.6224840   7.9404940  19.2300480  86.6537110   6.3575430
  19.0622520  86.0207790   7.0557320  18.3634990  86.8596510   6.0069620
  19.8528500  70.4853890   3.8607290  20.6107860  70.5982770   3.2871320
  19.3905670  71.3223090   3.8150720  26.3942310  72.5993160   6.8509600
  25.5816820  72.2250050   6.5105480  26.8983950  71.8438240   7.1530790
  30.8967290  69.2635610   8.0892670  31.4996660  69.8355820   8.5641190
  30.1560280  69.8275050   7.8666570  34.0401890  69.6657170   3.3632950
  34.2352520  70.5640620   3.6300380  33.2531760  69.4344250   3.8565900
  20.8363180  85.3470340   3.8025570  20.3110800  85.7278370   3.0987530
  20.7607760  85.9721110   4.5235280  22.2253650  71.0117940   2.4009260
  22.7546410  70.2247740   2.2717210  22.8581970  71.6909130   2.6344790
  24.4191490  70.7493080   5.4554650  23.7894230  70.0480390   5.6224780
  23.8796630  71.5097210   5.2387810  27.3583440  87.3632310  18.1265260
  28.2850750  87.1276580  18.1701220  27.3433870  88.1904310  17.6451290
  35.5928500  86.9057880   5.1239510  35.7680690  86.2195620   4.4800430
  34.8950070  87.4304930   4.7316180  24.5447050  70.0277060  17.8907140
  24.2631320  70.5310660  17.1267960  24.9266750  69.2298810  17.5249270
  23.4356150  87.2952720   2.6774820  24.1674970  87.0112000   2.1298710
  23.6949820  87.0566000   3.5674200  22.5970940  83.4117450   2.6821150
  21.9679820  83.8802550   3.2306980  22.7118770  82.5666670   3.1167340
  31.1462510  69.4430640  18.4687610  31.0327960  69.7625250  19.3639130
  31.9632250  69.8443150  18.1724890  33.9261000  86.5902170  17.9506300
  34.7186320  86.0951400  17.7432260  34.2194150  87.2692310  18.5581910
  30.0520660  58.6879620  45.1552820  29.9714710  57.7734230  44.8844530
  29.6385080  59.1846690  44.4492530  28.1838700  60.4658640  47.0362090
  27.4080800  59.9859080  47.3260660  28.8351630  59.7864290  46.8618250
  22.2004530  60.7778450  47.9137850  21.3689410  60.5227160  48.3134360
  22.8085510  60.8489220  48.6495770  32.2046130  64.8718830  45.8161220
  31.7427660  64.1006070  46.1448390  33.0171680  64.8984900  46.3213670
  22.1805790  64.8118540  48.1095870  22.4833830  63.9216280  47.9306090
  22.9249380  65.3688760  47.8818120  20.6096480  55.7380340  41.6980240
  19.7213180  56.0796310  41.5960120  20.8937670  55.5380660  40.8061070
  18.5729490  58.3385990  47.5819940  19.1445600  57.5708190  47.5823580
  18.5731030  58.6374750  46.6726550  28.4309440  67.1576840  45.4365210
  27.8120880  67.6134340  44.8659650  29.2861220  67.3128300  45.0354910
  27.6247690  63.1415830  47.0432250  27.5555970  62.2005770  46.8821380
  28.3867550  63.2317240  47.6154820  19.8154360  53.7470350  49.3688870
  19.6357200  52.8496100  49.6491630  19.4134440  54.2942220  50.0435820
  28.6552860  55.9486210  47.2701180  29.0317680  55.0758090  47.1574850
  28.5572370  56.2844910  46.3791620  22.7857870  54.3211840  42.7318620
  22.8924620  55.2215570  43.0387380  21.8750230  54.2729810  42.4413270
  32.4376980  53.4436650  44.2029520  33.2586600  52.9533220  44.2455000
  32.4711060  54.0334310  44.9561360  20.4341030  56.2430850  47.9771210
  21.1151140  56.5069220  48.5958610  20.1189080  55.4031720  48.3109220
  24.6265600  57.2898210  47.0643800  25.1343820  57.7879180  47.7048820
  25.1578840  56.5133410  46.8883160  36.7276530  55.4603400  50.7673150
  36.0228700  55.8485110  50.2488260  36.9934450  56.1553690  51.3694080
  22.9101700  51.9296770  51.3307220  22.9120140  52.4469160  50.5253120
  22.0806010  51.4526950  51.3077150  29.2972790  62.0416080  42.8297120
  28.6790060  62.5065530  42.2659840  29.8096040  62.7343560  43.2466630
  24.1604550  61.5691950  49.5080720  23.8273930  62.1960870  50.1501790
  24.3371230  62.0953830  48.7282390  32.6738460  55.3837030  46.9757060
  31.9694030  55.6721920  47.5560170  33.0350620  56.1937140  46.6156620
  22.5917030  53.6406730  49.3377670  22.9333840  54.4848780  49.0431540
  21.6532840  53.7890470  49.4543010  23.3723650  63.5372750  51.3229900
  23.9897650  64.2123830  51.0414350  22.5116770  63.9460730  51.2317400
  18.6655990  62.7272610  40.2036750  18.2883970  63.2159710  39.4721650
  18.9229060  63.3997890  40.8343280  34.2901240  65.0012160  49.2384540
  33.6064760  65.6711270  49.2301210  34.8295530  65.1992810  48.4729400
  35.7425380  54.8291820  47.3666270  34.7950290  54.8630800  47.4981700
  36.0675370  55.6430770  47.7515630  26.2744920  51.1289000  45.6622260
  26.5819900  50.5735890  44.9457760  25.3445620  51.2633460  45.4795250
  31.8259980  66.8456290  47.9529720  31.8387140  66.4418580  47.0851980
  31.2735200  67.6203580  47.8491150  33.1205400  63.5672510  43.0419890
  33.0101730  62.6246840  43.1669310  33.1173650  63.9288150  43.9282650
  31.2245420  61.7486130  49.2812330  31.6414210  61.5346240  48.4465790
  31.9485240  62.0058920  49.8520950  28.6625680  59.1937830  42.3982380
  27.7354960  59.1275210  42.6270850  28.8150500  60.1317960  42.2837620
  28.6494760  55.4654830  39.3949540  27.7098430  55.6268790  39.4802000
  28.9678020  56.1840510  38.8485530  35.1707520  60.1473350  49.3728570
  34.3426150  60.2166440  48.8978700  35.7658000  60.7327660  48.9044400
  32.6922970  60.7558130  42.9017630  32.0735390  60.4177680  42.2543930
  32.6747420  60.1117890  43.6096820  32.1349530  56.9342670  50.3183440
  31.7220710  57.7596380  50.5723430  31.4025480  56.3487710  50.1259800
  24.2682320  59.7202570  45.1802110  23.8639320  59.0079820  44.6848010
  24.3545440  59.3755810  46.0690150  24.7364020  63.4070130  47.3441320
  24.4392310  62.8015600  46.6649100  25.6863840  63.4447440  47.2330680
  22.9810940  56.4945780  48.9601150  23.5325530  56.6041120  48.1854400
  23.4954450  56.8683380  49.6756380  32.8249630  66.9802000  51.0064420
  32.3480190  67.7874190  50.8137030  32.1411420  66.3280330  51.1590630
  30.8687670  59.9944940  39.9090380  31.3080950  59.1567370  39.7628200
  31.5816090  60.6274340  39.9954520  22.6553670  60.0165140  52.5706490
  22.5161440  60.8887940  52.9393890  21.7735030  59.6737950  52.4254430
  28.9783050  64.9341010  43.8771620  29.4178960  65.6765340  43.4627010
  28.9169940  65.1767580  44.8010580  34.4504810  51.2487750  38.2231420
  34.1377470  51.3414580  39.1230490  35.2117280  51.8268780  38.1728850
  20.9686950  58.6147550  42.6808760  20.8484550  59.3409640  42.0690030
  20.6587840  57.8450460  42.2036670  18.6072320  61.7862690  48.4877400
  18.6852740  61.9211460  47.5433120  19.2214000  61.0778580  48.6805520
  19.8519950  63.4862880  44.8983580  19.4448030  63.6277470  44.0437180
  20.7432960  63.2023040  44.6954790  35.8082090  63.9326790  53.2355820
  35.9345150  63.6938670  52.3173000  35.8503470  63.1011330  53.7077900
  29.6698830  67.6354790  51.8050630  30.1843500  67.5462800  52.6073060
  28.8267910  67.9814490  52.0978540  31.6453230  67.9210130  41.2334630
  31.4854370  67.6313070  42.1316460  31.4799940  67.1450260  40.6979860
  24.1241610  67.7008660  43.0106250  23.9484090  66.7844200  42.7974050
  23.2697350  68.0595950  43.2504050  31.3479360  65.4297690  39.7932630
  30.6544520  65.4274980  39.1334910  32.0902220  65.0057010  39.3626800
  30.9129290  67.0560400  43.8681120  31.3686240  66.2749780  44.1819740
  31.2521810  67.7667220  44.4122300  35.6606100  55.9859250  54.2005560
  35.0450370  56.4938920  53.6721020  35.3402520  55.0857580  54.1431500
  18.6631840  62.8276860  51.0271860  18.8262880  62.3582220  50.2091230
  19.1284290  62.3200420  51.6920700  23.4350610  51.9582620  46.0632430
  22.9918760  52.7392160  45.7316950  23.9935600  52.2812510  46.7703370
  27.7220420  54.8251140  51.6667750  27.2599790  55.0334160  52.4787690
  27.3198530  54.0110490  51.3638420  32.7224930  56.0460090  52.7964410
  31.8718520  55.7465840  53.1173480  32.5626720  56.2902100  51.8848230
  26.5509430  51.5793320  40.9438260  25.9263610  51.5753190  41.6691570
  26.4639550  50.7124280  40.5474230  25.4726510  52.5029950  47.9222030
  25.7698840  53.4092780  47.8414050  26.0212070  52.0148730  47.3081600
  23.2264830  57.0816190  43.7913680  23.0005750  56.8653360  44.6960300
  22.4457360  57.5144650  43.4459650  30.4562590  57.0879560  42.3904330
  29.8571480  57.8115360  42.2067950  31.0042200  57.0256340  41.6080780
  29.0627460  55.7243100  44.4207610  29.4557030  56.0415300  43.6076300
  29.4244310  54.8454980  44.5352130  20.7974580  54.3915440  52.6107730
  20.4037970  55.2390650  52.8180510  20.1092980  53.7541810  52.8016370
  18.0991630  52.3143900  46.6437810  17.8104680  52.8846760  47.3562790
  18.8437390  51.8348350  47.0069040  18.2861860  56.2564020  37.8540530
  18.2036530  57.1994780  37.9955520  17.9344920  56.1138930  36.9752880
  29.6482600  58.3148850  48.5158390  28.9163720  58.8235660  48.8648490
  29.2506940  57.4978830  48.2147170  26.0859990  54.9903050  46.9210880
  26.0896050  54.5493000  46.0715420  26.9811110  55.3120380  47.0282700
  21.9362370  54.8729540  45.8805090  21.5962420  55.3504770  46.6372140
  21.1739690  54.4194660  45.5206190  26.1480140  55.9915130  39.9117640
  26.2692960  55.9501610  40.8603460  25.7628650  56.8539280  39.7564370
  30.1108510  53.7682530  47.9281330  30.1281250  54.2191180  48.7723180
  29.8624090  52.8688170  48.1414770  25.1601640  58.3016270  39.3100940
  24.5918540  57.8534520  38.6836850  25.8690640  58.6609050  38.7766090
  20.2370820  62.2028290  53.1867670  19.8525610  61.5621960  53.7850630
  20.5483010  62.9064410  53.7562400  26.3867960  59.0504830  48.6676290
  26.7538090  58.5763400  49.4137630  26.1973020  59.9246400  49.0084630
  19.2508450  53.7948520  44.7969760  18.9655370  53.4304190  45.6348380
  19.1887310  53.0628980  44.1832900  24.1767330  58.0913470  50.9860500
  23.8724400  58.9705450  51.2110860  25.1313790  58.1513260  51.0217940
  22.7049120  62.2974460  41.5827350  21.9311380  61.7572080  41.4226070
  23.4343750  61.7781070  41.2445110  33.4637100  61.2939820  47.3753740
  34.1836220  61.7895110  46.9849850  33.2618920  60.6157710  46.7307610
  28.9247040  52.6877780  41.5183130  28.1111650  52.1890950  41.4428440
  28.7308990  53.5276030  41.1019480  28.8455900  61.3648880  53.2622740
  28.7793210  60.4444550  53.0080330  28.2161040  61.4624320  53.9767380
  31.6395430  57.0597430  39.8145290  32.5275050  57.3714660  39.6396630
  31.6100520  56.1869680  39.4225870  22.7486520  61.9654840  45.2206160
  23.2665190  61.1623100  45.1663050  22.2970540  61.9033980  46.0622990
  27.6356020  63.2321120  40.4933460  27.9771720  63.9763350  39.9976780
  26.8068730  63.5452240  40.8558290  20.2331060  58.9316210  52.1331860
  19.8746000  59.5970060  52.7205200  19.9385620  58.0999760  52.5044480
  28.7772630  64.1869450  53.0126540  28.7917170  63.2550410  52.7945450
  28.0697730  64.2729210  53.6516310  33.9109700  58.3709270  39.2825150
  33.8273420  58.8023490  38.4321590  34.6303890  58.8307620  39.7151970
  34.9883840  60.8276790  52.3595120  34.2632030  61.4205570  52.1624510
  35.5159300  60.8200330  51.5608490  34.9396950  65.2251530  42.0107280
  34.2973110  64.5707150  42.2851000  34.5527610  65.6306620  41.2347950
  30.5183430  62.5536960  45.8578970  30.8707250  61.9565090  45.1980340
  29.6345760  62.2281190  46.0287220  26.6046710  63.3134650  43.2649380
  27.2917840  63.8603860  43.6456970  25.8179130  63.8575380  43.2998990
  18.7439110  58.9307470  38.7566460  19.6133960  59.2132270  39.0402380
  18.2529430  59.7443340  38.6415270  25.9073920  60.3180680  42.8774740
  26.3636700  61.1285930  43.1034930  25.5562130  60.0003820  43.7093230
  28.2106530  65.8287020  50.1067040  28.8548750  66.0346400  50.7840460
  28.5735970  65.0675420  49.6537890  21.8085700  50.6618330  43.3497260
  21.6800330  50.6536230  44.2982180  20.9847720  51.0001420  42.9988270
  29.4838610  63.8319370  48.8244490  30.1260840  63.1312530  48.9376660
  30.0087960  64.6117810  48.6441380  33.3294330  64.1167990  38.5483630
  33.1031910  63.3998430  39.1408270  32.9390530  63.8680430  37.7105380
  31.2576230  64.6314270  52.0280550  31.5932470  65.2180960  52.7058470
  30.3376570  64.5006980  52.2578340  19.1110360  68.1434850  39.3228090
  19.4708000  68.7424190  38.6685360  18.9702700  68.6894740  40.0963120
  18.8079630  52.4209450  52.8103960  18.0938150  52.6206370  53.4156570
  19.2274670  51.6449020  53.1818760  32.9110580  62.0339930  40.2097790
  32.6232280  62.4952620  40.9975670  33.7062750  61.5737700  40.4782010
  19.0952220  66.4089710  53.7970490  19.2043340  65.4684450  53.6565880
  18.4432780  66.6744460  53.1484220  25.1278980  65.5266050  40.1401760
  25.1189080  66.2595740  39.5246270  24.2077340  65.2797630  40.2328720
  20.7285620  60.7480940  40.8848520  20.1213570  61.4879840  40.8943820
  21.2034970  60.8380300  40.0586720  30.3018410  54.9131760  50.5605410
  30.6699230  54.0926970  50.8884980  29.4416610  54.9733650  50.9761060
  33.6680440  53.8688700  41.3692970  33.0393600  53.9734370  40.6551200
  33.1732360  54.0885480  42.1586850  28.1138580  65.5894290  38.8026950
  28.2150560  65.3858280  37.8728930  27.2140320  65.3352570  39.0074730
  25.6364470  56.1474650  42.7850850  24.9280620  56.6160990  43.2264460
  25.9208950  55.4896660  43.4196040  27.2620400  57.5671350  50.7843380
  27.7605650  58.0417170  51.4495230  27.4043350  56.6434870  50.9913410
  29.6679900  52.8725310  44.2246640  29.5447680  52.8911440  43.2756150
  30.6164460  52.9204250  44.3445040  26.7556690  68.1080610  43.4974620
  27.0098190  68.0702000  42.5753990  25.8069170  67.9813940  43.4902870
  23.8399490  54.4559730  40.1601560  24.6890020  54.8929880  40.0941750
  23.4730760  54.7679990  40.9873620  34.4687260  53.7839310  51.6271770
  33.9660860  54.5244710  51.9665580  35.2843920  54.1723310  51.3108560
  32.7609270  59.0272490  45.0733130  31.8199410  59.0422720  45.2480820
  33.0753340  58.2408450  45.5193430  22.7390910  60.7092090  38.6337090
  23.5054180  60.5973450  39.1962520  22.8165600  60.0130060  37.9813860
  21.4337670  58.1417160  39.3169980  21.5141260  57.1944670  39.4287380
  22.3257420  58.4724040  39.4230640  34.7634850  66.1981340  46.7487390
  34.8882270  67.0212510  47.2211200  35.6300410  65.9872070  46.4011540
  22.2352380  68.2912550  46.4204520  22.9714860  67.7428010  46.6913090
  22.6193300  69.1568560  46.2810510  19.1197860  64.3586120  42.2946030
  18.1937640  64.6007260  42.2851440  19.5854290  65.1860380  42.1730780
  25.3454690  67.4642860  38.2430090  26.1383300  67.7531690  37.7911880
  24.8259040  67.0335030  37.5642570  34.3984860  66.6912990  39.6666830
  34.1126370  66.2778130  38.8521010  34.2004410  67.6200700  39.5467350
  25.8632090  62.6846270  38.1072440  25.7582730  62.0698620  38.8333820
  25.6956310  62.1612160  37.3235450  26.0146410  61.3703070  54.0861670
  25.2492080  61.9388070  54.0016340  26.1962370  61.0779280  53.1929900
  29.1034820  61.7466300  38.7114430  28.5544920  62.1935600  39.3557170
  29.7254080  61.2415550  39.2352100  24.7709940  60.7057220  40.6079730
  25.1926360  60.5397090  41.4511120  24.8960780  59.8957450  40.1134870
  22.9337360  56.6853770  53.4150710  22.4033820  56.1944720  52.7874050
  23.6025430  57.1137970  52.8808640  27.2837580  59.7294830  37.8556830
  27.8043240  59.0143850  37.4897980  27.9305980  60.3680700  38.1557340
  31.8315420  61.1523230  53.1791900  32.2456440  61.3068310  54.0282320
  30.8966420  61.2778450  53.3417680  23.4209660  53.6516140  53.4948000
  23.3266530  53.0336890  52.7698870  22.8407050  54.3782430  53.2677910
  26.1871100  52.2089380  50.5275390  25.7388400  52.2313640  49.6820940
  25.5536300  51.8108400  51.1245690  26.5930650  61.1043710  51.1487830
  27.0118760  61.9476440  50.9764070  25.6739280  61.2415750  50.9194610
  28.9294550  58.8359890  52.5325670  29.0490760  58.2401030  53.2720510
  29.7888550  58.8729580  52.1126970  31.2682450  59.3897080  51.1088180
  30.7417670  59.9139700  50.5053320  31.6113790  60.0224470  51.7397910
  23.6668840  56.7790450  37.5537890  23.4657900  55.9157810  37.9151230
  23.4960890  56.6923810  36.6159490  24.4438070  67.4096720  52.2645560
  23.9059160  68.1342780  51.9454260  24.6972030  66.9327060  51.4742900
  31.1457150  51.5898680  40.0824770  31.4259440  50.7466580  40.4384190
  30.3722880  51.8221790  40.5963520  22.4651640  53.8791070  37.5415770
  22.7677540  53.8858500  36.6334920  23.2046230  53.5288930  38.0383430
  27.3000280  68.6447930  52.5232210  27.2258980  69.5483070  52.8304580
  26.3979120  68.3259830  52.4954280  25.6836570  52.8225690  38.5271970
  25.3358570  52.1449680  37.9474420  25.8849340  52.3615200  39.3415360
  27.8485610  67.8106440  40.1458570  28.7436400  68.1491410  40.1677330
  27.8803240  67.0885850  39.5182850  21.4881770  63.1833490  38.3745570
  21.9256640  63.7263160  39.0303150  21.9729500  62.3580440  38.3841910
  18.7027570  65.9722520  45.8265830  19.0330580  65.1043580  45.5944470
  19.1318570  66.1781040  46.6570790  23.2989490  64.3031530  43.4867800
  22.9985030  64.1796500  44.3871710  23.1926980  63.4440120  43.0783530
  19.1917780  66.8393110  48.5647460  18.7548770  67.0193910  49.3971610
  19.7595460  67.5967730  48.4229180  34.8279960  66.3410110  52.8524770
  34.2281950  66.4002670  52.1088690  34.9573860  65.4015090  52.9821620
  36.0681410  64.0827930  38.1894480  35.2374370  64.1504580  38.6601710
  36.2453240  64.9732050  37.8861340  35.5237870  60.8275410  40.6928680
  36.2856780  61.3972060  40.7988370  35.5392240  60.2602610  41.4636990
  19.0242210  59.3513340  44.9236340  18.3691050  59.0824980  44.2796040
  19.8620160  59.2417820  44.4738320  36.5297840  61.6825510  45.5370610
  36.9006670  60.8992830  45.1306580  37.1699770  62.3714610  45.3587910
  33.5131600  63.0662090  50.9500930  32.6991440  63.4959250  51.2126720
  33.9205800  63.6780500  50.3369980  35.5757040  61.1209780  37.8501200
  35.8505880  62.0288660  37.7220420  35.3867780  61.0572310  38.7863190
  31.9732650  54.1454630  39.1454830  32.3917530  53.9585610  38.3051490
  31.6668710  53.2933680  39.4557760  35.4722380  59.0578770  42.8430630
  35.0965980  58.2906700  42.4111920  34.7425500  59.4401470  43.3305560
  20.0618140  59.7365910  49.4639680  20.4291180  59.6493310  50.3435700
  19.4928960  58.9732460  49.3646540  34.8622000  58.2050290  52.4770150
  34.6308090  57.9763040  51.5768100  35.1226550  59.1249840  52.4315040
  19.6134140  56.6475000  53.3698100  18.7190190  56.6141760  53.7091810
  20.1531690  56.8461790  54.1349350  18.2380290  56.5612270  40.8661670
  17.3344370  56.8242470  40.6913330  18.7220910  56.8323440  40.0861630
  34.7473340  57.2836260  46.1437870  35.2710820  56.7898910  45.5128040
  35.3332760  57.4186620  46.8885440  34.9263060  57.3676130  49.6657420
  33.9765770  57.3339670  49.7802410  35.1076070  58.2776240  49.4307190
  20.7807500  55.6177810  38.7756050  21.4899200  55.1961030  38.2903330
  20.0647440  55.6853040  38.1439400  20.4281660  51.6717140  37.8158700
  21.1509790  52.2126080  38.1339920  20.7006180  51.3980560  36.9400240
  34.2373310  56.5409610  42.0830280  34.7332430  56.3080480  42.8679160
  34.0389380  55.7021450  41.6667920  20.1173850  50.9223330  47.7181320
  20.7650040  50.3720710  47.2776480  20.5375690  51.1766480  48.5397130
  35.6660470  55.1770560  44.6167960  35.5559750  55.0226600  45.5550230
  36.4268060  54.6491500  44.3743370  34.0126190  51.1164690  51.0750960
  34.6498410  51.7298830  51.4410150  34.1601080  51.1525350  50.1300190
  36.5550740  53.0078480  37.8574100  37.4800050  52.8759660  37.6492390
  36.5326530  53.0871300  38.8110550  36.6289230  53.7789140  40.4830810
  35.8340730  53.7134260  41.0123720  36.8332510  54.7139780  40.4716160
  33.5707650  67.8180690  44.4769200  34.1666720  67.4965260  43.8003620
  33.8285800  67.3452510  45.2682470  19.8705850  51.0779000  50.4606640
  19.5220670  51.5342820  51.2264820  19.5393550  50.1836130  50.5429070
  25.1776250  65.8058190  50.2269550  24.9367610  66.0732750  49.3400070
  26.1178890  65.9763920  50.2820410  36.4380410  67.8252570  51.0280190
  35.9438690  68.2221440  50.3107320  35.8293700  67.2001780  51.4217470
  21.3158250  67.1960850  51.7457610  20.7218570  67.0645550  52.4847650
  21.3082090  66.3598990  51.2799710  30.7613270  50.4893080  49.9487640
  29.8873110  50.8228190  49.7460570  30.6524020  50.0166260  50.7739510
  31.6685250  52.6963950  51.3329360  31.3398610  51.8815710  50.9531090
  32.6167550  52.6533760  51.2095050  34.1219860  68.4675990  48.3066930
  33.6622830  69.2191800  47.9324950  33.4932320  67.7482460  48.2481730
  20.9470480  64.5619230  50.6965650  20.2204540  63.9424520  50.6291600
  21.0079630  64.9559840  49.8263730  24.5515580  66.7764230  47.4815060
  25.0680600  66.1651590  46.9563320  25.2012960  67.2793010  47.9726070
  27.2911080  67.6672720  48.3084040  27.5788890  67.4127020  47.4317050
  27.8034300  67.1150080  48.8989610  28.5088090  51.4062920  48.8880550
  27.7259880  51.8808420  49.1677310  28.2151020  50.5017750  48.7793730
  33.0609160  52.1086020  46.9329640  33.5017250  52.0531120  46.0851240
  32.7916750  53.0244030  47.0039820  34.9247730  51.7401260  44.9438460
  34.8636130  50.7962480  44.7969480  35.7039760  51.8481350  45.4891920
  19.2300480  67.8793620  43.9062410  19.0622520  67.2464300  44.6044300
  18.3634990  68.0853020  43.5556600  19.8528500  51.7110400  41.4094270
  20.6107860  51.8239280  40.8358300  19.3905670  52.5479600  41.3637700
  26.3942310  53.8249670  44.3996580  25.5816820  53.4506560  44.0592460
  26.8983950  53.0694750  44.7017770  30.8967290  50.4892120  45.6379650
  31.4996660  51.0612330  46.1128170  30.1560280  51.0531560  45.4153550
  34.0401890  50.8913680  40.9119930  34.2352520  51.7897130  41.1787360
  33.2531760  50.6600760  41.4052880  20.8363180  66.5726850  41.3512550
  20.3110800  66.9534880  40.6474510  20.7607760  67.1977620  42.0722260
  22.2253650  52.2374450  39.9496240  22.7546410  51.4504250  39.8204190
  22.8581970  52.9165640  40.1831770  24.4191490  51.9749590  43.0041630
  23.7894230  51.2736900  43.1711760  23.8796630  52.7353720  42.7874790
  35.5928500  68.1314390  42.6726490  35.7680690  67.4452130  42.0287410
  34.8950070  68.6561440  42.2803160  23.4356150  68.5209230  40.2261800
  24.1674970  68.2368510  39.6785690  23.6949820  68.2822510  41.1161180
  22.5970940  64.6373960  40.2308130  21.9679820  65.1059060  40.7793960
  22.7118770  63.7923180  40.6654320  22.2004530  60.7778450  29.1394360
  21.3689410  60.5227160  29.5390870  22.8085510  60.8489220  29.8752280
  32.2046130  64.8718830  27.0417730  31.7427660  64.1006070  27.3704900
  33.0171680  64.8984900  27.5470180  22.1805790  64.8118540  29.3352380
  22.4833830  63.9216280  29.1562600  22.9249380  65.3688760  29.1074630
  20.6096480  55.7380340  22.9236750  19.7213180  56.0796310  22.8216630
  20.8937670  55.5380660  22.0317580  18.5729490  58.3385990  28.8076450
  19.1445600  57.5708190  28.8080090  18.5731030  58.6374750  27.8983060
  28.4309440  67.1576840  26.6621720  27.8120880  67.6134340  26.0916160
  29.2861220  67.3128300  26.2611420  27.6247690  63.1415830  28.2688760
  27.5555970  62.2005770  28.1077890  28.3867550  63.2317240  28.8411330
  19.8154360  53.7470350  30.5945380  19.6357200  52.8496100  30.8748140
  19.4134440  54.2942220  31.2692330  20.4341030  56.2430850  29.2027720
  21.1151140  56.5069220  29.8215120  20.1189080  55.4031720  29.5365730
  36.7276530  55.4603400  31.9929660  36.0228700  55.8485110  31.4744770
  36.9934450  56.1553690  32.5950590  22.9101700  51.9296770  32.5563730
  22.9120140  52.4469160  31.7509630  22.0806010  51.4526950  32.5333660
  29.2972790  62.0416080  24.0553630  28.6790060  62.5065530  23.4916350
  29.8096040  62.7343560  24.4723140  24.1604550  61.5691950  30.7337230
  23.8273930  62.1960870  31.3758300  24.3371230  62.0953830  29.9538900
  22.5917030  53.6406730  30.5634180  22.9333840  54.4848780  30.2688050
  21.6532840  53.7890470  30.6799520  23.3723650  63.5372750  32.5486410
  23.9897650  64.2123830  32.2670860  22.5116770  63.9460730  32.4573910
  18.6655990  62.7272610  21.4293260  18.2883970  63.2159710  20.6978160
  18.9229060  63.3997890  22.0599790  34.2901240  65.0012160  30.4641050
  33.6064760  65.6711270  30.4557720  34.8295530  65.1992810  29.6985910
  31.8259980  66.8456290  29.1786230  31.8387140  66.4418580  28.3108490
  31.2735200  67.6203580  29.0747660  31.2245420  61.7486130  30.5068840
  31.6414210  61.5346240  29.6722300  31.9485240  62.0058920  31.0777460
  28.6494760  55.4654830  20.6206050  27.7098430  55.6268790  20.7058510
  28.9678020  56.1840510  20.0742040  32.1349530  56.9342670  31.5439950
  31.7220710  57.7596380  31.7979940  31.4025480  56.3487710  31.3516310
  24.7364020  63.4070130  28.5697830  24.4392310  62.8015600  27.8905610
  25.6863840  63.4447440  28.4587190  22.9810940  56.4945780  30.1857660
  23.5325530  56.6041120  29.4110910  23.4954450  56.8683380  30.9012890
  32.8249630  66.9802000  32.2320930  32.3480190  67.7874190  32.0393540
  32.1411420  66.3280330  32.3847140  23.8282450  63.1451820  35.2205630
  22.9310980  63.3691790  35.4679030  23.8535320  63.2686760  34.2717030
  30.8687670  59.9944940  21.1346890  31.3080950  59.1567370  20.9884710
  31.5816090  60.6274340  21.2211030  22.6553670  60.0165140  33.7963000
  22.5161440  60.8887940  34.1650400  21.7735030  59.6737950  33.6510940
  28.9783050  64.9341010  25.1028130  29.4178960  65.6765340  24.6883520
  28.9169940  65.1767580  26.0267090  24.4534020  65.9586840  36.0048150
  24.4249450  66.3629790  35.1376580  24.2898990  65.0297200  35.8419750
  34.4504810  51.2487750  19.4487930  34.1377470  51.3414580  20.3487000
  35.2117280  51.8268780  19.3985360  20.9686950  58.6147550  23.9065270
  20.8484550  59.3409640  23.2946540  20.6587840  57.8450460  23.4293180
  36.4048840  66.7413940  37.3012320  36.8808560  67.2196830  37.9801400
  37.0256000  66.6731430  36.5757820  18.6072320  61.7862690  29.7133910
  18.6852740  61.9211460  28.7689630  19.2214000  61.0778580  29.9062030
  19.8519950  63.4862880  26.1240090  19.4448030  63.6277470  25.2693690
  20.7432960  63.2023040  25.9211300  35.8082090  63.9326790  34.4612330
  35.9345150  63.6938670  33.5429510  35.8503470  63.1011330  34.9334410
  29.6698830  67.6354790  33.0307140  30.1843500  67.5462800  33.8329570
  28.8267910  67.9814490  33.3235050  31.6453230  67.9210130  22.4591140
  31.4854370  67.6313070  23.3572970  31.4799940  67.1450260  21.9236370
  24.1241610  67.7008660  24.2362760  23.9484090  66.7844200  24.0230560
  23.2697350  68.0595950  24.4760560  31.3479360  65.4297690  21.0189140
  30.6544520  65.4274980  20.3591420  32.0902220  65.0057010  20.5883310
  30.9129290  67.0560400  25.0937630  31.3686240  66.2749780  25.4076250
  31.2521810  67.7667220  25.6378810  35.6606100  55.9859250  35.4262070
  35.0450370  56.4938920  34.8977530  35.3402520  55.0857580  35.3688010
  18.6631840  62.8276860  32.2528370  18.8262880  62.3582220  31.4347740
  19.1284290  62.3200420  32.9177210  27.7220420  54.8251140  32.8924260
  27.2599790  55.0334160  33.7044200  27.3198530  54.0110490  32.5894930
  32.7224930  56.0460090  34.0220920  31.8718520  55.7465840  34.3429990
  32.5626720  56.2902100  33.1104740  29.8174640  57.5461840  36.1219710
  30.1428050  56.7125590  35.7821940  30.6054970  58.0690360  36.2698040
  26.5509430  51.5793320  22.1694770  25.9263610  51.5753190  22.8948080
  26.4639550  50.7124280  21.7730740  25.6664040  57.9801770  35.6830460
  25.5707640  57.0396500  35.5330860  26.5096020  58.2016840  35.2878530
  20.7974580  54.3915440  33.8364240  20.4037970  55.2390650  34.0437020
  20.1092980  53.7541810  34.0272880  27.3719630  54.4750410  36.9060980
  26.6817950  54.2822610  37.5407070  28.1151930  54.7585050  37.4385280
  18.0991630  52.3143900  27.8694320  17.8104680  52.8846760  28.5819300
  18.8437390  51.8348350  28.2325550  18.2861860  56.2564020  19.0797040
  18.2036530  57.1994780  19.2212030  17.9344920  56.1138930  18.2009390
  26.1480140  55.9915130  21.1374150  26.2692960  55.9501610  22.0859970
  25.7628650  56.8539280  20.9820880  25.1601640  58.3016270  20.5357450
  24.5918540  57.8534520  19.9093360  25.8690640  58.6609050  20.0022600
  33.5379260  51.1814710  34.9924220  33.8625030  50.4504370  35.5182200
  33.5735770  50.8628350  34.0905210  20.2370820  62.2028290  34.4124180
  19.8525610  61.5621960  35.0107140  20.5483010  62.9064410  34.9818910
  19.2508450  53.7948520  26.0226270  18.9655370  53.4304190  26.8604890
  19.1887310  53.0628980  25.4089410  24.1767330  58.0913470  32.2117010
  23.8724400  58.9705450  32.4367370  25.1313790  58.1513260  32.2474450
  22.7049120  62.2974460  22.8083860  21.9311380  61.7572080  22.6482580
  23.4343750  61.7781070  22.4701620  28.8455900  61.3648880  34.4879250
  28.7793210  60.4444550  34.2336840  28.2161040  61.4624320  35.2023890
  31.6395430  57.0597430  21.0401800  32.5275050  57.3714660  20.8653140
  31.6100520  56.1869680  20.6482380  22.7486520  61.9654840  26.4462670
  23.2665190  61.1623100  26.3919560  22.2970540  61.9033980  27.2879500
  27.6356020  63.2321120  21.7189970  27.9771720  63.9763350  21.2233290
  26.8068730  63.5452240  22.0814800  20.2331060  58.9316210  33.3588370
  19.8746000  59.5970060  33.9461710  19.9385620  58.0999760  33.7300990
  23.4344180  59.3900450  36.2427920  23.1344320  59.5357630  35.3455740
  24.2055420  58.8305740  36.1501310  28.7772630  64.1869450  34.2383050
  28.7917170  63.2550410  34.0201960  28.0697730  64.2729210  34.8772820
  33.9109700  58.3709270  20.5081660  33.8273420  58.8023490  19.6578100
  34.6303890  58.8307620  20.9408480  34.9883840  60.8276790  33.5851630
  34.2632030  61.4205570  33.3881020  35.5159300  60.8200330  32.7865000
  26.6046710  63.3134650  24.4905890  27.2917840  63.8603860  24.8713480
  25.8179130  63.8575380  24.5255500  18.7439110  58.9307470  19.9822970
  19.6133960  59.2132270  20.2658890  18.2529430  59.7443340  19.8671780
  28.2106530  65.8287020  31.3323550  28.8548750  66.0346400  32.0096970
  28.5735970  65.0675420  30.8794400  21.8085700  50.6618330  24.5753770
  21.6800330  50.6536230  25.5238690  20.9847720  51.0001420  24.2244780
  29.4838610  63.8319370  30.0501000  30.1260840  63.1312530  30.1633170
  30.0087960  64.6117810  29.8697890  33.3294330  64.1167990  19.7740140
  33.1031910  63.3998430  20.3664780  32.9390530  63.8680430  18.9361890
  31.2576230  64.6314270  33.2537060  31.5932470  65.2180960  33.9314980
  30.3376570  64.5006980  33.4834850  19.1110360  68.1434850  20.5484600
  19.4708000  68.7424190  19.8941870  18.9702700  68.6894740  21.3219630
  18.8079630  52.4209450  34.0360470  18.0938150  52.6206370  34.6413080
  19.2274670  51.6449020  34.4075270  32.9110580  62.0339930  21.4354300
  32.6232280  62.4952620  22.2232180  33.7062750  61.5737700  21.7038520
  19.0952220  66.4089710  35.0227000  19.2043340  65.4684450  34.8822390
  18.4432780  66.6744460  34.3740730  27.0864810  64.6805600  36.4225120
  26.7661680  63.9614840  36.9670810  26.4123170  65.3560670  36.4961180
  25.1278980  65.5266050  21.3658270  25.1189080  66.2595740  20.7502780
  24.2077340  65.2797630  21.4585230  20.7285620  60.7480940  22.1105030
  20.1213570  61.4879840  22.1200330  21.2034970  60.8380300  21.2843230
  30.3018410  54.9131760  31.7861920  30.6699230  54.0926970  32.1141490
  29.4416610  54.9733650  32.2017570  28.1138580  65.5894290  20.0283460
  28.2150560  65.3858280  19.0985440  27.2140320  65.3352570  20.2331240
  27.2620400  57.5671350  32.0099890  27.7605650  58.0417170  32.6751740
  27.4043350  56.6434870  32.2169920  26.7556690  68.1080610  24.7231130
  27.0098190  68.0702000  23.8010500  25.8069170  67.9813940  24.7159380
  23.8399490  54.4559730  21.3858070  24.6890020  54.8929880  21.3198260
  23.4730760  54.7679990  22.2130130  34.4687260  53.7839310  32.8528280
  33.9660860  54.5244710  33.1922090  35.2843920  54.1723310  32.5365070
  22.7390910  60.7092090  19.8593600  23.5054180  60.5973450  20.4219030
  22.8165600  60.0130060  19.2070370  21.4337670  58.1417160  20.5426490
  21.5141260  57.1944670  20.6543890  22.3257420  58.4724040  20.6487150
  22.2352380  68.2912550  27.6461030  22.9714860  67.7428010  27.9169600
  22.6193300  69.1568560  27.5067020  19.1197860  64.3586120  23.5202540
  18.1937640  64.6007260  23.5107950  19.5854290  65.1860380  23.3987290
  21.2410660  67.4758620  36.8346610  22.0423390  67.7970670  37.2482010
  20.7262480  67.1154200  37.5566520  25.3454690  67.4642860  19.4686600
  26.1383300  67.7531690  19.0168390  24.8259040  67.0335030  18.7899080
  30.0775290  63.5838490  36.7822020  29.4713450  63.6070090  36.0417770
  29.7729400  62.8521530  37.3189270  31.5075660  67.3118780  35.3931430
  32.4597410  67.2276800  35.3431670  31.3603880  67.9760490  36.0665220
  34.3984860  66.6912990  20.8923340  34.1126370  66.2778130  20.0777520
  34.2004410  67.6200700  20.7723860  18.9608470  59.9632080  35.7782660
  19.4647490  59.3839360  36.3498890  18.2215890  60.2472310  36.3159030
  25.8632090  62.6846270  19.3328950  25.7582730  62.0698620  20.0590330
  25.6956310  62.1612160  18.5491960  26.0146410  61.3703070  35.3118180
  25.2492080  61.9388070  35.2272850  26.1962370  61.0779280  34.4186410
  29.1034820  61.7466300  19.9370940  28.5544920  62.1935600  20.5813680
  29.7254080  61.2415550  20.4608610  33.1569760  63.1008400  35.8693200
  33.8979230  63.4384160  35.3660660  32.3942440  63.2700460  35.3162970
  20.9931550  58.1061670  36.6732730  21.0336890  57.8075540  37.5817960
  21.8477050  58.5069280  36.5140250  24.7709940  60.7057220  21.8336240
  25.1926360  60.5397090  22.6767630  24.8960780  59.8957450  21.3391380
  22.9337360  56.6853770  34.6407220  22.4033820  56.1944720  34.0130560
  23.6025430  57.1137970  34.1065150  27.2837580  59.7294830  19.0813340
  27.8043240  59.0143850  18.7154490  27.9305980  60.3680700  19.3813850
  31.8315420  61.1523230  34.4048410  32.2456440  61.3068310  35.2538830
  30.8966420  61.2778450  34.5674190  32.3037590  58.4919390  36.4087560
  32.8858360  57.7371710  36.3208040  32.4799360  59.0226830  35.6319040
  23.4209660  53.6516140  34.7204510  23.3266530  53.0336890  33.9955380
  22.8407050  54.3782430  34.4934420  26.1871100  52.2089380  31.7531900
  25.7388400  52.2313640  30.9077450  25.5536300  51.8108400  32.3502200
  26.5930650  61.1043710  32.3744340  27.0118760  61.9476440  32.2020580
  25.6739280  61.2415750  32.1451120  28.9294550  58.8359890  33.7582180
  29.0490760  58.2401030  34.4977020  29.7888550  58.8729580  33.3383480
  31.2682450  59.3897080  32.3344690  30.7417670  59.9139700  31.7309830
  31.6113790  60.0224470  32.9654420  23.6668840  56.7790450  18.7794400
  23.4657900  55.9157810  19.1407740  23.4960890  56.6923810  17.8416000
  24.4438070  67.4096720  33.4902070  23.9059160  68.1342780  33.1710770
  24.6972030  66.9327060  32.6999410  25.6963320  55.3781240  35.0158000
  26.2863010  55.0697090  35.7035820  24.8783560  54.9060990  35.1717900
  30.5156750  54.9947050  35.2491020  29.8272270  54.3328590  35.1841010
  31.2362770  54.5485320  35.6939480  31.1457150  51.5898680  21.3081280
  31.4259440  50.7466580  21.6640700  30.3722880  51.8221790  21.8220030
  22.4651640  53.8791070  18.7672280  22.7677540  53.8858500  17.8591430
  23.2046230  53.5288930  19.2639940  27.3000280  68.6447930  33.7488720
  27.2258980  69.5483070  34.0561090  26.3979120  68.3259830  33.7210790
  25.6836570  52.8225690  19.7528480  25.3358570  52.1449680  19.1730930
  25.8849340  52.3615200  20.5671870  27.8485610  67.8106440  21.3715080
  28.7436400  68.1491410  21.3933840  27.8803240  67.0885850  20.7439360
  21.4881770  63.1833490  19.6002080  21.9256640  63.7263160  20.2559660
  21.9729500  62.3580440  19.6098420  18.7027570  65.9722520  27.0522340
  19.0330580  65.1043580  26.8200980  19.1318570  66.1781040  27.8827300
  23.2989490  64.3031530  24.7124310  22.9985030  64.1796500  25.6128220
  23.1926980  63.4440120  24.3040040  19.1917780  66.8393110  29.7903970
  18.7548770  67.0193910  30.6228120  19.7595460  67.5967730  29.6485690
  34.8279960  66.3410110  34.0781280  34.2281950  66.4002670  33.3345200
  34.9573860  65.4015090  34.2078130  36.0681410  64.0827930  19.4150990
  35.2374370  64.1504580  19.8858220  36.2453240  64.9732050  19.1117850
  35.5237870  60.8275410  21.9185190  36.2856780  61.3972060  22.0244880
  35.5392240  60.2602610  22.6893500  19.0242210  59.3513340  26.1492850
  18.3691050  59.0824980  25.5052550  19.8620160  59.2417820  25.6994830
  33.5131600  63.0662090  32.1757440  32.6991440  63.4959250  32.4383230
  33.9205800  63.6780500  31.5626490  35.5757040  61.1209780  19.0757710
  35.8505880  62.0288660  18.9476930  35.3867780  61.0572310  20.0119700
  31.9732650  54.1454630  20.3711340  32.3917530  53.9585610  19.5308000
  31.6668710  53.2933680  20.6814270  20.0618140  59.7365910  30.6896190
  20.4291180  59.6493310  31.5692210  19.4928960  58.9732460  30.5903050
  34.8622000  58.2050290  33.7026660  34.6308090  57.9763040  32.8024610
  35.1226550  59.1249840  33.6571550  19.6134140  56.6475000  34.5954610
  18.7190190  56.6141760  34.9348320  20.1531690  56.8461790  35.3605860
  33.3010070  53.4306720  36.4806360  34.1780250  53.4390120  36.8640360
  33.3130910  52.6937560  35.8698710  18.2380290  56.5612270  22.0918180
  17.3344370  56.8242470  21.9169840  18.7220910  56.8323440  21.3118140
  34.9263060  57.3676130  30.8913930  33.9765770  57.3339670  31.0058920
  35.1076070  58.2776240  30.6563700  20.7807500  55.6177810  20.0012560
  21.4899200  55.1961030  19.5159840  20.0647440  55.6853040  19.3695910
  20.4281660  51.6717140  19.0415210  21.1509790  52.2126080  19.3596430
  20.7006180  51.3980560  18.1656750  20.1173850  50.9223330  28.9437830
  20.7650040  50.3720710  28.5032990  20.5375690  51.1766480  29.7653640
  34.0126190  51.1164690  32.3007470  34.6498410  51.7298830  32.6666660
  34.1601080  51.1525350  31.3556700  36.5550740  53.0078480  19.0830610
  37.4800050  52.8759660  18.8748900  36.5326530  53.0871300  20.0367060
  36.6289230  53.7789140  21.7087320  35.8340730  53.7134260  22.2380230
  36.8332510  54.7139780  21.6972670  19.8705850  51.0779000  31.6863150
  19.5220670  51.5342820  32.4521330  19.5393550  50.1836130  31.7685580
  21.4770220  64.2498600  35.8516340  21.4339850  63.8791510  36.7330800
  21.6081230  65.1876170  35.9918160  25.1776250  65.8058190  31.4526060
  24.9367610  66.0732750  30.5656580  26.1178890  65.9763920  31.5076920
  27.3830670  52.2690880  35.2082570  27.3219560  52.8612710  35.9577980
  28.3231050  52.1616840  35.0632830  30.0205230  51.9260940  34.8474860
  30.6345640  52.2440230  34.1855940  30.5654790  51.4409530  35.4670720
  36.4380410  67.8252570  32.2536700  35.9438690  68.2221440  31.5363830
  35.8293700  67.2001780  32.6473980  20.5426490  50.6055200  34.9613920
  21.0909480  50.4243250  34.1980030  20.6081800  49.8149310  35.4970230
  21.3158250  67.1960850  32.9714120  20.7218570  67.0645550  33.7104160
  21.3082090  66.3598990  32.5056220  31.6685250  52.6963950  32.5585870
  31.3398610  51.8815710  32.1787600  32.6167550  52.6533760  32.4351560
  34.1219860  68.4675990  29.5323440  33.6622830  69.2191800  29.1581460
  33.4932320  67.7482460  29.4738240  20.9470480  64.5619230  31.9222160
  20.2204540  63.9424520  31.8548110  21.0079630  64.9559840  31.0520240
  24.5515580  66.7764230  28.7071570  25.0680600  66.1651590  28.1819830
  25.2012960  67.2793010  29.1982580  27.2911080  67.6672720  29.5340550
  27.5788890  67.4127020  28.6573560  27.8034300  67.1150080  30.1246120
  19.2300480  67.8793620  25.1318920  19.0622520  67.2464300  25.8300810
  18.3634990  68.0853020  24.7813110  19.8528500  51.7110400  22.6350780
  20.6107860  51.8239280  22.0614810  19.3905670  52.5479600  22.5894210
  34.0401890  50.8913680  22.1376440  34.2352520  51.7897130  22.4043870
  33.2531760  50.6600760  22.6309390  20.8363180  66.5726850  22.5769060
  20.3110800  66.9534880  21.8731020  20.7607760  67.1977620  23.2978770
  22.2253650  52.2374450  21.1752750  22.7546410  51.4504250  21.0460700
  22.8581970  52.9165640  21.4088280  27.3583440  68.5888820  36.9008750
  28.2850750  68.3533090  36.9444710  27.3433870  69.4160820  36.4194780
  24.5447050  51.2533570  36.6650630  24.2631320  51.7567170  35.9011450
  24.9266750  50.4555320  36.2992760  23.4356150  68.5209230  21.4518310
  24.1674970  68.2368510  20.9042200  23.6949820  68.2822510  22.3417690
  22.5970940  64.6373960  21.4564640  21.9679820  65.1059060  22.0050470
  22.7118770  63.7923180  21.8910830  31.1462510  50.6687150  37.2431100
  31.0327960  50.9881760  38.1382620  31.9632250  51.0699660  36.9468380
  33.9261000  67.8158680  36.7249790  34.7186320  67.3207910  36.5175750
  34.2194150  68.4948820  37.3325400  30.0520660  58.6879620   7.6065840
  29.9714710  57.7734230   7.3357550  29.6385080  59.1846690   6.9005550
  28.1838700  60.4658640   9.4875110  27.4080800  59.9859080   9.7773680
  28.8351630  59.7864290   9.3131270  22.2004530  60.7778450  10.3650870
  21.3689410  60.5227160  10.7647380  22.8085510  60.8489220  11.1008790
  32.2046130  64.8718830   8.2674240  31.7427660  64.1006070   8.5961410
  33.0171680  64.8984900   8.7726690  22.1805790  64.8118540  10.5608890
  22.4833830  63.9216280  10.3819110  22.9249380  65.3688760  10.3331140
  20.6096480  55.7380340   4.1493260  19.7213180  56.0796310   4.0473140
  20.8937670  55.5380660   3.2574090  18.5729490  58.3385990  10.0332960
  19.1445600  57.5708190  10.0336600  18.5731030  58.6374750   9.1239570
  28.4309440  67.1576840   7.8878230  27.8120880  67.6134340   7.3172670
  29.2861220  67.3128300   7.4867930  27.6247690  63.1415830   9.4945270
  27.5555970  62.2005770   9.3334400  28.3867550  63.2317240  10.0667840
  19.8154360  53.7470350  11.8201890  19.6357200  52.8496100  12.1004650
  19.4134440  54.2942220  12.4948840  28.6552860  55.9486210   9.7214200
  29.0317680  55.0758090   9.6087870  28.5572370  56.2844910   8.8304640
  22.7857870  54.3211840   5.1831640  22.8924620  55.2215570   5.4900400
  21.8750230  54.2729810   4.8926290  32.4376980  53.4436650   6.6542540
  33.2586600  52.9533220   6.6968020  32.4711060  54.0334310   7.4074380
  20.4341030  56.2430850  10.4284230  21.1151140  56.5069220  11.0471630
  20.1189080  55.4031720  10.7622240  24.6265600  57.2898210   9.5156820
  25.1343820  57.7879180  10.1561840  25.1578840  56.5133410   9.3396180
  36.7276530  55.4603400  13.2186170  36.0228700  55.8485110  12.7001280
  36.9934450  56.1553690  13.8207100  22.9101700  51.9296770  13.7820240
  22.9120140  52.4469160  12.9766140  22.0806010  51.4526950  13.7590170
  29.2972790  62.0416080   5.2810140  28.6790060  62.5065530   4.7172860
  29.8096040  62.7343560   5.6979650  24.1604550  61.5691950  11.9593740
  23.8273930  62.1960870  12.6014810  24.3371230  62.0953830  11.1795410
  32.6738460  55.3837030   9.4270080  31.9694030  55.6721920  10.0073190
  33.0350620  56.1937140   9.0669640  22.5917030  53.6406730  11.7890690
  22.9333840  54.4848780  11.4944560  21.6532840  53.7890470  11.9056030
  23.3723650  63.5372750  13.7742920  23.9897650  64.2123830  13.4927370
  22.5116770  63.9460730  13.6830420  18.6655990  62.7272610   2.6549770
  18.2883970  63.2159710   1.9234670  18.9229060  63.3997890   3.2856300
  34.2901240  65.0012160  11.6897560  33.6064760  65.6711270  11.6814230
  34.8295530  65.1992810  10.9242420  35.7425380  54.8291820   9.8179290
  34.7950290  54.8630800   9.9494720  36.0675370  55.6430770  10.2028650
  26.2744920  51.1289000   8.1135280  26.5819900  50.5735890   7.3970780
  25.3445620  51.2633460   7.9308270  31.8259980  66.8456290  10.4042740
  31.8387140  66.4418580   9.5365000  31.2735200  67.6203580  10.3004170
  33.1205400  63.5672510   5.4932910  33.0101730  62.6246840   5.6182330
  33.1173650  63.9288150   6.3795670  31.2245420  61.7486130  11.7325350
  31.6414210  61.5346240  10.8978810  31.9485240  62.0058920  12.3033970
  28.6625680  59.1937830   4.8495400  27.7354960  59.1275210   5.0783870
  28.8150500  60.1317960   4.7350640  35.1707520  60.1473350  11.8241590
  34.3426150  60.2166440  11.3491720  35.7658000  60.7327660  11.3557420
  32.6922970  60.7558130   5.3530650  32.0735390  60.4177680   4.7056950
  32.6747420  60.1117890   6.0609840  32.1349530  56.9342670  12.7696460
  31.7220710  57.7596380  13.0236450  31.4025480  56.3487710  12.5772820
  24.2682320  59.7202570   7.6315130  23.8639320  59.0079820   7.1361030
  24.3545440  59.3755810   8.5203170  24.7364020  63.4070130   9.7954340
  24.4392310  62.8015600   9.1162120  25.6863840  63.4447440   9.6843700
  22.9810940  56.4945780  11.4114170  23.5325530  56.6041120  10.6367420
  23.4954450  56.8683380  12.1269400  32.8249630  66.9802000  13.4577440
  32.3480190  67.7874190  13.2650050  32.1411420  66.3280330  13.6103650
  23.8282450  63.1451820  16.4462140  22.9310980  63.3691790  16.6935540
  23.8535320  63.2686760  15.4973540  30.8687670  59.9944940   2.3603400
  31.3080950  59.1567370   2.2141220  31.5816090  60.6274340   2.4467540
  22.6553670  60.0165140  15.0219510  22.5161440  60.8887940  15.3906910
  21.7735030  59.6737950  14.8767450  28.9783050  64.9341010   6.3284640
  29.4178960  65.6765340   5.9140030  28.9169940  65.1767580   7.2523600
  24.4534020  65.9586840  17.2304660  24.4249450  66.3629790  16.3633090
  24.2898990  65.0297200  17.0676260  20.9686950  58.6147550   5.1321780
  20.8484550  59.3409640   4.5203050  20.6587840  57.8450460   4.6549690
  36.4048840  66.7413940  18.5268830  36.8808560  67.2196830  19.2057910
  37.0256000  66.6731430  17.8014330  18.6072320  61.7862690  10.9390420
  18.6852740  61.9211460   9.9946140  19.2214000  61.0778580  11.1318540
  19.8519950  63.4862880   7.3496600  19.4448030  63.6277470   6.4950200
  20.7432960  63.2023040   7.1467810  35.8082090  63.9326790  15.6868840
  35.9345150  63.6938670  14.7686020  35.8503470  63.1011330  16.1590920
  29.6698830  67.6354790  14.2563650  30.1843500  67.5462800  15.0586080
  28.8267910  67.9814490  14.5491560  31.6453230  67.9210130   3.6847650
  31.4854370  67.6313070   4.5829480  31.4799940  67.1450260   3.1492880
  24.1241610  67.7008660   5.4619270  23.9484090  66.7844200   5.2487070
  23.2697350  68.0595950   5.7017070  30.9129290  67.0560400   6.3194140
  31.3686240  66.2749780   6.6332760  31.2521810  67.7667220   6.8635320
  35.6606100  55.9859250  16.6518580  35.0450370  56.4938920  16.1234040
  35.3402520  55.0857580  16.5944520  18.6631840  62.8276860  13.4784880
  18.8262880  62.3582220  12.6604250  19.1284290  62.3200420  14.1433720
  23.4350610  51.9582620   8.5145450  22.9918760  52.7392160   8.1829970
  23.9935600  52.2812510   9.2216390  27.7220420  54.8251140  14.1180770
  27.2599790  55.0334160  14.9300710  27.3198530  54.0110490  13.8151440
  32.7224930  56.0460090  15.2477430  31.8718520  55.7465840  15.5686500
  32.5626720  56.2902100  14.3361250  29.8174640  57.5461840  17.3476220
  30.1428050  56.7125590  17.0078450  30.6054970  58.0690360  17.4954550
  26.5509430  51.5793320   3.3951280  25.9263610  51.5753190   4.1204590
  26.4639550  50.7124280   2.9987250  25.4726510  52.5029950  10.3735050
  25.7698840  53.4092780  10.2927070  26.0212070  52.0148730   9.7594620
  23.2264830  57.0816190   6.2426700  23.0005750  56.8653360   7.1473320
  22.4457360  57.5144650   5.8972670  30.4562590  57.0879560   4.8417350
  29.8571480  57.8115360   4.6580970  31.0042200  57.0256340   4.0593800
  25.6664040  57.9801770  16.9086970  25.5707640  57.0396500  16.7587370
  26.5096020  58.2016840  16.5135040  29.0627460  55.7243100   6.8720630
  29.4557030  56.0415300   6.0589320  29.4244310  54.8454980   6.9865150
  20.7974580  54.3915440  15.0620750  20.4037970  55.2390650  15.2693530
  20.1092980  53.7541810  15.2529390  27.3719630  54.4750410  18.1317490
  26.6817950  54.2822610  18.7663580  28.1151930  54.7585050  18.6641790
  18.0991630  52.3143900   9.0950830  17.8104680  52.8846760   9.8075810
  18.8437390  51.8348350   9.4582060  29.6482600  58.3148850  10.9671410
  28.9163720  58.8235660  11.3161510  29.2506940  57.4978830  10.6660190
  26.0859990  54.9903050   9.3723900  26.0896050  54.5493000   8.5228440
  26.9811110  55.3120380   9.4795720  21.9362370  54.8729540   8.3318110
  21.5962420  55.3504770   9.0885160  21.1739690  54.4194660   7.9719210
  26.1480140  55.9915130   2.3630660  26.2692960  55.9501610   3.3116480
  25.7628650  56.8539280   2.2077390  30.1108510  53.7682530  10.3794350
  30.1281250  54.2191180  11.2236200  29.8624090  52.8688170  10.5927790
  33.5379260  51.1814710  16.2180730  33.8625030  50.4504370  16.7438710
  33.5735770  50.8628350  15.3161720  20.2370820  62.2028290  15.6380690
  19.8525610  61.5621960  16.2363650  20.5483010  62.9064410  16.2075420
  26.3867960  59.0504830  11.1189310  26.7538090  58.5763400  11.8650650
  26.1973020  59.9246400  11.4597650  19.2508450  53.7948520   7.2482780
  18.9655370  53.4304190   8.0861400  19.1887310  53.0628980   6.6345920
  24.1767330  58.0913470  13.4373520  23.8724400  58.9705450  13.6623880
  25.1313790  58.1513260  13.4730960  22.7049120  62.2974460   4.0340370
  21.9311380  61.7572080   3.8739090  23.4343750  61.7781070   3.6958130
  33.4637100  61.2939820   9.8266760  34.1836220  61.7895110   9.4362870
  33.2618920  60.6157710   9.1820630  28.9247040  52.6877780   3.9696150
  28.1111650  52.1890950   3.8941460  28.7308990  53.5276030   3.5532500
  28.8455900  61.3648880  15.7135760  28.7793210  60.4444550  15.4593350
  28.2161040  61.4624320  16.4280400  31.6395430  57.0597430   2.2658310
  32.5275050  57.3714660   2.0909650  31.6100520  56.1869680   1.8738890
  22.7486520  61.9654840   7.6719180  23.2665190  61.1623100   7.6176070
  22.2970540  61.9033980   8.5136010  27.6356020  63.2321120   2.9446480
  27.9771720  63.9763350   2.4489800  26.8068730  63.5452240   3.3071310
  20.2331060  58.9316210  14.5844880  19.8746000  59.5970060  15.1718220
  19.9385620  58.0999760  14.9557500  23.4344180  59.3900450  17.4684430
  23.1344320  59.5357630  16.5712250  24.2055420  58.8305740  17.3757820
  28.7772630  64.1869450  15.4639560  28.7917170  63.2550410  15.2458470
  28.0697730  64.2729210  16.1029330  34.9883840  60.8276790  14.8108140
  34.2632030  61.4205570  14.6137530  35.5159300  60.8200330  14.0121510
  34.9396950  65.2251530   4.4620300  34.2973110  64.5707150   4.7364020
  34.5527610  65.6306620   3.6860970  30.5183430  62.5536960   8.3091990
  30.8707250  61.9565090   7.6493360  29.6345760  62.2281190   8.4800240
  26.6046710  63.3134650   5.7162400  27.2917840  63.8603860   6.0969990
  25.8179130  63.8575380   5.7512010  25.9073920  60.3180680   5.3287760
  26.3636700  61.1285930   5.5547950  25.5562130  60.0003820   6.1606250
  28.2106530  65.8287020  12.5580060  28.8548750  66.0346400  13.2353480
  28.5735970  65.0675420  12.1050910  21.8085700  50.6618330   5.8010280
  21.6800330  50.6536230   6.7495200  20.9847720  51.0001420   5.4501290
  29.4838610  63.8319370  11.2757510  30.1260840  63.1312530  11.3889680
  30.0087960  64.6117810  11.0954400  31.2576230  64.6314270  14.4793570
  31.5932470  65.2180960  15.1571490  30.3376570  64.5006980  14.7091360
  18.8079630  52.4209450  15.2616980  18.0938150  52.6206370  15.8669590
  19.2274670  51.6449020  15.6331780  32.9110580  62.0339930   2.6610810
  32.6232280  62.4952620   3.4488690  33.7062750  61.5737700   2.9295030
  19.0952220  66.4089710  16.2483510  19.2043340  65.4684450  16.1078900
  18.4432780  66.6744460  15.5997240  27.0864810  64.6805600  17.6481630
  26.7661680  63.9614840  18.1927320  26.4123170  65.3560670  17.7217690
  25.1278980  65.5266050   2.5914780  25.1189080  66.2595740   1.9759290
  24.2077340  65.2797630   2.6841740  20.7285620  60.7480940   3.3361540
  20.1213570  61.4879840   3.3456840  21.2034970  60.8380300   2.5099740
  30.3018410  54.9131760  13.0118430  30.6699230  54.0926970  13.3398000
  29.4416610  54.9733650  13.4274080  33.6680440  53.8688700   3.8205990
  33.0393600  53.9734370   3.1064220  33.1732360  54.0885480   4.6099870
  25.6364470  56.1474650   5.2363870  24.9280620  56.6160990   5.6777480
  25.9208950  55.4896660   5.8709060  27.2620400  57.5671350  13.2356400
  27.7605650  58.0417170  13.9008250  27.4043350  56.6434870  13.4426430
  29.6679900  52.8725310   6.6759660  29.5447680  52.8911440   5.7269170
  30.6164460  52.9204250   6.7958060  26.7556690  68.1080610   5.9487640
  27.0098190  68.0702000   5.0267010  25.8069170  67.9813940   5.9415890
  23.8399490  54.4559730   2.6114580  24.6890020  54.8929880   2.5454770
  23.4730760  54.7679990   3.4386640  34.4687260  53.7839310  14.0784790
  33.9660860  54.5244710  14.4178600  35.2843920  54.1723310  13.7621580
  32.7609270  59.0272490   7.5246150  31.8199410  59.0422720   7.6993840
  33.0753340  58.2408450   7.9706450  21.4337670  58.1417160   1.7683000
  21.5141260  57.1944670   1.8800400  22.3257420  58.4724040   1.8743660
  34.7634850  66.1981340   9.2000410  34.8882270  67.0212510   9.6724220
  35.6300410  65.9872070   8.8524560  22.2352380  68.2912550   8.8717540
  22.9714860  67.7428010   9.1426110  22.6193300  69.1568560   8.7323530
  19.1197860  64.3586120   4.7459050  18.1937640  64.6007260   4.7364460
  19.5854290  65.1860380   4.6243800  21.2410660  67.4758620  18.0603120
  22.0423390  67.7970670  18.4738520  20.7262480  67.1154200  18.7823030
  30.0775290  63.5838490  18.0078530  29.4713450  63.6070090  17.2674280
  29.7729400  62.8521530  18.5445780  31.5075660  67.3118780  16.6187940
  32.4597410  67.2276800  16.5688180  31.3603880  67.9760490  17.2921730
  18.9608470  59.9632080  17.0039170  19.4647490  59.3839360  17.5755400
  18.2215890  60.2472310  17.5415540  26.0146410  61.3703070  16.5374690
  25.2492080  61.9388070  16.4529360  26.1962370  61.0779280  15.6442920
  33.1569760  63.1008400  17.0949710  33.8979230  63.4384160  16.5917170
  32.3942440  63.2700460  16.5419480  20.9931550  58.1061670  17.8989240
  21.0336890  57.8075540  18.8074470  21.8477050  58.5069280  17.7396760
  24.7709940  60.7057220   3.0592750  25.1926360  60.5397090   3.9024140
  24.8960780  59.8957450   2.5647890  22.9337360  56.6853770  15.8663730
  22.4033820  56.1944720  15.2387070  23.6025430  57.1137970  15.3321660
  31.8315420  61.1523230  15.6304920  32.2456440  61.3068310  16.4795340
  30.8966420  61.2778450  15.7930700  32.3037590  58.4919390  17.6344070
  32.8858360  57.7371710  17.5464550  32.4799360  59.0226830  16.8575550
  23.4209660  53.6516140  15.9461020  23.3266530  53.0336890  15.2211890
  22.8407050  54.3782430  15.7190930  26.1871100  52.2089380  12.9788410
  25.7388400  52.2313640  12.1333960  25.5536300  51.8108400  13.5758710
  26.5930650  61.1043710  13.6000850  27.0118760  61.9476440  13.4277090
  25.6739280  61.2415750  13.3707630  28.9294550  58.8359890  14.9838690
  29.0490760  58.2401030  15.7233530  29.7888550  58.8729580  14.5639990
  31.2682450  59.3897080  13.5601200  30.7417670  59.9139700  12.9566340
  31.6113790  60.0224470  14.1910930  24.4438070  67.4096720  14.7158580
  23.9059160  68.1342780  14.3967280  24.6972030  66.9327060  13.9255920
  25.6963320  55.3781240  16.2414510  26.2863010  55.0697090  16.9292330
  24.8783560  54.9060990  16.3974410  30.5156750  54.9947050  16.4747530
  29.8272270  54.3328590  16.4097520  31.2362770  54.5485320  16.9195990
  31.1457150  51.5898680   2.5337790  31.4259440  50.7466580   2.8897210
  30.3722880  51.8221790   3.0476540  27.3000280  68.6447930  14.9745230
  27.2258980  69.5483070  15.2817600  26.3979120  68.3259830  14.9467300
  27.8485610  67.8106440   2.5971590  28.7436400  68.1491410   2.6190350
  27.8803240  67.0885850   1.9695870  18.7027570  65.9722520   8.2778850
  19.0330580  65.1043580   8.0457490  19.1318570  66.1781040   9.1083810
  23.2989490  64.3031530   5.9380820  22.9985030  64.1796500   6.8384730
  23.1926980  63.4440120   5.5296550  19.1917780  66.8393110  11.0160480
  18.7548770  67.0193910  11.8484630  19.7595460  67.5967730  10.8742200
  34.8279960  66.3410110  15.3037790  34.2281950  66.4002670  14.5601710
  34.9573860  65.4015090  15.4334640  35.5237870  60.8275410   3.1441700
  36.2856780  61.3972060   3.2501390  35.5392240  60.2602610   3.9150010
  19.0242210  59.3513340   7.3749360  18.3691050  59.0824980   6.7309060
  19.8620160  59.2417820   6.9251340  36.5297840  61.6825510   7.9883630
  36.9006670  60.8992830   7.5819600  37.1699770  62.3714610   7.8100930
  33.5131600  63.0662090  13.4013950  32.6991440  63.4959250  13.6639740
  33.9205800  63.6780500  12.7883000  35.4722380  59.0578770   5.2943650
  35.0965980  58.2906700   4.8624940  34.7425500  59.4401470   5.7818580
  20.0618140  59.7365910  11.9152700  20.4291180  59.6493310  12.7948720
  19.4928960  58.9732460  11.8159560  34.8622000  58.2050290  14.9283170
  34.6308090  57.9763040  14.0281120  35.1226550  59.1249840  14.8828060
  19.6134140  56.6475000  15.8211120  18.7190190  56.6141760  16.1604830
  20.1531690  56.8461790  16.5862370  33.3010070  53.4306720  17.7062870
  34.1780250  53.4390120  18.0896870  33.3130910  52.6937560  17.0955220
  18.2380290  56.5612270   3.3174690  17.3344370  56.8242470   3.1426350
  18.7220910  56.8323440   2.5374650  34.7473340  57.2836260   8.5950890
  35.2710820  56.7898910   7.9641060  35.3332760  57.4186620   9.3398460
  34.9263060  57.3676130  12.1170440  33.9765770  57.3339670  12.2315430
  35.1076070  58.2776240  11.8820210  34.2373310  56.5409610   4.5343300
  34.7332430  56.3080480   5.3192180  34.0389380  55.7021450   4.1180940
  20.1173850  50.9223330  10.1694340  20.7650040  50.3720710   9.7289500
  20.5375690  51.1766480  10.9910150  35.6660470  55.1770560   7.0680980
  35.5559750  55.0226600   8.0063250  36.4268060  54.6491500   6.8256390
  34.0126190  51.1164690  13.5263980  34.6498410  51.7298830  13.8923170
  34.1601080  51.1525350  12.5813210  36.6289230  53.7789140   2.9343830
  35.8340730  53.7134260   3.4636740  36.8332510  54.7139780   2.9229180
  33.5707650  67.8180690   6.9282220  34.1666720  67.4965260   6.2516640
  33.8285800  67.3452510   7.7195490  19.8705850  51.0779000  12.9119660
  19.5220670  51.5342820  13.6777840  19.5393550  50.1836130  12.9942090
  21.4770220  64.2498600  17.0772850  21.4339850  63.8791510  17.9587310
  21.6081230  65.1876170  17.2174670  25.1776250  65.8058190  12.6782570
  24.9367610  66.0732750  11.7913090  26.1178890  65.9763920  12.7333430
  27.3830670  52.2690880  16.4339080  27.3219560  52.8612710  17.1834490
  28.3231050  52.1616840  16.2889340  30.0205230  51.9260940  16.0731370
  30.6345640  52.2440230  15.4112450  30.5654790  51.4409530  16.6927230
  36.4380410  67.8252570  13.4793210  35.9438690  68.2221440  12.7620340
  35.8293700  67.2001780  13.8730490  20.5426490  50.6055200  16.1870430
  21.0909480  50.4243250  15.4236540  20.6081800  49.8149310  16.7226740
  21.3158250  67.1960850  14.1970630  20.7218570  67.0645550  14.9360670
  21.3082090  66.3598990  13.7312730  30.7613270  50.4893080  12.4000660
  29.8873110  50.8228190  12.1973590  30.6524020  50.0166260  13.2252530
  31.6685250  52.6963950  13.7842380  31.3398610  51.8815710  13.4044110
  32.6167550  52.6533760  13.6608070  34.1219860  68.4675990  10.7579950
  33.6622830  69.2191800  10.3837970  33.4932320  67.7482460  10.6994750
  20.9470480  64.5619230  13.1478670  20.2204540  63.9424520  13.0804620
  21.0079630  64.9559840  12.2776750  24.5515580  66.7764230   9.9328080
  25.0680600  66.1651590   9.4076340  25.2012960  67.2793010  10.4239090
  27.2911080  67.6672720  10.7597060  27.5788890  67.4127020   9.8830070
  27.8034300  67.1150080  11.3502630  28.5088090  51.4062920  11.3393570
  27.7259880  51.8808420  11.6190330  28.2151020  50.5017750  11.2306750
  33.0609160  52.1086020   9.3842660  33.5017250  52.0531120   8.5364260
  32.7916750  53.0244030   9.4552840  34.9247730  51.7401260   7.3951480
  34.8636130  50.7962480   7.2482500  35.7039760  51.8481350   7.9404940
  19.2300480  67.8793620   6.3575430  19.0622520  67.2464300   7.0557320
  18.3634990  68.0853020   6.0069620  19.8528500  51.7110400   3.8607290
  20.6107860  51.8239280   3.2871320  19.3905670  52.5479600   3.8150720
  26.3942310  53.8249670   6.8509600  25.5816820  53.4506560   6.5105480
  26.8983950  53.0694750   7.1530790  30.8967290  50.4892120   8.0892670
  31.4996660  51.0612330   8.5641190  30.1560280  51.0531560   7.8666570
  34.0401890  50.8913680   3.3632950  34.2352520  51.7897130   3.6300380
  33.2531760  50.6600760   3.8565900  20.8363180  66.5726850   3.8025570
  20.3110800  66.9534880   3.0987530  20.7607760  67.1977620   4.5235280
  22.2253650  52.2374450   2.4009260  22.7546410  51.4504250   2.2717210
  22.8581970  52.9165640   2.6344790  24.4191490  51.9749590   5.4554650
  23.7894230  51.2736900   5.6224780  23.8796630  52.7353720   5.2387810
  27.3583440  68.5888820  18.1265260  28.2850750  68.3533090  18.1701220
  27.3433870  69.4160820  17.6451290  35.5928500  68.1314390   5.1239510
  35.7680690  67.4452130   4.4800430  34.8950070  68.6561440   4.7316180
  24.5447050  51.2533570  17.8907140  24.2631320  51.7567170  17.1267960
  24.9266750  50.4555320  17.5249270  23.4356150  68.5209230   2.6774820
  24.1674970  68.2368510   2.1298710  23.6949820  68.2822510   3.5674200
  22.5970940  64.6373960   2.6821150  21.9679820  65.1059060   3.2306980
  22.7118770  63.7923180   3.1167340  31.1462510  50.6687150  18.4687610
  31.0327960  50.9881760  19.3639130  31.9632250  51.0699660  18.1724890
  33.9261000  67.8158680  17.9506300  34.7186320  67.3207910  17.7432260
  34.2194150  68.4948820  18.5581910  30.0520660  39.9136130  45.1552820
  29.9714710  38.9990740  44.8844530  29.6385080  40.4103200  44.4492530
  28.1838700  41.6915150  47.0362090  27.4080800  41.2115590  47.3260660
  28.8351630  41.0120800  46.8618250  22.2004530  42.0034960  47.9137850
  21.3689410  41.7483670  48.3134360  22.8085510  42.0745730  48.6495770
  32.2046130  46.0975340  45.8161220  31.7427660  45.3262580  46.1448390
  33.0171680  46.1241410  46.3213670  22.1805790  46.0375050  48.1095870
  22.4833830  45.1472790  47.9306090  22.9249380  46.5945270  47.8818120
  20.6096480  36.9636850  41.6980240  19.7213180  37.3052820  41.5960120
  20.8937670  36.7637170  40.8061070  18.5729490  39.5642500  47.5819940
  19.1445600  38.7964700  47.5823580  18.5731030  39.8631260  46.6726550
  28.4309440  48.3833350  45.4365210  27.8120880  48.8390850  44.8659650
  29.2861220  48.5384810  45.0354910  27.6247690  44.3672340  47.0432250
  27.5555970  43.4262280  46.8821380  28.3867550  44.4573750  47.6154820
  19.8154360  34.9726860  49.3688870  19.6357200  34.0752610  49.6491630
  19.4134440  35.5198730  50.0435820  28.6552860  37.1742720  47.2701180
  29.0317680  36.3014600  47.1574850  28.5572370  37.5101420  46.3791620
  22.7857870  35.5468350  42.7318620  22.8924620  36.4472080  43.0387380
  21.8750230  35.4986320  42.4413270  32.4376980  34.6693160  44.2029520
  33.2586600  34.1789730  44.2455000  32.4711060  35.2590820  44.9561360
  20.4341030  37.4687360  47.9771210  21.1151140  37.7325730  48.5958610
  20.1189080  36.6288230  48.3109220  24.6265600  38.5154720  47.0643800
  25.1343820  39.0135690  47.7048820  25.1578840  37.7389920  46.8883160
  36.7276530  36.6859910  50.7673150  36.0228700  37.0741620  50.2488260
  36.9934450  37.3810200  51.3694080  22.9101700  33.1553280  51.3307220
  22.9120140  33.6725670  50.5253120  22.0806010  32.6783460  51.3077150
  29.2972790  43.2672590  42.8297120  28.6790060  43.7322040  42.2659840
  29.8096040  43.9600070  43.2466630  24.1604550  42.7948460  49.5080720
  23.8273930  43.4217380  50.1501790  24.3371230  43.3210340  48.7282390
  32.6738460  36.6093540  46.9757060  31.9694030  36.8978430  47.5560170
  33.0350620  37.4193650  46.6156620  22.5917030  34.8663240  49.3377670
  22.9333840  35.7105290  49.0431540  21.6532840  35.0146980  49.4543010
  23.3723650  44.7629260  51.3229900  23.9897650  45.4380340  51.0414350
  22.5116770  45.1717240  51.2317400  18.6655990  43.9529120  40.2036750
  18.2883970  44.4416220  39.4721650  18.9229060  44.6254400  40.8343280
  34.2901240  46.2268670  49.2384540  33.6064760  46.8967780  49.2301210
  34.8295530  46.4249320  48.4729400  35.7425380  36.0548330  47.3666270
  34.7950290  36.0887310  47.4981700  36.0675370  36.8687280  47.7515630
  26.2744920  32.3545510  45.6622260  26.5819900  31.7992400  44.9457760
  25.3445620  32.4889970  45.4795250  31.8259980  48.0712800  47.9529720
  31.8387140  47.6675090  47.0851980  31.2735200  48.8460090  47.8491150
  33.1205400  44.7929020  43.0419890  33.0101730  43.8503350  43.1669310
  33.1173650  45.1544660  43.9282650  31.2245420  42.9742640  49.2812330
  31.6414210  42.7602750  48.4465790  31.9485240  43.2315430  49.8520950
  28.6625680  40.4194340  42.3982380  27.7354960  40.3531720  42.6270850
  28.8150500  41.3574470  42.2837620  28.6494760  36.6911340  39.3949540
  27.7098430  36.8525300  39.4802000  28.9678020  37.4097020  38.8485530
  35.1707520  41.3729860  49.3728570  34.3426150  41.4422950  48.8978700
  35.7658000  41.9584170  48.9044400  32.6922970  41.9814640  42.9017630
  32.0735390  41.6434190  42.2543930  32.6747420  41.3374400  43.6096820
  32.1349530  38.1599180  50.3183440  31.7220710  38.9852890  50.5723430
  31.4025480  37.5744220  50.1259800  24.2682320  40.9459080  45.1802110
  23.8639320  40.2336330  44.6848010  24.3545440  40.6012320  46.0690150
  24.7364020  44.6326640  47.3441320  24.4392310  44.0272110  46.6649100
  25.6863840  44.6703950  47.2330680  22.9810940  37.7202290  48.9601150
  23.5325530  37.8297630  48.1854400  23.4954450  38.0939890  49.6756380
  32.8249630  48.2058510  51.0064420  32.3480190  49.0130700  50.8137030
  32.1411420  47.5536840  51.1590630  30.8687670  41.2201450  39.9090380
  31.3080950  40.3823880  39.7628200  31.5816090  41.8530850  39.9954520
  22.6553670  41.2421650  52.5706490  22.5161440  42.1144450  52.9393890
  21.7735030  40.8994460  52.4254430  28.9783050  46.1597520  43.8771620
  29.4178960  46.9021850  43.4627010  28.9169940  46.4024090  44.8010580
  34.4504810  32.4744260  38.2231420  34.1377470  32.5671090  39.1230490
  35.2117280  33.0525290  38.1728850  20.9686950  39.8404060  42.6808760
  20.8484550  40.5666150  42.0690030  20.6587840  39.0706970  42.2036670
  18.6072320  43.0119200  48.4877400  18.6852740  43.1467970  47.5433120
  19.2214000  42.3035090  48.6805520  19.8519950  44.7119390  44.8983580
  19.4448030  44.8533980  44.0437180  20.7432960  44.4279550  44.6954790
  35.8082090  45.1583300  53.2355820  35.9345150  44.9195180  52.3173000
  35.8503470  44.3267840  53.7077900  29.6698830  48.8611300  51.8050630
  30.1843500  48.7719310  52.6073060  28.8267910  49.2071000  52.0978540
  31.6453230  49.1466640  41.2334630  31.4854370  48.8569580  42.1316460
  31.4799940  48.3706770  40.6979860  24.1241610  48.9265170  43.0106250
  23.9484090  48.0100710  42.7974050  23.2697350  49.2852460  43.2504050
  31.3479360  46.6554200  39.7932630  30.6544520  46.6531490  39.1334910
  32.0902220  46.2313520  39.3626800  30.9129290  48.2816910  43.8681120
  31.3686240  47.5006290  44.1819740  31.2521810  48.9923730  44.4122300
  35.6606100  37.2115760  54.2005560  35.0450370  37.7195430  53.6721020
  35.3402520  36.3114090  54.1431500  18.6631840  44.0533370  51.0271860
  18.8262880  43.5838730  50.2091230  19.1284290  43.5456930  51.6920700
  23.4350610  33.1839130  46.0632430  22.9918760  33.9648670  45.7316950
  23.9935600  33.5069020  46.7703370  27.7220420  36.0507650  51.6667750
  27.2599790  36.2590670  52.4787690  27.3198530  35.2367000  51.3638420
  32.7224930  37.2716600  52.7964410  31.8718520  36.9722350  53.1173480
  32.5626720  37.5158610  51.8848230  26.5509430  32.8049830  40.9438260
  25.9263610  32.8009700  41.6691570  26.4639550  31.9380790  40.5474230
  25.4726510  33.7286460  47.9222030  25.7698840  34.6349290  47.8414050
  26.0212070  33.2405240  47.3081600  23.2264830  38.3072700  43.7913680
  23.0005750  38.0909870  44.6960300  22.4457360  38.7401160  43.4459650
  30.4562590  38.3136070  42.3904330  29.8571480  39.0371870  42.2067950
  31.0042200  38.2512850  41.6080780  29.0627460  36.9499610  44.4207610
  29.4557030  37.2671810  43.6076300  29.4244310  36.0711490  44.5352130
  20.7974580  35.6171950  52.6107730  20.4037970  36.4647160  52.8180510
  20.1092980  34.9798320  52.8016370  18.0991630  33.5400410  46.6437810
  17.8104680  34.1103270  47.3562790  18.8437390  33.0604860  47.0069040
  18.2861860  37.4820530  37.8540530  18.2036530  38.4251290  37.9955520
  17.9344920  37.3395440  36.9752880  29.6482600  39.5405360  48.5158390
  28.9163720  40.0492170  48.8648490  29.2506940  38.7235340  48.2147170
  26.0859990  36.2159560  46.9210880  26.0896050  35.7749510  46.0715420
  26.9811110  36.5376890  47.0282700  21.9362370  36.0986050  45.8805090
  21.5962420  36.5761280  46.6372140  21.1739690  35.6451170  45.5206190
  26.1480140  37.2171640  39.9117640  26.2692960  37.1758120  40.8603460
  25.7628650  38.0795790  39.7564370  30.1108510  34.9939040  47.9281330
  30.1281250  35.4447690  48.7723180  29.8624090  34.0944680  48.1414770
  25.1601640  39.5272780  39.3100940  24.5918540  39.0791030  38.6836850
  25.8690640  39.8865560  38.7766090  20.2370820  43.4284800  53.1867670
  19.8525610  42.7878470  53.7850630  20.5483010  44.1320920  53.7562400
  26.3867960  40.2761340  48.6676290  26.7538090  39.8019910  49.4137630
  26.1973020  41.1502910  49.0084630  19.2508450  35.0205030  44.7969760
  18.9655370  34.6560700  45.6348380  19.1887310  34.2885490  44.1832900
  24.1767330  39.3169980  50.9860500  23.8724400  40.1961960  51.2110860
  25.1313790  39.3769770  51.0217940  22.7049120  43.5230970  41.5827350
  21.9311380  42.9828590  41.4226070  23.4343750  43.0037580  41.2445110
  33.4637100  42.5196330  47.3753740  34.1836220  43.0151620  46.9849850
  33.2618920  41.8414220  46.7307610  28.9247040  33.9134290  41.5183130
  28.1111650  33.4147460  41.4428440  28.7308990  34.7532540  41.1019480
  28.8455900  42.5905390  53.2622740  28.7793210  41.6701060  53.0080330
  28.2161040  42.6880830  53.9767380  31.6395430  38.2853940  39.8145290
  32.5275050  38.5971170  39.6396630  31.6100520  37.4126190  39.4225870
  22.7486520  43.1911350  45.2206160  23.2665190  42.3879610  45.1663050
  22.2970540  43.1290490  46.0622990  27.6356020  44.4577630  40.4933460
  27.9771720  45.2019860  39.9976780  26.8068730  44.7708750  40.8558290
  20.2331060  40.1572720  52.1331860  19.8746000  40.8226570  52.7205200
  19.9385620  39.3256270  52.5044480  28.7772630  45.4125960  53.0126540
  28.7917170  44.4806920  52.7945450  28.0697730  45.4985720  53.6516310
  33.9109700  39.5965780  39.2825150  33.8273420  40.0280000  38.4321590
  34.6303890  40.0564130  39.7151970  34.9883840  42.0533300  52.3595120
  34.2632030  42.6462080  52.1624510  35.5159300  42.0456840  51.5608490
  34.9396950  46.4508040  42.0107280  34.2973110  45.7963660  42.2851000
  34.5527610  46.8563130  41.2347950  30.5183430  43.7793470  45.8578970
  30.8707250  43.1821600  45.1980340  29.6345760  43.4537700  46.0287220
  26.6046710  44.5391160  43.2649380  27.2917840  45.0860370  43.6456970
  25.8179130  45.0831890  43.2998990  18.7439110  40.1563980  38.7566460
  19.6133960  40.4388780  39.0402380  18.2529430  40.9699850  38.6415270
  25.9073920  41.5437190  42.8774740  26.3636700  42.3542440  43.1034930
  25.5562130  41.2260330  43.7093230  28.2106530  47.0543530  50.1067040
  28.8548750  47.2602910  50.7840460  28.5735970  46.2931930  49.6537890
  21.8085700  31.8874840  43.3497260  21.6800330  31.8792740  44.2982180
  20.9847720  32.2257930  42.9988270  29.4838610  45.0575880  48.8244490
  30.1260840  44.3569040  48.9376660  30.0087960  45.8374320  48.6441380
  33.3294330  45.3424500  38.5483630  33.1031910  44.6254940  39.1408270
  32.9390530  45.0936940  37.7105380  31.2576230  45.8570780  52.0280550
  31.5932470  46.4437470  52.7058470  30.3376570  45.7263490  52.2578340
  19.1110360  49.3691360  39.3228090  19.4708000  49.9680700  38.6685360
  18.9702700  49.9151250  40.0963120  18.8079630  33.6465960  52.8103960
  18.0938150  33.8462880  53.4156570  19.2274670  32.8705530  53.1818760
  32.9110580  43.2596440  40.2097790  32.6232280  43.7209130  40.9975670
  33.7062750  42.7994210  40.4782010  19.0952220  47.6346220  53.7970490
  19.2043340  46.6940960  53.6565880  18.4432780  47.9000970  53.1484220
  25.1278980  46.7522560  40.1401760  25.1189080  47.4852250  39.5246270
  24.2077340  46.5054140  40.2328720  20.7285620  41.9737450  40.8848520
  20.1213570  42.7136350  40.8943820  21.2034970  42.0636810  40.0586720
  30.3018410  36.1388270  50.5605410  30.6699230  35.3183480  50.8884980
  29.4416610  36.1990160  50.9761060  33.6680440  35.0945210  41.3692970
  33.0393600  35.1990880  40.6551200  33.1732360  35.3141990  42.1586850
  28.1138580  46.8150800  38.8026950  28.2150560  46.6114790  37.8728930
  27.2140320  46.5609080  39.0074730  25.6364470  37.3731160  42.7850850
  24.9280620  37.8417500  43.2264460  25.9208950  36.7153170  43.4196040
  27.2620400  38.7927860  50.7843380  27.7605650  39.2673680  51.4495230
  27.4043350  37.8691380  50.9913410  29.6679900  34.0981820  44.2246640
  29.5447680  34.1167950  43.2756150  30.6164460  34.1460760  44.3445040
  26.7556690  49.3337120  43.4974620  27.0098190  49.2958510  42.5753990
  25.8069170  49.2070450  43.4902870  23.8399490  35.6816240  40.1601560
  24.6890020  36.1186390  40.0941750  23.4730760  35.9936500  40.9873620
  34.4687260  35.0095820  51.6271770  33.9660860  35.7501220  51.9665580
  35.2843920  35.3979820  51.3108560  32.7609270  40.2529000  45.0733130
  31.8199410  40.2679230  45.2480820  33.0753340  39.4664960  45.5193430
  22.7390910  41.9348600  38.6337090  23.5054180  41.8229960  39.1962520
  22.8165600  41.2386570  37.9813860  21.4337670  39.3673670  39.3169980
  21.5141260  38.4201180  39.4287380  22.3257420  39.6980550  39.4230640
  34.7634850  47.4237850  46.7487390  34.8882270  48.2469020  47.2211200
  35.6300410  47.2128580  46.4011540  22.2352380  49.5169060  46.4204520
  22.9714860  48.9684520  46.6913090  22.6193300  50.3825070  46.2810510
  19.1197860  45.5842630  42.2946030  18.1937640  45.8263770  42.2851440
  19.5854290  46.4116890  42.1730780  25.3454690  48.6899370  38.2430090
  26.1383300  48.9788200  37.7911880  24.8259040  48.2591540  37.5642570
  34.3984860  47.9169500  39.6666830  34.1126370  47.5034640  38.8521010
  34.2004410  48.8457210  39.5467350  25.8632090  43.9102780  38.1072440
  25.7582730  43.2955130  38.8333820  25.6956310  43.3868670  37.3235450
  26.0146410  42.5959580  54.0861670  25.2492080  43.1644580  54.0016340
  26.1962370  42.3035790  53.1929900  29.1034820  42.9722810  38.7114430
  28.5544920  43.4192110  39.3557170  29.7254080  42.4672060  39.2352100
  24.7709940  41.9313730  40.6079730  25.1926360  41.7653600  41.4511120
  24.8960780  41.1213960  40.1134870  22.9337360  37.9110280  53.4150710
  22.4033820  37.4201230  52.7874050  23.6025430  38.3394480  52.8808640
  27.2837580  40.9551340  37.8556830  27.8043240  40.2400360  37.4897980
  27.9305980  41.5937210  38.1557340  31.8315420  42.3779740  53.1791900
  32.2456440  42.5324820  54.0282320  30.8966420  42.5034960  53.3417680
  23.4209660  34.8772650  53.4948000  23.3266530  34.2593400  52.7698870
  22.8407050  35.6038940  53.2677910  26.1871100  33.4345890  50.5275390
  25.7388400  33.4570150  49.6820940  25.5536300  33.0364910  51.1245690
  26.5930650  42.3300220  51.1487830  27.0118760  43.1732950  50.9764070
  25.6739280  42.4672260  50.9194610  28.9294550  40.0616400  52.5325670
  29.0490760  39.4657540  53.2720510  29.7888550  40.0986090  52.1126970
  31.2682450  40.6153590  51.1088180  30.7417670  41.1396210  50.5053320
  31.6113790  41.2480980  51.7397910  23.6668840  38.0046960  37.5537890
  23.4657900  37.1414320  37.9151230  23.4960890  37.9180320  36.6159490
  24.4438070  48.6353230  52.2645560  23.9059160  49.3599290  51.9454260
  24.6972030  48.1583570  51.4742900  31.1457150  32.8155190  40.0824770
  31.4259440  31.9723090  40.4384190  30.3722880  33.0478300  40.5963520
  22.4651640  35.1047580  37.5415770  22.7677540  35.1115010  36.6334920
  23.2046230  34.7545440  38.0383430  27.3000280  49.8704440  52.5232210
  27.2258980  50.7739580  52.8304580  26.3979120  49.5516340  52.4954280
  25.6836570  34.0482200  38.5271970  25.3358570  33.3706190  37.9474420
  25.8849340  33.5871710  39.3415360  27.8485610  49.0362950  40.1458570
  28.7436400  49.3747920  40.1677330  27.8803240  48.3142360  39.5182850
  21.4881770  44.4090000  38.3745570  21.9256640  44.9519670  39.0303150
  21.9729500  43.5836950  38.3841910  18.7027570  47.1979030  45.8265830
  19.0330580  46.3300090  45.5944470  19.1318570  47.4037550  46.6570790
  23.2989490  45.5288040  43.4867800  22.9985030  45.4053010  44.3871710
  23.1926980  44.6696630  43.0783530  19.1917780  48.0649620  48.5647460
  18.7548770  48.2450420  49.3971610  19.7595460  48.8224240  48.4229180
  34.8279960  47.5666620  52.8524770  34.2281950  47.6259180  52.1088690
  34.9573860  46.6271600  52.9821620  36.0681410  45.3084440  38.1894480
  35.2374370  45.3761090  38.6601710  36.2453240  46.1988560  37.8861340
  35.5237870  42.0531920  40.6928680  36.2856780  42.6228570  40.7988370
  35.5392240  41.4859120  41.4636990  19.0242210  40.5769850  44.9236340
  18.3691050  40.3081490  44.2796040  19.8620160  40.4674330  44.4738320
  36.5297840  42.9082020  45.5370610  36.9006670  42.1249340  45.1306580
  37.1699770  43.5971120  45.3587910  33.5131600  44.2918600  50.9500930
  32.6991440  44.7215760  51.2126720  33.9205800  44.9037010  50.3369980
  35.5757040  42.3466290  37.8501200  35.8505880  43.2545170  37.7220420
  35.3867780  42.2828820  38.7863190  31.9732650  35.3711140  39.1454830
  32.3917530  35.1842120  38.3051490  31.6668710  34.5190190  39.4557760
  35.4722380  40.2835280  42.8430630  35.0965980  39.5163210  42.4111920
  34.7425500  40.6657980  43.3305560  20.0618140  40.9622420  49.4639680
  20.4291180  40.8749820  50.3435700  19.4928960  40.1988970  49.3646540
  34.8622000  39.4306800  52.4770150  34.6308090  39.2019550  51.5768100
  35.1226550  40.3506350  52.4315040  19.6134140  37.8731510  53.3698100
  18.7190190  37.8398270  53.7091810  20.1531690  38.0718300  54.1349350
  18.2380290  37.7868780  40.8661670  17.3344370  38.0498980  40.6913330
  18.7220910  38.0579950  40.0861630  34.7473340  38.5092770  46.1437870
  35.2710820  38.0155420  45.5128040  35.3332760  38.6443130  46.8885440
  34.9263060  38.5932640  49.6657420  33.9765770  38.5596180  49.7802410
  35.1076070  39.5032750  49.4307190  20.7807500  36.8434320  38.7756050
  21.4899200  36.4217540  38.2903330  20.0647440  36.9109550  38.1439400
  20.4281660  32.8973650  37.8158700  21.1509790  33.4382590  38.1339920
  20.7006180  32.6237070  36.9400240  34.2373310  37.7666120  42.0830280
  34.7332430  37.5336990  42.8679160  34.0389380  36.9277960  41.6667920
  20.1173850  32.1479840  47.7181320  20.7650040  31.5977220  47.2776480
  20.5375690  32.4022990  48.5397130  35.6660470  36.4027070  44.6167960
  35.5559750  36.2483110  45.5550230  36.4268060  35.8748010  44.3743370
  34.0126190  32.3421200  51.0750960  34.6498410  32.9555340  51.4410150
  34.1601080  32.3781860  50.1300190  36.5550740  34.2334990  37.8574100
  37.4800050  34.1016170  37.6492390  36.5326530  34.3127810  38.8110550
  36.6289230  35.0045650  40.4830810  35.8340730  34.9390770  41.0123720
  36.8332510  35.9396290  40.4716160  33.5707650  49.0437200  44.4769200
  34.1666720  48.7221770  43.8003620  33.8285800  48.5709020  45.2682470
  19.8705850  32.3035510  50.4606640  19.5220670  32.7599330  51.2264820
  19.5393550  31.4092640  50.5429070  25.1776250  47.0314700  50.2269550
  24.9367610  47.2989260  49.3400070  26.1178890  47.2020430  50.2820410
  36.4380410  49.0509080  51.0280190  35.9438690  49.4477950  50.3107320
  35.8293700  48.4258290  51.4217470  21.3158250  48.4217360  51.7457610
  20.7218570  48.2902060  52.4847650  21.3082090  47.5855500  51.2799710
  30.7613270  31.7149590  49.9487640  29.8873110  32.0484700  49.7460570
  30.6524020  31.2422770  50.7739510  31.6685250  33.9220460  51.3329360
  31.3398610  33.1072220  50.9531090  32.6167550  33.8790270  51.2095050
  34.1219860  49.6932500  48.3066930  33.6622830  50.4448310  47.9324950
  33.4932320  48.9738970  48.2481730  20.9470480  45.7875740  50.6965650
  20.2204540  45.1681030  50.6291600  21.0079630  46.1816350  49.8263730
  24.5515580  48.0020740  47.4815060  25.0680600  47.3908100  46.9563320
  25.2012960  48.5049520  47.9726070  27.2911080  48.8929230  48.3084040
  27.5788890  48.6383530  47.4317050  27.8034300  48.3406590  48.8989610
  28.5088090  32.6319430  48.8880550  27.7259880  33.1064930  49.1677310
  28.2151020  31.7274260  48.7793730  33.0609160  33.3342530  46.9329640
  33.5017250  33.2787630  46.0851240  32.7916750  34.2500540  47.0039820
  34.9247730  32.9657770  44.9438460  34.8636130  32.0218990  44.7969480
  35.7039760  33.0737860  45.4891920  19.2300480  49.1050130  43.9062410
  19.0622520  48.4720810  44.6044300  18.3634990  49.3109530  43.5556600
  19.8528500  32.9366910  41.4094270  20.6107860  33.0495790  40.8358300
  19.3905670  33.7736110  41.3637700  26.3942310  35.0506180  44.3996580
  25.5816820  34.6763070  44.0592460  26.8983950  34.2951260  44.7017770
  30.8967290  31.7148630  45.6379650  31.4996660  32.2868840  46.1128170
  30.1560280  32.2788070  45.4153550  34.0401890  32.1170190  40.9119930
  34.2352520  33.0153640  41.1787360  33.2531760  31.8857270  41.4052880
  20.8363180  47.7983360  41.3512550  20.3110800  48.1791390  40.6474510
  20.7607760  48.4234130  42.0722260  22.2253650  33.4630960  39.9496240
  22.7546410  32.6760760  39.8204190  22.8581970  34.1422150  40.1831770
  24.4191490  33.2006100  43.0041630  23.7894230  32.4993410  43.1711760
  23.8796630  33.9610230  42.7874790  35.5928500  49.3570900  42.6726490
  35.7680690  48.6708640  42.0287410  34.8950070  49.8817950  42.2803160
  23.4356150  49.7465740  40.2261800  24.1674970  49.4625020  39.6785690
  23.6949820  49.5079020  41.1161180  22.5970940  45.8630470  40.2308130
  21.9679820  46.3315570  40.7793960  22.7118770  45.0179690  40.6654320
  20.6096480  36.9636850  22.9236750  19.7213180  37.3052820  22.8216630
  20.8937670  36.7637170  22.0317580  18.5729490  39.5642500  28.8076450
  19.1445600  38.7964700  28.8080090  18.5731030  39.8631260  27.8983060
  19.8154360  34.9726860  30.5945380  19.6357200  34.0752610  30.8748140
  19.4134440  35.5198730  31.2692330  22.7857870  35.5468350  23.9575130
  22.8924620  36.4472080  24.2643890  21.8750230  35.4986320  23.6669780
  20.4341030  37.4687360  29.2027720  21.1151140  37.7325730  29.8215120
  20.1189080  36.6288230  29.5365730  36.7276530  36.6859910  31.9929660
  36.0228700  37.0741620  31.4744770  36.9934450  37.3810200  32.5950590
  22.9101700  33.1553280  32.5563730  22.9120140  33.6725670  31.7509630
  22.0806010  32.6783460  32.5333660  22.5917030  34.8663240  30.5634180
  22.9333840  35.7105290  30.2688050  21.6532840  35.0146980  30.6799520
  23.3723650  44.7629260  32.5486410  23.9897650  45.4380340  32.2670860
  22.5116770  45.1717240  32.4573910  18.6655990  43.9529120  21.4293260
  18.2883970  44.4416220  20.6978160  18.9229060  44.6254400  22.0599790
  31.2245420  42.9742640  30.5068840  31.6414210  42.7602750  29.6722300
  31.9485240  43.2315430  31.0777460  28.6494760  36.6911340  20.6206050
  27.7098430  36.8525300  20.7058510  28.9678020  37.4097020  20.0742040
  35.1707520  41.3729860  30.5985080  34.3426150  41.4422950  30.1235210
  35.7658000  41.9584170  30.1300910  22.9810940  37.7202290  30.1857660
  23.5325530  37.8297630  29.4110910  23.4954450  38.0939890  30.9012890
  32.8249630  48.2058510  32.2320930  32.3480190  49.0130700  32.0393540
  32.1411420  47.5536840  32.3847140  23.8282450  44.3708330  35.2205630
  22.9310980  44.5948300  35.4679030  23.8535320  44.4943270  34.2717030
  30.8687670  41.2201450  21.1346890  31.3080950  40.3823880  20.9884710
  31.5816090  41.8530850  21.2211030  22.6553670  41.2421650  33.7963000
  22.5161440  42.1144450  34.1650400  21.7735030  40.8994460  33.6510940
  24.4534020  47.1843350  36.0048150  24.4249450  47.5886300  35.1376580
  24.2898990  46.2553710  35.8419750  34.4504810  32.4744260  19.4487930
  34.1377470  32.5671090  20.3487000  35.2117280  33.0525290  19.3985360
  20.9686950  39.8404060  23.9065270  20.8484550  40.5666150  23.2946540
  20.6587840  39.0706970  23.4293180  36.4048840  47.9670450  37.3012320
  36.8808560  48.4453340  37.9801400  37.0256000  47.8987940  36.5757820
  18.6072320  43.0119200  29.7133910  18.6852740  43.1467970  28.7689630
  19.2214000  42.3035090  29.9062030  19.8519950  44.7119390  26.1240090
  19.4448030  44.8533980  25.2693690  20.7432960  44.4279550  25.9211300
  35.8082090  45.1583300  34.4612330  35.9345150  44.9195180  33.5429510
  35.8503470  44.3267840  34.9334410  29.6698830  48.8611300  33.0307140
  30.1843500  48.7719310  33.8329570  28.8267910  49.2071000  33.3235050
  31.6453230  49.1466640  22.4591140  31.4854370  48.8569580  23.3572970
  31.4799940  48.3706770  21.9236370  31.3479360  46.6554200  21.0189140
  30.6544520  46.6531490  20.3591420  32.0902220  46.2313520  20.5883310
  35.6606100  37.2115760  35.4262070  35.0450370  37.7195430  34.8977530
  35.3402520  36.3114090  35.3688010  18.6631840  44.0533370  32.2528370
  18.8262880  43.5838730  31.4347740  19.1284290  43.5456930  32.9177210
  27.7220420  36.0507650  32.8924260  27.2599790  36.2590670  33.7044200
  27.3198530  35.2367000  32.5894930  32.7224930  37.2716600  34.0220920
  31.8718520  36.9722350  34.3429990  32.5626720  37.5158610  33.1104740
  29.8174640  38.7718350  36.1219710  30.1428050  37.9382100  35.7821940
  30.6054970  39.2946870  36.2698040  26.5509430  32.8049830  22.1694770
  25.9263610  32.8009700  22.8948080  26.4639550  31.9380790  21.7730740
  23.2264830  38.3072700  25.0170190  23.0005750  38.0909870  25.9216810
  22.4457360  38.7401160  24.6716160  25.6664040  39.2058280  35.6830460
  25.5707640  38.2653010  35.5330860  26.5096020  39.4273350  35.2878530
  20.7974580  35.6171950  33.8364240  20.4037970  36.4647160  34.0437020
  20.1092980  34.9798320  34.0272880  27.3719630  35.7006920  36.9060980
  26.6817950  35.5079120  37.5407070  28.1151930  35.9841560  37.4385280
  18.0991630  33.5400410  27.8694320  17.8104680  34.1103270  28.5819300
  18.8437390  33.0604860  28.2325550  18.2861860  37.4820530  19.0797040
  18.2036530  38.4251290  19.2212030  17.9344920  37.3395440  18.2009390
  21.9362370  36.0986050  27.1061600  21.5962420  36.5761280  27.8628650
  21.1739690  35.6451170  26.7462700  26.1480140  37.2171640  21.1374150
  26.2692960  37.1758120  22.0859970  25.7628650  38.0795790  20.9820880
  25.1601640  39.5272780  20.5357450  24.5918540  39.0791030  19.9093360
  25.8690640  39.8865560  20.0022600  33.5379260  32.4071220  34.9924220
  33.8625030  31.6760880  35.5182200  33.5735770  32.0884860  34.0905210
  20.2370820  43.4284800  34.4124180  19.8525610  42.7878470  35.0107140
  20.5483010  44.1320920  34.9818910  19.2508450  35.0205030  26.0226270
  18.9655370  34.6560700  26.8604890  19.1887310  34.2885490  25.4089410
  22.7049120  43.5230970  22.8083860  21.9311380  42.9828590  22.6482580
  23.4343750  43.0037580  22.4701620  28.9247040  33.9134290  22.7439640
  28.1111650  33.4147460  22.6684950  28.7308990  34.7532540  22.3275990
  28.8455900  42.5905390  34.4879250  28.7793210  41.6701060  34.2336840
  28.2161040  42.6880830  35.2023890  31.6395430  38.2853940  21.0401800
  32.5275050  38.5971170  20.8653140  31.6100520  37.4126190  20.6482380
  22.7486520  43.1911350  26.4462670  23.2665190  42.3879610  26.3919560
  22.2970540  43.1290490  27.2879500  27.6356020  44.4577630  21.7189970
  27.9771720  45.2019860  21.2233290  26.8068730  44.7708750  22.0814800
  20.2331060  40.1572720  33.3588370  19.8746000  40.8226570  33.9461710
  19.9385620  39.3256270  33.7300990  23.4344180  40.6156960  36.2427920
  23.1344320  40.7614140  35.3455740  24.2055420  40.0562250  36.1501310
  28.7772630  45.4125960  34.2383050  28.7917170  44.4806920  34.0201960
  28.0697730  45.4985720  34.8772820  34.9883840  42.0533300  33.5851630
  34.2632030  42.6462080  33.3881020  35.5159300  42.0456840  32.7865000
  18.7439110  40.1563980  19.9822970  19.6133960  40.4388780  20.2658890
  18.2529430  40.9699850  19.8671780  28.2106530  47.0543530  31.3323550
  28.8548750  47.2602910  32.0096970  28.5735970  46.2931930  30.8794400
  21.8085700  31.8874840  24.5753770  21.6800330  31.8792740  25.5238690
  20.9847720  32.2257930  24.2244780  33.3294330  45.3424500  19.7740140
  33.1031910  44.6254940  20.3664780  32.9390530  45.0936940  18.9361890
  31.2576230  45.8570780  33.2537060  31.5932470  46.4437470  33.9314980
  30.3376570  45.7263490  33.4834850  19.1110360  49.3691360  20.5484600
  19.4708000  49.9680700  19.8941870  18.9702700  49.9151250  21.3219630
  18.8079630  33.6465960  34.0360470  18.0938150  33.8462880  34.6413080
  19.2274670  32.8705530  34.4075270  19.0952220  47.6346220  35.0227000
  19.2043340  46.6940960  34.8822390  18.4432780  47.9000970  34.3740730
  27.0864810  45.9062110  36.4225120  26.7661680  45.1871350  36.9670810
  26.4123170  46.5817180  36.4961180  25.1278980  46.7522560  21.3658270
  25.1189080  47.4852250  20.7502780  24.2077340  46.5054140  21.4585230
  20.7285620  41.9737450  22.1105030  20.1213570  42.7136350  22.1200330
  21.2034970  42.0636810  21.2843230  30.3018410  36.1388270  31.7861920
  30.6699230  35.3183480  32.1141490  29.4416610  36.1990160  32.2017570
  28.1138580  46.8150800  20.0283460  28.2150560  46.6114790  19.0985440
  27.2140320  46.5609080  20.2331240  23.8399490  35.6816240  21.3858070
  24.6890020  36.1186390  21.3198260  23.4730760  35.9936500  22.2130130
  34.4687260  35.0095820  32.8528280  33.9660860  35.7501220  33.1922090
  35.2843920  35.3979820  32.5365070  22.7390910  41.9348600  19.8593600
  23.5054180  41.8229960  20.4219030  22.8165600  41.2386570  19.2070370
  21.4337670  39.3673670  20.5426490  21.5141260  38.4201180  20.6543890
  22.3257420  39.6980550  20.6487150  22.2352380  49.5169060  27.6461030
  22.9714860  48.9684520  27.9169600  22.6193300  50.3825070  27.5067020
  19.1197860  45.5842630  23.5202540  18.1937640  45.8263770  23.5107950
  19.5854290  46.4116890  23.3987290  21.2410660  48.7015130  36.8346610
  22.0423390  49.0227180  37.2482010  20.7262480  48.3410710  37.5566520
  25.3454690  48.6899370  19.4686600  26.1383300  48.9788200  19.0168390
  24.8259040  48.2591540  18.7899080  30.0775290  44.8095000  36.7822020
  29.4713450  44.8326600  36.0417770  29.7729400  44.0778040  37.3189270
  31.5075660  48.5375290  35.3931430  32.4597410  48.4533310  35.3431670
  31.3603880  49.2017000  36.0665220  34.3984860  47.9169500  20.8923340
  34.1126370  47.5034640  20.0777520  34.2004410  48.8457210  20.7723860
  18.9608470  41.1888590  35.7782660  19.4647490  40.6095870  36.3498890
  18.2215890  41.4728820  36.3159030  25.8632090  43.9102780  19.3328950
  25.7582730  43.2955130  20.0590330  25.6956310  43.3868670  18.5491960
  26.0146410  42.5959580  35.3118180  25.2492080  43.1644580  35.2272850
  26.1962370  42.3035790  34.4186410  29.1034820  42.9722810  19.9370940
  28.5544920  43.4192110  20.5813680  29.7254080  42.4672060  20.4608610
  33.1569760  44.3264910  35.8693200  33.8979230  44.6640670  35.3660660
  32.3942440  44.4956970  35.3162970  20.9931550  39.3318180  36.6732730
  21.0336890  39.0332050  37.5817960  21.8477050  39.7325790  36.5140250
  24.7709940  41.9313730  21.8336240  25.1926360  41.7653600  22.6767630
  24.8960780  41.1213960  21.3391380  22.9337360  37.9110280  34.6407220
  22.4033820  37.4201230  34.0130560  23.6025430  38.3394480  34.1065150
  27.2837580  40.9551340  19.0813340  27.8043240  40.2400360  18.7154490
  27.9305980  41.5937210  19.3813850  31.8315420  42.3779740  34.4048410
  32.2456440  42.5324820  35.2538830  30.8966420  42.5034960  34.5674190
  32.3037590  39.7175900  36.4087560  32.8858360  38.9628220  36.3208040
  32.4799360  40.2483340  35.6319040  23.4209660  34.8772650  34.7204510
  23.3266530  34.2593400  33.9955380  22.8407050  35.6038940  34.4934420
  26.1871100  33.4345890  31.7531900  25.7388400  33.4570150  30.9077450
  25.5536300  33.0364910  32.3502200  28.9294550  40.0616400  33.7582180
  29.0490760  39.4657540  34.4977020  29.7888550  40.0986090  33.3383480
  31.2682450  40.6153590  32.3344690  30.7417670  41.1396210  31.7309830
  31.6113790  41.2480980  32.9654420  23.6668840  38.0046960  18.7794400
  23.4657900  37.1414320  19.1407740  23.4960890  37.9180320  17.8416000
  24.4438070  48.6353230  33.4902070  23.9059160  49.3599290  33.1710770
  24.6972030  48.1583570  32.6999410  25.6963320  36.6037750  35.0158000
  26.2863010  36.2953600  35.7035820  24.8783560  36.1317500  35.1717900
  30.5156750  36.2203560  35.2491020  29.8272270  35.5585100  35.1841010
  31.2362770  35.7741830  35.6939480  31.1457150  32.8155190  21.3081280
  31.4259440  31.9723090  21.6640700  30.3722880  33.0478300  21.8220030
  22.4651640  35.1047580  18.7672280  22.7677540  35.1115010  17.8591430
  23.2046230  34.7545440  19.2639940  27.3000280  49.8704440  33.7488720
  27.2258980  50.7739580  34.0561090  26.3979120  49.5516340  33.7210790
  25.6836570  34.0482200  19.7528480  25.3358570  33.3706190  19.1730930
  25.8849340  33.5871710  20.5671870  27.8485610  49.0362950  21.3715080
  28.7436400  49.3747920  21.3933840  27.8803240  48.3142360  20.7439360
  21.4881770  44.4090000  19.6002080  21.9256640  44.9519670  20.2559660
  21.9729500  43.5836950  19.6098420  18.7027570  47.1979030  27.0522340
  19.0330580  46.3300090  26.8200980  19.1318570  47.4037550  27.8827300
  19.1917780  48.0649620  29.7903970  18.7548770  48.2450420  30.6228120
  19.7595460  48.8224240  29.6485690  34.8279960  47.5666620  34.0781280
  34.2281950  47.6259180  33.3345200  34.9573860  46.6271600  34.2078130
  36.0681410  45.3084440  19.4150990  35.2374370  45.3761090  19.8858220
  36.2453240  46.1988560  19.1117850  19.0242210  40.5769850  26.1492850
  18.3691050  40.3081490  25.5052550  19.8620160  40.4674330  25.6994830
  33.5131600  44.2918600  32.1757440  32.6991440  44.7215760  32.4383230
  33.9205800  44.9037010  31.5626490  35.5757040  42.3466290  19.0757710
  35.8505880  43.2545170  18.9476930  35.3867780  42.2828820  20.0119700
  31.9732650  35.3711140  20.3711340  32.3917530  35.1842120  19.5308000
  31.6668710  34.5190190  20.6814270  20.0618140  40.9622420  30.6896190
  20.4291180  40.8749820  31.5692210  19.4928960  40.1988970  30.5903050
  34.8622000  39.4306800  33.7026660  34.6308090  39.2019550  32.8024610
  35.1226550  40.3506350  33.6571550  19.6134140  37.8731510  34.5954610
  18.7190190  37.8398270  34.9348320  20.1531690  38.0718300  35.3605860
  33.3010070  34.6563230  36.4806360  34.1780250  34.6646630  36.8640360
  33.3130910  33.9194070  35.8698710  18.2380290  37.7868780  22.0918180
  17.3344370  38.0498980  21.9169840  18.7220910  38.0579950  21.3118140
  34.9263060  38.5932640  30.8913930  33.9765770  38.5596180  31.0058920
  35.1076070  39.5032750  30.6563700  20.7807500  36.8434320  20.0012560
  21.4899200  36.4217540  19.5159840  20.0647440  36.9109550  19.3695910
  20.4281660  32.8973650  19.0415210  21.1509790  33.4382590  19.3596430
  20.7006180  32.6237070  18.1656750  20.1173850  32.1479840  28.9437830
  20.7650040  31.5977220  28.5032990  20.5375690  32.4022990  29.7653640
  34.0126190  32.3421200  32.3007470  34.6498410  32.9555340  32.6666660
  34.1601080  32.3781860  31.3556700  36.5550740  34.2334990  19.0830610
  37.4800050  34.1016170  18.8748900  36.5326530  34.3127810  20.0367060
  36.6289230  35.0045650  21.7087320  35.8340730  34.9390770  22.2380230
  36.8332510  35.9396290  21.6972670  19.8705850  32.3035510  31.6863150
  19.5220670  32.7599330  32.4521330  19.5393550  31.4092640  31.7685580
  21.4770220  45.4755110  35.8516340  21.4339850  45.1048020  36.7330800
  21.6081230  46.4132680  35.9918160  27.3830670  33.4947390  35.2082570
  27.3219560  34.0869220  35.9577980  28.3231050  33.3873350  35.0632830
  30.0205230  33.1517450  34.8474860  30.6345640  33.4696740  34.1855940
  30.5654790  32.6666040  35.4670720  36.4380410  49.0509080  32.2536700
  35.9438690  49.4477950  31.5363830  35.8293700  48.4258290  32.6473980
  20.5426490  31.8311710  34.9613920  21.0909480  31.6499760  34.1980030
  20.6081800  31.0405820  35.4970230  21.3158250  48.4217360  32.9714120
  20.7218570  48.2902060  33.7104160  21.3082090  47.5855500  32.5056220
  31.6685250  33.9220460  32.5585870  31.3398610  33.1072220  32.1787600
  32.6167550  33.8790270  32.4351560  20.9470480  45.7875740  31.9222160
  20.2204540  45.1681030  31.8548110  21.0079630  46.1816350  31.0520240
  19.2300480  49.1050130  25.1318920  19.0622520  48.4720810  25.8300810
  18.3634990  49.3109530  24.7813110  19.8528500  32.9366910  22.6350780
  20.6107860  33.0495790  22.0614810  19.3905670  33.7736110  22.5894210
  34.0401890  32.1170190  22.1376440  34.2352520  33.0153640  22.4043870
  33.2531760  31.8857270  22.6309390  20.8363180  47.7983360  22.5769060
  20.3110800  48.1791390  21.8731020  20.7607760  48.4234130  23.2978770
  22.2253650  33.4630960  21.1752750  22.7546410  32.6760760  21.0460700
  22.8581970  34.1422150  21.4088280  24.4191490  33.2006100  24.2298140
  23.7894230  32.4993410  24.3968270  23.8796630  33.9610230  24.0131300
  27.3583440  49.8145330  36.9008750  28.2850750  49.5789600  36.9444710
  27.3433870  50.6417330  36.4194780  24.5447050  32.4790080  36.6650630
  24.2631320  32.9823680  35.9011450  24.9266750  31.6811830  36.2992760
  23.4356150  49.7465740  21.4518310  24.1674970  49.4625020  20.9042200
  23.6949820  49.5079020  22.3417690  22.5970940  45.8630470  21.4564640
  21.9679820  46.3315570  22.0050470  22.7118770  45.0179690  21.8910830
  31.1462510  31.8943660  37.2431100  31.0327960  32.2138270  38.1382620
  31.9632250  32.2956170  36.9468380  33.9261000  49.0415190  36.7249790
  34.7186320  48.5464420  36.5175750  34.2194150  49.7205330  37.3325400
  30.0520660  39.9136130   7.6065840  29.9714710  38.9990740   7.3357550
  29.6385080  40.4103200   6.9005550  28.1838700  41.6915150   9.4875110
  27.4080800  41.2115590   9.7773680  28.8351630  41.0120800   9.3131270
  22.2004530  42.0034960  10.3650870  21.3689410  41.7483670  10.7647380
  22.8085510  42.0745730  11.1008790  32.2046130  46.0975340   8.2674240
  31.7427660  45.3262580   8.5961410  33.0171680  46.1241410   8.7726690
  22.1805790  46.0375050  10.5608890  22.4833830  45.1472790  10.3819110
  22.9249380  46.5945270  10.3331140  20.6096480  36.9636850   4.1493260
  19.7213180  37.3052820   4.0473140  20.8937670  36.7637170   3.2574090
  18.5729490  39.5642500  10.0332960  19.1445600  38.7964700  10.0336600
  18.5731030  39.8631260   9.1239570  28.4309440  48.3833350   7.8878230
  27.8120880  48.8390850   7.3172670  29.2861220  48.5384810   7.4867930
  27.6247690  44.3672340   9.4945270  27.5555970  43.4262280   9.3334400
  28.3867550  44.4573750  10.0667840  19.8154360  34.9726860  11.8201890
  19.6357200  34.0752610  12.1004650  19.4134440  35.5198730  12.4948840
  28.6552860  37.1742720   9.7214200  29.0317680  36.3014600   9.6087870
  28.5572370  37.5101420   8.8304640  22.7857870  35.5468350   5.1831640
  22.8924620  36.4472080   5.4900400  21.8750230  35.4986320   4.8926290
  32.4376980  34.6693160   6.6542540  33.2586600  34.1789730   6.6968020
  32.4711060  35.2590820   7.4074380  20.4341030  37.4687360  10.4284230
  21.1151140  37.7325730  11.0471630  20.1189080  36.6288230  10.7622240
  24.6265600  38.5154720   9.5156820  25.1343820  39.0135690  10.1561840
  25.1578840  37.7389920   9.3396180  36.7276530  36.6859910  13.2186170
  36.0228700  37.0741620  12.7001280  36.9934450  37.3810200  13.8207100
  22.9101700  33.1553280  13.7820240  22.9120140  33.6725670  12.9766140
  22.0806010  32.6783460  13.7590170  29.2972790  43.2672590   5.2810140
  28.6790060  43.7322040   4.7172860  29.8096040  43.9600070   5.6979650
  24.1604550  42.7948460  11.9593740  23.8273930  43.4217380  12.6014810
  24.3371230  43.3210340  11.1795410  32.6738460  36.6093540   9.4270080
  31.9694030  36.8978430  10.0073190  33.0350620  37.4193650   9.0669640
  22.5917030  34.8663240  11.7890690  22.9333840  35.7105290  11.4944560
  21.6532840  35.0146980  11.9056030  23.3723650  44.7629260  13.7742920
  23.9897650  45.4380340  13.4927370  22.5116770  45.1717240  13.6830420
  18.6655990  43.9529120   2.6549770  18.2883970  44.4416220   1.9234670
  18.9229060  44.6254400   3.2856300  34.2901240  46.2268670  11.6897560
  33.6064760  46.8967780  11.6814230  34.8295530  46.4249320  10.9242420
  35.7425380  36.0548330   9.8179290  34.7950290  36.0887310   9.9494720
  36.0675370  36.8687280  10.2028650  26.2744920  32.3545510   8.1135280
  26.5819900  31.7992400   7.3970780  25.3445620  32.4889970   7.9308270
  31.8259980  48.0712800  10.4042740  31.8387140  47.6675090   9.5365000
  31.2735200  48.8460090  10.3004170  33.1205400  44.7929020   5.4932910
  33.0101730  43.8503350   5.6182330  33.1173650  45.1544660   6.3795670
  31.2245420  42.9742640  11.7325350  31.6414210  42.7602750  10.8978810
  31.9485240  43.2315430  12.3033970  28.6625680  40.4194340   4.8495400
  27.7354960  40.3531720   5.0783870  28.8150500  41.3574470   4.7350640
  35.1707520  41.3729860  11.8241590  34.3426150  41.4422950  11.3491720
  35.7658000  41.9584170  11.3557420  32.6922970  41.9814640   5.3530650
  32.0735390  41.6434190   4.7056950  32.6747420  41.3374400   6.0609840
  32.1349530  38.1599180  12.7696460  31.7220710  38.9852890  13.0236450
  31.4025480  37.5744220  12.5772820  24.2682320  40.9459080   7.6315130
  23.8639320  40.2336330   7.1361030  24.3545440  40.6012320   8.5203170
  24.7364020  44.6326640   9.7954340  24.4392310  44.0272110   9.1162120
  25.6863840  44.6703950   9.6843700  22.9810940  37.7202290  11.4114170
  23.5325530  37.8297630  10.6367420  23.4954450  38.0939890  12.1269400
  32.8249630  48.2058510  13.4577440  32.3480190  49.0130700  13.2650050
  32.1411420  47.5536840  13.6103650  23.8282450  44.3708330  16.4462140
  22.9310980  44.5948300  16.6935540  23.8535320  44.4943270  15.4973540
  30.8687670  41.2201450   2.3603400  31.3080950  40.3823880   2.2141220
  31.5816090  41.8530850   2.4467540  22.6553670  41.2421650  15.0219510
  22.5161440  42.1144450  15.3906910  21.7735030  40.8994460  14.8767450
  28.9783050  46.1597520   6.3284640  29.4178960  46.9021850   5.9140030
  28.9169940  46.4024090   7.2523600  24.4534020  47.1843350  17.2304660
  24.4249450  47.5886300  16.3633090  24.2898990  46.2553710  17.0676260
  20.9686950  39.8404060   5.1321780  20.8484550  40.5666150   4.5203050
  20.6587840  39.0706970   4.6549690  36.4048840  47.9670450  18.5268830
  36.8808560  48.4453340  19.2057910  37.0256000  47.8987940  17.8014330
  18.6072320  43.0119200  10.9390420  18.6852740  43.1467970   9.9946140
  19.2214000  42.3035090  11.1318540  19.8519950  44.7119390   7.3496600
  19.4448030  44.8533980   6.4950200  20.7432960  44.4279550   7.1467810
  35.8082090  45.1583300  15.6868840  35.9345150  44.9195180  14.7686020
  35.8503470  44.3267840  16.1590920  29.6698830  48.8611300  14.2563650
  30.1843500  48.7719310  15.0586080  28.8267910  49.2071000  14.5491560
  31.6453230  49.1466640   3.6847650  31.4854370  48.8569580   4.5829480
  31.4799940  48.3706770   3.1492880  24.1241610  48.9265170   5.4619270
  23.9484090  48.0100710   5.2487070  23.2697350  49.2852460   5.7017070
  30.9129290  48.2816910   6.3194140  31.3686240  47.5006290   6.6332760
  31.2521810  48.9923730   6.8635320  35.6606100  37.2115760  16.6518580
  35.0450370  37.7195430  16.1234040  35.3402520  36.3114090  16.5944520
  18.6631840  44.0533370  13.4784880  18.8262880  43.5838730  12.6604250
  19.1284290  43.5456930  14.1433720  23.4350610  33.1839130   8.5145450
  22.9918760  33.9648670   8.1829970  23.9935600  33.5069020   9.2216390
  27.7220420  36.0507650  14.1180770  27.2599790  36.2590670  14.9300710
  27.3198530  35.2367000  13.8151440  32.7224930  37.2716600  15.2477430
  31.8718520  36.9722350  15.5686500  32.5626720  37.5158610  14.3361250
  29.8174640  38.7718350  17.3476220  30.1428050  37.9382100  17.0078450
  30.6054970  39.2946870  17.4954550  26.5509430  32.8049830   3.3951280
  25.9263610  32.8009700   4.1204590  26.4639550  31.9380790   2.9987250
  25.4726510  33.7286460  10.3735050  25.7698840  34.6349290  10.2927070
  26.0212070  33.2405240   9.7594620  23.2264830  38.3072700   6.2426700
  23.0005750  38.0909870   7.1473320  22.4457360  38.7401160   5.8972670
  30.4562590  38.3136070   4.8417350  29.8571480  39.0371870   4.6580970
  31.0042200  38.2512850   4.0593800  25.6664040  39.2058280  16.9086970
  25.5707640  38.2653010  16.7587370  26.5096020  39.4273350  16.5135040
  29.0627460  36.9499610   6.8720630  29.4557030  37.2671810   6.0589320
  29.4244310  36.0711490   6.9865150  20.7974580  35.6171950  15.0620750
  20.4037970  36.4647160  15.2693530  20.1092980  34.9798320  15.2529390
  27.3719630  35.7006920  18.1317490  26.6817950  35.5079120  18.7663580
  28.1151930  35.9841560  18.6641790  18.0991630  33.5400410   9.0950830
  17.8104680  34.1103270   9.8075810  18.8437390  33.0604860   9.4582060
  29.6482600  39.5405360  10.9671410  28.9163720  40.0492170  11.3161510
  29.2506940  38.7235340  10.6660190  26.0859990  36.2159560   9.3723900
  26.0896050  35.7749510   8.5228440  26.9811110  36.5376890   9.4795720
  21.9362370  36.0986050   8.3318110  21.5962420  36.5761280   9.0885160
  21.1739690  35.6451170   7.9719210  26.1480140  37.2171640   2.3630660
  26.2692960  37.1758120   3.3116480  25.7628650  38.0795790   2.2077390
  30.1108510  34.9939040  10.3794350  30.1281250  35.4447690  11.2236200
  29.8624090  34.0944680  10.5927790  33.5379260  32.4071220  16.2180730
  33.8625030  31.6760880  16.7438710  33.5735770  32.0884860  15.3161720
  20.2370820  43.4284800  15.6380690  19.8525610  42.7878470  16.2363650
  20.5483010  44.1320920  16.2075420  26.3867960  40.2761340  11.1189310
  26.7538090  39.8019910  11.8650650  26.1973020  41.1502910  11.4597650
  19.2508450  35.0205030   7.2482780  18.9655370  34.6560700   8.0861400
  19.1887310  34.2885490   6.6345920  24.1767330  39.3169980  13.4373520
  23.8724400  40.1961960  13.6623880  25.1313790  39.3769770  13.4730960
  22.7049120  43.5230970   4.0340370  21.9311380  42.9828590   3.8739090
  23.4343750  43.0037580   3.6958130  33.4637100  42.5196330   9.8266760
  34.1836220  43.0151620   9.4362870  33.2618920  41.8414220   9.1820630
  28.9247040  33.9134290   3.9696150  28.1111650  33.4147460   3.8941460
  28.7308990  34.7532540   3.5532500  28.8455900  42.5905390  15.7135760
  28.7793210  41.6701060  15.4593350  28.2161040  42.6880830  16.4280400
  31.6395430  38.2853940   2.2658310  32.5275050  38.5971170   2.0909650
  31.6100520  37.4126190   1.8738890  22.7486520  43.1911350   7.6719180
  23.2665190  42.3879610   7.6176070  22.2970540  43.1290490   8.5136010
  27.6356020  44.4577630   2.9446480  27.9771720  45.2019860   2.4489800
  26.8068730  44.7708750   3.3071310  20.2331060  40.1572720  14.5844880
  19.8746000  40.8226570  15.1718220  19.9385620  39.3256270  14.9557500
  23.4344180  40.6156960  17.4684430  23.1344320  40.7614140  16.5712250
  24.2055420  40.0562250  17.3757820  28.7772630  45.4125960  15.4639560
  28.7917170  44.4806920  15.2458470  28.0697730  45.4985720  16.1029330
  34.9883840  42.0533300  14.8108140  34.2632030  42.6462080  14.6137530
  35.5159300  42.0456840  14.0121510  34.9396950  46.4508040   4.4620300
  34.2973110  45.7963660   4.7364020  34.5527610  46.8563130   3.6860970
  30.5183430  43.7793470   8.3091990  30.8707250  43.1821600   7.6493360
  29.6345760  43.4537700   8.4800240  26.6046710  44.5391160   5.7162400
  27.2917840  45.0860370   6.0969990  25.8179130  45.0831890   5.7512010
  25.9073920  41.5437190   5.3287760  26.3636700  42.3542440   5.5547950
  25.5562130  41.2260330   6.1606250  28.2106530  47.0543530  12.5580060
  28.8548750  47.2602910  13.2353480  28.5735970  46.2931930  12.1050910
  21.8085700  31.8874840   5.8010280  21.6800330  31.8792740   6.7495200
  20.9847720  32.2257930   5.4501290  29.4838610  45.0575880  11.2757510
  30.1260840  44.3569040  11.3889680  30.0087960  45.8374320  11.0954400
  31.2576230  45.8570780  14.4793570  31.5932470  46.4437470  15.1571490
  30.3376570  45.7263490  14.7091360  18.8079630  33.6465960  15.2616980
  18.0938150  33.8462880  15.8669590  19.2274670  32.8705530  15.6331780
  32.9110580  43.2596440   2.6610810  32.6232280  43.7209130   3.4488690
  33.7062750  42.7994210   2.9295030  19.0952220  47.6346220  16.2483510
  19.2043340  46.6940960  16.1078900  18.4432780  47.9000970  15.5997240
  27.0864810  45.9062110  17.6481630  26.7661680  45.1871350  18.1927320
  26.4123170  46.5817180  17.7217690  25.1278980  46.7522560   2.5914780
  25.1189080  47.4852250   1.9759290  24.2077340  46.5054140   2.6841740
  20.7285620  41.9737450   3.3361540  20.1213570  42.7136350   3.3456840
  21.2034970  42.0636810   2.5099740  30.3018410  36.1388270  13.0118430
  30.6699230  35.3183480  13.3398000  29.4416610  36.1990160  13.4274080
  33.6680440  35.0945210   3.8205990  33.0393600  35.1990880   3.1064220
  33.1732360  35.3141990   4.6099870  25.6364470  37.3731160   5.2363870
  24.9280620  37.8417500   5.6777480  25.9208950  36.7153170   5.8709060
  27.2620400  38.7927860  13.2356400  27.7605650  39.2673680  13.9008250
  27.4043350  37.8691380  13.4426430  29.6679900  34.0981820   6.6759660
  29.5447680  34.1167950   5.7269170  30.6164460  34.1460760   6.7958060
  26.7556690  49.3337120   5.9487640  27.0098190  49.2958510   5.0267010
  25.8069170  49.2070450   5.9415890  23.8399490  35.6816240   2.6114580
  24.6890020  36.1186390   2.5454770  23.4730760  35.9936500   3.4386640
  34.4687260  35.0095820  14.0784790  33.9660860  35.7501220  14.4178600
  35.2843920  35.3979820  13.7621580  32.7609270  40.2529000   7.5246150
  31.8199410  40.2679230   7.6993840  33.0753340  39.4664960   7.9706450
  21.4337670  39.3673670   1.7683000  21.5141260  38.4201180   1.8800400
  22.3257420  39.6980550   1.8743660  34.7634850  47.4237850   9.2000410
  34.8882270  48.2469020   9.6724220  35.6300410  47.2128580   8.8524560
  22.2352380  49.5169060   8.8717540  22.9714860  48.9684520   9.1426110
  22.6193300  50.3825070   8.7323530  19.1197860  45.5842630   4.7459050
  18.1937640  45.8263770   4.7364460  19.5854290  46.4116890   4.6243800
  21.2410660  48.7015130  18.0603120  22.0423390  49.0227180  18.4738520
  20.7262480  48.3410710  18.7823030  30.0775290  44.8095000  18.0078530
  29.4713450  44.8326600  17.2674280  29.7729400  44.0778040  18.5445780
  31.5075660  48.5375290  16.6187940  32.4597410  48.4533310  16.5688180
  31.3603880  49.2017000  17.2921730  18.9608470  41.1888590  17.0039170
  19.4647490  40.6095870  17.5755400  18.2215890  41.4728820  17.5415540
  26.0146410  42.5959580  16.5374690  25.2492080  43.1644580  16.4529360
  26.1962370  42.3035790  15.6442920  33.1569760  44.3264910  17.0949710
  33.8979230  44.6640670  16.5917170  32.3942440  44.4956970  16.5419480
  20.9931550  39.3318180  17.8989240  21.0336890  39.0332050  18.8074470
  21.8477050  39.7325790  17.7396760  24.7709940  41.9313730   3.0592750
  25.1926360  41.7653600   3.9024140  24.8960780  41.1213960   2.5647890
  22.9337360  37.9110280  15.8663730  22.4033820  37.4201230  15.2387070
  23.6025430  38.3394480  15.3321660  31.8315420  42.3779740  15.6304920
  32.2456440  42.5324820  16.4795340  30.8966420  42.5034960  15.7930700
  32.3037590  39.7175900  17.6344070  32.8858360  38.9628220  17.5464550
  32.4799360  40.2483340  16.8575550  23.4209660  34.8772650  15.9461020
  23.3266530  34.2593400  15.2211890  22.8407050  35.6038940  15.7190930
  26.1871100  33.4345890  12.9788410  25.7388400  33.4570150  12.1333960
  25.5536300  33.0364910  13.5758710  26.5930650  42.3300220  13.6000850
  27.0118760  43.1732950  13.4277090  25.6739280  42.4672260  13.3707630
  28.9294550  40.0616400  14.9838690  29.0490760  39.4657540  15.7233530
  29.7888550  40.0986090  14.5639990  31.2682450  40.6153590  13.5601200
  30.7417670  41.1396210  12.9566340  31.6113790  41.2480980  14.1910930
  24.4438070  48.6353230  14.7158580  23.9059160  49.3599290  14.3967280
  24.6972030  48.1583570  13.9255920  25.6963320  36.6037750  16.2414510
  26.2863010  36.2953600  16.9292330  24.8783560  36.1317500  16.3974410
  30.5156750  36.2203560  16.4747530  29.8272270  35.5585100  16.4097520
  31.2362770  35.7741830  16.9195990  31.1457150  32.8155190   2.5337790
  31.4259440  31.9723090   2.8897210  30.3722880  33.0478300   3.0476540
  27.3000280  49.8704440  14.9745230  27.2258980  50.7739580  15.2817600
  26.3979120  49.5516340  14.9467300  27.8485610  49.0362950   2.5971590
  28.7436400  49.3747920   2.6190350  27.8803240  48.3142360   1.9695870
  18.7027570  47.1979030   8.2778850  19.0330580  46.3300090   8.0457490
  19.1318570  47.4037550   9.1083810  23.2989490  45.5288040   5.9380820
  22.9985030  45.4053010   6.8384730  23.1926980  44.6696630   5.5296550
  19.1917780  48.0649620  11.0160480  18.7548770  48.2450420  11.8484630
  19.7595460  48.8224240  10.8742200  34.8279960  47.5666620  15.3037790
  34.2281950  47.6259180  14.5601710  34.9573860  46.6271600  15.4334640
  35.5237870  42.0531920   3.1441700  36.2856780  42.6228570   3.2501390
  35.5392240  41.4859120   3.9150010  19.0242210  40.5769850   7.3749360
  18.3691050  40.3081490   6.7309060  19.8620160  40.4674330   6.9251340
  36.5297840  42.9082020   7.9883630  36.9006670  42.1249340   7.5819600
  37.1699770  43.5971120   7.8100930  33.5131600  44.2918600  13.4013950
  32.6991440  44.7215760  13.6639740  33.9205800  44.9037010  12.7883000
  35.4722380  40.2835280   5.2943650  35.0965980  39.5163210   4.8624940
  34.7425500  40.6657980   5.7818580  20.0618140  40.9622420  11.9152700
  20.4291180  40.8749820  12.7948720  19.4928960  40.1988970  11.8159560
  34.8622000  39.4306800  14.9283170  34.6308090  39.2019550  14.0281120
  35.1226550  40.3506350  14.8828060  19.6134140  37.8731510  15.8211120
  18.7190190  37.8398270  16.1604830  20.1531690  38.0718300  16.5862370
  33.3010070  34.6563230  17.7062870  34.1780250  34.6646630  18.0896870
  33.3130910  33.9194070  17.0955220  18.2380290  37.7868780   3.3174690
  17.3344370  38.0498980   3.1426350  18.7220910  38.0579950   2.5374650
  34.7473340  38.5092770   8.5950890  35.2710820  38.0155420   7.9641060
  35.3332760  38.6443130   9.3398460  34.9263060  38.5932640  12.1170440
  33.9765770  38.5596180  12.2315430  35.1076070  39.5032750  11.8820210
  34.2373310  37.7666120   4.5343300  34.7332430  37.5336990   5.3192180
  34.0389380  36.9277960   4.1180940  20.1173850  32.1479840  10.1694340
  20.7650040  31.5977220   9.7289500  20.5375690  32.4022990  10.9910150
  35.6660470  36.4027070   7.0680980  35.5559750  36.2483110   8.0063250
  36.4268060  35.8748010   6.8256390  34.0126190  32.3421200  13.5263980
  34.6498410  32.9555340  13.8923170  34.1601080  32.3781860  12.5813210
  36.6289230  35.0045650   2.9343830  35.8340730  34.9390770   3.4636740
  36.8332510  35.9396290   2.9229180  33.5707650  49.0437200   6.9282220
  34.1666720  48.7221770   6.2516640  33.8285800  48.5709020   7.7195490
  19.8705850  32.3035510  12.9119660  19.5220670  32.7599330  13.6777840
  19.5393550  31.4092640  12.9942090  21.4770220  45.4755110  17.0772850
  21.4339850  45.1048020  17.9587310  21.6081230  46.4132680  17.2174670
  25.1776250  47.0314700  12.6782570  24.9367610  47.2989260  11.7913090
  26.1178890  47.2020430  12.7333430  27.3830670  33.4947390  16.4339080
  27.3219560  34.0869220  17.1834490  28.3231050  33.3873350  16.2889340
  30.0205230  33.1517450  16.0731370  30.6345640  33.4696740  15.4112450
  30.5654790  32.6666040  16.6927230  36.4380410  49.0509080  13.4793210
  35.9438690  49.4477950  12.7620340  35.8293700  48.4258290  13.8730490
  20.5426490  31.8311710  16.1870430  21.0909480  31.6499760  15.4236540
  20.6081800  31.0405820  16.7226740  21.3158250  48.4217360  14.1970630
  20.7218570  48.2902060  14.9360670  21.3082090  47.5855500  13.7312730
  30.7613270  31.7149590  12.4000660  29.8873110  32.0484700  12.1973590
  30.6524020  31.2422770  13.2252530  31.6685250  33.9220460  13.7842380
  31.3398610  33.1072220  13.4044110  32.6167550  33.8790270  13.6608070
  34.1219860  49.6932500  10.7579950  33.6622830  50.4448310  10.3837970
  33.4932320  48.9738970  10.6994750  20.9470480  45.7875740  13.1478670
  20.2204540  45.1681030  13.0804620  21.0079630  46.1816350  12.2776750
  24.5515580  48.0020740   9.9328080  25.0680600  47.3908100   9.4076340
  25.2012960  48.5049520  10.4239090  27.2911080  48.8929230  10.7597060
  27.5788890  48.6383530   9.8830070  27.8034300  48.3406590  11.3502630
  28.5088090  32.6319430  11.3393570  27.7259880  33.1064930  11.6190330
  28.2151020  31.7274260  11.2306750  33.0609160  33.3342530   9.3842660
  33.5017250  33.2787630   8.5364260  32.7916750  34.2500540   9.4552840
  34.9247730  32.9657770   7.3951480  34.8636130  32.0218990   7.2482500
  35.7039760  33.0737860   7.9404940  19.2300480  49.1050130   6.3575430
  19.0622520  48.4720810   7.0557320  18.3634990  49.3109530   6.0069620
  19.8528500  32.9366910   3.8607290  20.6107860  33.0495790   3.2871320
  19.3905670  33.7736110   3.8150720  26.3942310  35.0506180   6.8509600
  25.5816820  34.6763070   6.5105480  26.8983950  34.2951260   7.1530790
  30.8967290  31.7148630   8.0892670  31.4996660  32.2868840   8.5641190
  30.1560280  32.2788070   7.8666570  34.0401890  32.1170190   3.3632950
  34.2352520  33.0153640   3.6300380  33.2531760  31.8857270   3.8565900
  20.8363180  47.7983360   3.8025570  20.3110800  48.1791390   3.0987530
  20.7607760  48.4234130   4.5235280  22.2253650  33.4630960   2.4009260
  22.7546410  32.6760760   2.2717210  22.8581970  34.1422150   2.6344790
  24.4191490  33.2006100   5.4554650  23.7894230  32.4993410   5.6224780
  23.8796630  33.9610230   5.2387810  27.3583440  49.8145330  18.1265260
  28.2850750  49.5789600  18.1701220  27.3433870  50.6417330  17.6451290
  35.5928500  49.3570900   5.1239510  35.7680690  48.6708640   4.4800430
  34.8950070  49.8817950   4.7316180  24.5447050  32.4790080  17.8907140
  24.2631320  32.9823680  17.1267960  24.9266750  31.6811830  17.5249270
  23.4356150  49.7465740   2.6774820  24.1674970  49.4625020   2.1298710
  23.6949820  49.5079020   3.5674200  22.5970940  45.8630470   2.6821150
  21.9679820  46.3315570   3.2306980  22.7118770  45.0179690   3.1167340
  31.1462510  31.8943660  18.4687610  31.0327960  32.2138270  19.3639130
  31.9632250  32.2956170  18.1724890  33.9261000  49.0415190  17.9506300
  34.7186320  48.5464420  17.7432260  34.2194150  49.7205330  18.5581910
  30.0520660  21.1392640  45.1552820  29.9714710  20.2247250  44.8844530
  29.6385080  21.6359710  44.4492530  28.1838700  22.9171660  47.0362090
  27.4080800  22.4372100  47.3260660  28.8351630  22.2377310  46.8618250
  22.2004530  23.2291470  47.9137850  21.3689410  22.9740180  48.3134360
  22.8085510  23.3002240  48.6495770  32.2046130  27.3231850  45.8161220
  31.7427660  26.5519090  46.1448390  33.0171680  27.3497920  46.3213670
  22.1805790  27.2631560  48.1095870  22.4833830  26.3729300  47.9306090
  22.9249380  27.8201780  47.8818120  20.6096480  18.1893360  41.6980240
  19.7213180  18.5309330  41.5960120  20.8937670  17.9893680  40.8061070
  18.5729490  20.7899010  47.5819940  19.1445600  20.0221210  47.5823580
  18.5731030  21.0887770  46.6726550  28.4309440  29.6089860  45.4365210
  27.8120880  30.0647360  44.8659650  29.2861220  29.7641320  45.0354910
  27.6247690  25.5928850  47.0432250  27.5555970  24.6518790  46.8821380
  28.3867550  25.6830260  47.6154820  19.8154360  16.1983370  49.3688870
  19.6357200  15.3009120  49.6491630  19.4134440  16.7455240  50.0435820
  28.6552860  18.3999230  47.2701180  29.0317680  17.5271110  47.1574850
  28.5572370  18.7357930  46.3791620  22.7857870  16.7724860  42.7318620
  22.8924620  17.6728590  43.0387380  21.8750230  16.7242830  42.4413270
  32.4376980  15.8949670  44.2029520  33.2586600  15.4046240  44.2455000
  32.4711060  16.4847330  44.9561360  20.4341030  18.6943870  47.9771210
  21.1151140  18.9582240  48.5958610  20.1189080  17.8544740  48.3109220
  24.6265600  19.7411230  47.0643800  25.1343820  20.2392200  47.7048820
  25.1578840  18.9646430  46.8883160  36.7276530  17.9116420  50.7673150
  36.0228700  18.2998130  50.2488260  36.9934450  18.6066710  51.3694080
  22.9101700  14.3809790  51.3307220  22.9120140  14.8982180  50.5253120
  22.0806010  13.9039970  51.3077150  29.2972790  24.4929100  42.8297120
  28.6790060  24.9578550  42.2659840  29.8096040  25.1856580  43.2466630
  24.1604550  24.0204970  49.5080720  23.8273930  24.6473890  50.1501790
  24.3371230  24.5466850  48.7282390  32.6738460  17.8350050  46.9757060
  31.9694030  18.1234940  47.5560170  33.0350620  18.6450160  46.6156620
  22.5917030  16.0919750  49.3377670  22.9333840  16.9361800  49.0431540
  21.6532840  16.2403490  49.4543010  23.3723650  25.9885770  51.3229900
  23.9897650  26.6636850  51.0414350  22.5116770  26.3973750  51.2317400
  18.6655990  25.1785630  40.2036750  18.2883970  25.6672730  39.4721650
  18.9229060  25.8510910  40.8343280  34.2901240  27.4525180  49.2384540
  33.6064760  28.1224290  49.2301210  34.8295530  27.6505830  48.4729400
  35.7425380  17.2804840  47.3666270  34.7950290  17.3143820  47.4981700
  36.0675370  18.0943790  47.7515630  26.2744920  13.5802020  45.6622260
  26.5819900  13.0248910  44.9457760  25.3445620  13.7146480  45.4795250
  31.8259980  29.2969310  47.9529720  31.8387140  28.8931600  47.0851980
  31.2735200  30.0716600  47.8491150  33.1205400  26.0185530  43.0419890
  33.0101730  25.0759860  43.1669310  33.1173650  26.3801170  43.9282650
  31.2245420  24.1999150  49.2812330  31.6414210  23.9859260  48.4465790
  31.9485240  24.4571940  49.8520950  28.6625680  21.6450850  42.3982380
  27.7354960  21.5788230  42.6270850  28.8150500  22.5830980  42.2837620
  28.6494760  17.9167850  39.3949540  27.7098430  18.0781810  39.4802000
  28.9678020  18.6353530  38.8485530  35.1707520  22.5986370  49.3728570
  34.3426150  22.6679460  48.8978700  35.7658000  23.1840680  48.9044400
  32.6922970  23.2071150  42.9017630  32.0735390  22.8690700  42.2543930
  32.6747420  22.5630910  43.6096820  32.1349530  19.3855690  50.3183440
  31.7220710  20.2109400  50.5723430  31.4025480  18.8000730  50.1259800
  24.2682320  22.1715590  45.1802110  23.8639320  21.4592840  44.6848010
  24.3545440  21.8268830  46.0690150  24.7364020  25.8583150  47.3441320
  24.4392310  25.2528620  46.6649100  25.6863840  25.8960460  47.2330680
  22.9810940  18.9458800  48.9601150  23.5325530  19.0554140  48.1854400
  23.4954450  19.3196400  49.6756380  32.8249630  29.4315020  51.0064420
  32.3480190  30.2387210  50.8137030  32.1411420  28.7793350  51.1590630
  30.8687670  22.4457960  39.9090380  31.3080950  21.6080390  39.7628200
  31.5816090  23.0787360  39.9954520  22.6553670  22.4678160  52.5706490
  22.5161440  23.3400960  52.9393890  21.7735030  22.1250970  52.4254430
  28.9783050  27.3854030  43.8771620  29.4178960  28.1278360  43.4627010
  28.9169940  27.6280600  44.8010580  34.4504810  13.7000770  38.2231420
  34.1377470  13.7927600  39.1230490  35.2117280  14.2781800  38.1728850
  20.9686950  21.0660570  42.6808760  20.8484550  21.7922660  42.0690030
  20.6587840  20.2963480  42.2036670  18.6072320  24.2375710  48.4877400
  18.6852740  24.3724480  47.5433120  19.2214000  23.5291600  48.6805520
  19.8519950  25.9375900  44.8983580  19.4448030  26.0790490  44.0437180
  20.7432960  25.6536060  44.6954790  35.8082090  26.3839810  53.2355820
  35.9345150  26.1451690  52.3173000  35.8503470  25.5524350  53.7077900
  29.6698830  30.0867810  51.8050630  30.1843500  29.9975820  52.6073060
  28.8267910  30.4327510  52.0978540  31.6453230  30.3723150  41.2334630
  31.4854370  30.0826090  42.1316460  31.4799940  29.5963280  40.6979860
  24.1241610  30.1521680  43.0106250  23.9484090  29.2357220  42.7974050
  23.2697350  30.5108970  43.2504050  31.3479360  27.8810710  39.7932630
  30.6544520  27.8788000  39.1334910  32.0902220  27.4570030  39.3626800
  30.9129290  29.5073420  43.8681120  31.3686240  28.7262800  44.1819740
  31.2521810  30.2180240  44.4122300  35.6606100  18.4372270  54.2005560
  35.0450370  18.9451940  53.6721020  35.3402520  17.5370600  54.1431500
  18.6631840  25.2789880  51.0271860  18.8262880  24.8095240  50.2091230
  19.1284290  24.7713440  51.6920700  23.4350610  14.4095640  46.0632430
  22.9918760  15.1905180  45.7316950  23.9935600  14.7325530  46.7703370
  27.7220420  17.2764160  51.6667750  27.2599790  17.4847180  52.4787690
  27.3198530  16.4623510  51.3638420  32.7224930  18.4973110  52.7964410
  31.8718520  18.1978860  53.1173480  32.5626720  18.7415120  51.8848230
  26.5509430  14.0306340  40.9438260  25.9263610  14.0266210  41.6691570
  26.4639550  13.1637300  40.5474230  25.4726510  14.9542970  47.9222030
  25.7698840  15.8605800  47.8414050  26.0212070  14.4661750  47.3081600
  23.2264830  19.5329210  43.7913680  23.0005750  19.3166380  44.6960300
  22.4457360  19.9657670  43.4459650  30.4562590  19.5392580  42.3904330
  29.8571480  20.2628380  42.2067950  31.0042200  19.4769360  41.6080780
  29.0627460  18.1756120  44.4207610  29.4557030  18.4928320  43.6076300
  29.4244310  17.2968000  44.5352130  20.7974580  16.8428460  52.6107730
  20.4037970  17.6903670  52.8180510  20.1092980  16.2054830  52.8016370
  18.0991630  14.7656920  46.6437810  17.8104680  15.3359780  47.3562790
  18.8437390  14.2861370  47.0069040  18.2861860  18.7077040  37.8540530
  18.2036530  19.6507800  37.9955520  17.9344920  18.5651950  36.9752880
  29.6482600  20.7661870  48.5158390  28.9163720  21.2748680  48.8648490
  29.2506940  19.9491850  48.2147170  26.0859990  17.4416070  46.9210880
  26.0896050  17.0006020  46.0715420  26.9811110  17.7633400  47.0282700
  21.9362370  17.3242560  45.8805090  21.5962420  17.8017790  46.6372140
  21.1739690  16.8707680  45.5206190  26.1480140  18.4428150  39.9117640
  26.2692960  18.4014630  40.8603460  25.7628650  19.3052300  39.7564370
  30.1108510  16.2195550  47.9281330  30.1281250  16.6704200  48.7723180
  29.8624090  15.3201190  48.1414770  25.1601640  20.7529290  39.3100940
  24.5918540  20.3047540  38.6836850  25.8690640  21.1122070  38.7766090
  20.2370820  24.6541310  53.1867670  19.8525610  24.0134980  53.7850630
  20.5483010  25.3577430  53.7562400  26.3867960  21.5017850  48.6676290
  26.7538090  21.0276420  49.4137630  26.1973020  22.3759420  49.0084630
  19.2508450  16.2461540  44.7969760  18.9655370  15.8817210  45.6348380
  19.1887310  15.5142000  44.1832900  24.1767330  20.5426490  50.9860500
  23.8724400  21.4218470  51.2110860  25.1313790  20.6026280  51.0217940
  22.7049120  24.7487480  41.5827350  21.9311380  24.2085100  41.4226070
  23.4343750  24.2294090  41.2445110  33.4637100  23.7452840  47.3753740
  34.1836220  24.2408130  46.9849850  33.2618920  23.0670730  46.7307610
  28.9247040  15.1390800  41.5183130  28.1111650  14.6403970  41.4428440
  28.7308990  15.9789050  41.1019480  28.8455900  23.8161900  53.2622740
  28.7793210  22.8957570  53.0080330  28.2161040  23.9137340  53.9767380
  31.6395430  19.5110450  39.8145290  32.5275050  19.8227680  39.6396630
  31.6100520  18.6382700  39.4225870  22.7486520  24.4167860  45.2206160
  23.2665190  23.6136120  45.1663050  22.2970540  24.3547000  46.0622990
  27.6356020  25.6834140  40.4933460  27.9771720  26.4276370  39.9976780
  26.8068730  25.9965260  40.8558290  20.2331060  21.3829230  52.1331860
  19.8746000  22.0483080  52.7205200  19.9385620  20.5512780  52.5044480
  28.7772630  26.6382470  53.0126540  28.7917170  25.7063430  52.7945450
  28.0697730  26.7242230  53.6516310  33.9109700  20.8222290  39.2825150
  33.8273420  21.2536510  38.4321590  34.6303890  21.2820640  39.7151970
  34.9883840  23.2789810  52.3595120  34.2632030  23.8718590  52.1624510
  35.5159300  23.2713350  51.5608490  34.9396950  27.6764550  42.0107280
  34.2973110  27.0220170  42.2851000  34.5527610  28.0819640  41.2347950
  30.5183430  25.0049980  45.8578970  30.8707250  24.4078110  45.1980340
  29.6345760  24.6794210  46.0287220  26.6046710  25.7647670  43.2649380
  27.2917840  26.3116880  43.6456970  25.8179130  26.3088400  43.2998990
  18.7439110  21.3820490  38.7566460  19.6133960  21.6645290  39.0402380
  18.2529430  22.1956360  38.6415270  25.9073920  22.7693700  42.8774740
  26.3636700  23.5798950  43.1034930  25.5562130  22.4516840  43.7093230
  28.2106530  28.2800040  50.1067040  28.8548750  28.4859420  50.7840460
  28.5735970  27.5188440  49.6537890  21.8085700  13.1131350  43.3497260
  21.6800330  13.1049250  44.2982180  20.9847720  13.4514440  42.9988270
  29.4838610  26.2832390  48.8244490  30.1260840  25.5825550  48.9376660
  30.0087960  27.0630830  48.6441380  33.3294330  26.5681010  38.5483630
  33.1031910  25.8511450  39.1408270  32.9390530  26.3193450  37.7105380
  31.2576230  27.0827290  52.0280550  31.5932470  27.6693980  52.7058470
  30.3376570  26.9520000  52.2578340  19.1110360  30.5947870  39.3228090
  19.4708000  31.1937210  38.6685360  18.9702700  31.1407760  40.0963120
  18.8079630  14.8722470  52.8103960  18.0938150  15.0719390  53.4156570
  19.2274670  14.0962040  53.1818760  32.9110580  24.4852950  40.2097790
  32.6232280  24.9465640  40.9975670  33.7062750  24.0250720  40.4782010
  19.0952220  28.8602730  53.7970490  19.2043340  27.9197470  53.6565880
  18.4432780  29.1257480  53.1484220  25.1278980  27.9779070  40.1401760
  25.1189080  28.7108760  39.5246270  24.2077340  27.7310650  40.2328720
  20.7285620  23.1993960  40.8848520  20.1213570  23.9392860  40.8943820
  21.2034970  23.2893320  40.0586720  30.3018410  17.3644780  50.5605410
  30.6699230  16.5439990  50.8884980  29.4416610  17.4246670  50.9761060
  33.6680440  16.3201720  41.3692970  33.0393600  16.4247390  40.6551200
  33.1732360  16.5398500  42.1586850  28.1138580  28.0407310  38.8026950
  28.2150560  27.8371300  37.8728930  27.2140320  27.7865590  39.0074730
  25.6364470  18.5987670  42.7850850  24.9280620  19.0674010  43.2264460
  25.9208950  17.9409680  43.4196040  27.2620400  20.0184370  50.7843380
  27.7605650  20.4930190  51.4495230  27.4043350  19.0947890  50.9913410
  29.6679900  15.3238330  44.2246640  29.5447680  15.3424460  43.2756150
  30.6164460  15.3717270  44.3445040  26.7556690  30.5593630  43.4974620
  27.0098190  30.5215020  42.5753990  25.8069170  30.4326960  43.4902870
  23.8399490  16.9072750  40.1601560  24.6890020  17.3442900  40.0941750
  23.4730760  17.2193010  40.9873620  34.4687260  16.2352330  51.6271770
  33.9660860  16.9757730  51.9665580  35.2843920  16.6236330  51.3108560
  32.7609270  21.4785510  45.0733130  31.8199410  21.4935740  45.2480820
  33.0753340  20.6921470  45.5193430  22.7390910  23.1605110  38.6337090
  23.5054180  23.0486470  39.1962520  22.8165600  22.4643080  37.9813860
  21.4337670  20.5930180  39.3169980  21.5141260  19.6457690  39.4287380
  22.3257420  20.9237060  39.4230640  34.7634850  28.6494360  46.7487390
  34.8882270  29.4725530  47.2211200  35.6300410  28.4385090  46.4011540
  22.2352380  30.7425570  46.4204520  22.9714860  30.1941030  46.6913090
  22.6193300  31.6081580  46.2810510  19.1197860  26.8099140  42.2946030
  18.1937640  27.0520280  42.2851440  19.5854290  27.6373400  42.1730780
  25.3454690  29.9155880  38.2430090  26.1383300  30.2044710  37.7911880
  24.8259040  29.4848050  37.5642570  34.3984860  29.1426010  39.6666830
  34.1126370  28.7291150  38.8521010  34.2004410  30.0713720  39.5467350
  25.8632090  25.1359290  38.1072440  25.7582730  24.5211640  38.8333820
  25.6956310  24.6125180  37.3235450  26.0146410  23.8216090  54.0861670
  25.2492080  24.3901090  54.0016340  26.1962370  23.5292300  53.1929900
  29.1034820  24.1979320  38.7114430  28.5544920  24.6448620  39.3557170
  29.7254080  23.6928570  39.2352100  24.7709940  23.1570240  40.6079730
  25.1926360  22.9910110  41.4511120  24.8960780  22.3470470  40.1134870
  22.9337360  19.1366790  53.4150710  22.4033820  18.6457740  52.7874050
  23.6025430  19.5650990  52.8808640  27.2837580  22.1807850  37.8556830
  27.8043240  21.4656870  37.4897980  27.9305980  22.8193720  38.1557340
  31.8315420  23.6036250  53.1791900  32.2456440  23.7581330  54.0282320
  30.8966420  23.7291470  53.3417680  23.4209660  16.1029160  53.4948000
  23.3266530  15.4849910  52.7698870  22.8407050  16.8295450  53.2677910
  26.1871100  14.6602400  50.5275390  25.7388400  14.6826660  49.6820940
  25.5536300  14.2621420  51.1245690  26.5930650  23.5556730  51.1487830
  27.0118760  24.3989460  50.9764070  25.6739280  23.6928770  50.9194610
  28.9294550  21.2872910  52.5325670  29.0490760  20.6914050  53.2720510
  29.7888550  21.3242600  52.1126970  31.2682450  21.8410100  51.1088180
  30.7417670  22.3652720  50.5053320  31.6113790  22.4737490  51.7397910
  23.6668840  19.2303470  37.5537890  23.4657900  18.3670830  37.9151230
  23.4960890  19.1436830  36.6159490  24.4438070  29.8609740  52.2645560
  23.9059160  30.5855800  51.9454260  24.6972030  29.3840080  51.4742900
  31.1457150  14.0411700  40.0824770  31.4259440  13.1979600  40.4384190
  30.3722880  14.2734810  40.5963520  22.4651640  16.3304090  37.5415770
  22.7677540  16.3371520  36.6334920  23.2046230  15.9801950  38.0383430
  27.3000280  31.0960950  52.5232210  27.2258980  31.9996090  52.8304580
  26.3979120  30.7772850  52.4954280  25.6836570  15.2738710  38.5271970
  25.3358570  14.5962700  37.9474420  25.8849340  14.8128220  39.3415360
  27.8485610  30.2619460  40.1458570  28.7436400  30.6004430  40.1677330
  27.8803240  29.5398870  39.5182850  21.4881770  25.6346510  38.3745570
  21.9256640  26.1776180  39.0303150  21.9729500  24.8093460  38.3841910
  18.7027570  28.4235540  45.8265830  19.0330580  27.5556600  45.5944470
  19.1318570  28.6294060  46.6570790  23.2989490  26.7544550  43.4867800
  22.9985030  26.6309520  44.3871710  23.1926980  25.8953140  43.0783530
  19.1917780  29.2906130  48.5647460  18.7548770  29.4706930  49.3971610
  19.7595460  30.0480750  48.4229180  34.8279960  28.7923130  52.8524770
  34.2281950  28.8515690  52.1088690  34.9573860  27.8528110  52.9821620
  36.0681410  26.5340950  38.1894480  35.2374370  26.6017600  38.6601710
  36.2453240  27.4245070  37.8861340  35.5237870  23.2788430  40.6928680
  36.2856780  23.8485080  40.7988370  35.5392240  22.7115630  41.4636990
  19.0242210  21.8026360  44.9236340  18.3691050  21.5338000  44.2796040
  19.8620160  21.6930840  44.4738320  36.5297840  24.1338530  45.5370610
  36.9006670  23.3505850  45.1306580  37.1699770  24.8227630  45.3587910
  33.5131600  25.5175110  50.9500930  32.6991440  25.9472270  51.2126720
  33.9205800  26.1293520  50.3369980  35.5757040  23.5722800  37.8501200
  35.8505880  24.4801680  37.7220420  35.3867780  23.5085330  38.7863190
  31.9732650  16.5967650  39.1454830  32.3917530  16.4098630  38.3051490
  31.6668710  15.7446700  39.4557760  35.4722380  21.5091790  42.8430630
  35.0965980  20.7419720  42.4111920  34.7425500  21.8914490  43.3305560
  20.0618140  22.1878930  49.4639680  20.4291180  22.1006330  50.3435700
  19.4928960  21.4245480  49.3646540  34.8622000  20.6563310  52.4770150
  34.6308090  20.4276060  51.5768100  35.1226550  21.5762860  52.4315040
  19.6134140  19.0988020  53.3698100  18.7190190  19.0654780  53.7091810
  20.1531690  19.2974810  54.1349350  18.2380290  19.0125290  40.8661670
  17.3344370  19.2755490  40.6913330  18.7220910  19.2836460  40.0861630
  34.7473340  19.7349280  46.1437870  35.2710820  19.2411930  45.5128040
  35.3332760  19.8699640  46.8885440  34.9263060  19.8189150  49.6657420
  33.9765770  19.7852690  49.7802410  35.1076070  20.7289260  49.4307190
  20.7807500  18.0690830  38.7756050  21.4899200  17.6474050  38.2903330
  20.0647440  18.1366060  38.1439400  20.4281660  14.1230160  37.8158700
  21.1509790  14.6639100  38.1339920  20.7006180  13.8493580  36.9400240
  34.2373310  18.9922630  42.0830280  34.7332430  18.7593500  42.8679160
  34.0389380  18.1534470  41.6667920  20.1173850  13.3736350  47.7181320
  20.7650040  12.8233730  47.2776480  20.5375690  13.6279500  48.5397130
  35.6660470  17.6283580  44.6167960  35.5559750  17.4739620  45.5550230
  36.4268060  17.1004520  44.3743370  34.0126190  13.5677710  51.0750960
  34.6498410  14.1811850  51.4410150  34.1601080  13.6038370  50.1300190
  36.5550740  15.4591500  37.8574100  37.4800050  15.3272680  37.6492390
  36.5326530  15.5384320  38.8110550  36.6289230  16.2302160  40.4830810
  35.8340730  16.1647280  41.0123720  36.8332510  17.1652800  40.4716160
  33.5707650  30.2693710  44.4769200  34.1666720  29.9478280  43.8003620
  33.8285800  29.7965530  45.2682470  19.8705850  13.5292020  50.4606640
  19.5220670  13.9855840  51.2264820  19.5393550  12.6349150  50.5429070
  25.1776250  28.2571210  50.2269550  24.9367610  28.5245770  49.3400070
  26.1178890  28.4276940  50.2820410  36.4380410  30.2765590  51.0280190
  35.9438690  30.6734460  50.3107320  35.8293700  29.6514800  51.4217470
  21.3158250  29.6473870  51.7457610  20.7218570  29.5158570  52.4847650
  21.3082090  28.8112010  51.2799710  30.7613270  12.9406100  49.9487640
  29.8873110  13.2741210  49.7460570  30.6524020  12.4679280  50.7739510
  31.6685250  15.1476970  51.3329360  31.3398610  14.3328730  50.9531090
  32.6167550  15.1046780  51.2095050  34.1219860  30.9189010  48.3066930
  33.6622830  31.6704820  47.9324950  33.4932320  30.1995480  48.2481730
  20.9470480  27.0132250  50.6965650  20.2204540  26.3937540  50.6291600
  21.0079630  27.4072860  49.8263730  24.5515580  29.2277250  47.4815060
  25.0680600  28.6164610  46.9563320  25.2012960  29.7306030  47.9726070
  27.2911080  30.1185740  48.3084040  27.5788890  29.8640040  47.4317050
  27.8034300  29.5663100  48.8989610  28.5088090  13.8575940  48.8880550
  27.7259880  14.3321440  49.1677310  28.2151020  12.9530770  48.7793730
  33.0609160  14.5599040  46.9329640  33.5017250  14.5044140  46.0851240
  32.7916750  15.4757050  47.0039820  34.9247730  14.1914280  44.9438460
  34.8636130  13.2475500  44.7969480  35.7039760  14.2994370  45.4891920
  19.2300480  30.3306640  43.9062410  19.0622520  29.6977320  44.6044300
  18.3634990  30.5366040  43.5556600  19.8528500  14.1623420  41.4094270
  20.6107860  14.2752300  40.8358300  19.3905670  14.9992620  41.3637700
  26.3942310  16.2762690  44.3996580  25.5816820  15.9019580  44.0592460
  26.8983950  15.5207770  44.7017770  30.8967290  12.9405140  45.6379650
  31.4996660  13.5125350  46.1128170  30.1560280  13.5044580  45.4153550
  34.0401890  13.3426700  40.9119930  34.2352520  14.2410150  41.1787360
  33.2531760  13.1113780  41.4052880  20.8363180  29.0239870  41.3512550
  20.3110800  29.4047900  40.6474510  20.7607760  29.6490640  42.0722260
  22.2253650  14.6887470  39.9496240  22.7546410  13.9017270  39.8204190
  22.8581970  15.3678660  40.1831770  24.4191490  14.4262610  43.0041630
  23.7894230  13.7249920  43.1711760  23.8796630  15.1866740  42.7874790
  35.5928500  30.5827410  42.6726490  35.7680690  29.8965150  42.0287410
  34.8950070  31.1074460  42.2803160  23.4356150  30.9722250  40.2261800
  24.1674970  30.6881530  39.6785690  23.6949820  30.7335530  41.1161180
  22.5970940  27.0886980  40.2308130  21.9679820  27.5572080  40.7793960
  22.7118770  26.2436200  40.6654320  30.0520660  21.1392640  26.3809330
  29.9714710  20.2247250  26.1101040  29.6385080  21.6359710  25.6749040
  28.1838700  22.9171660  28.2618600  27.4080800  22.4372100  28.5517170
  28.8351630  22.2377310  28.0874760  22.2004530  23.2291470  29.1394360
  21.3689410  22.9740180  29.5390870  22.8085510  23.3002240  29.8752280
  22.1805790  27.2631560  29.3352380  22.4833830  26.3729300  29.1562600
  22.9249380  27.8201780  29.1074630  20.6096480  18.1893360  22.9236750
  19.7213180  18.5309330  22.8216630  20.8937670  17.9893680  22.0317580
  18.5729490  20.7899010  28.8076450  19.1445600  20.0221210  28.8080090
  18.5731030  21.0887770  27.8983060  19.8154360  16.1983370  30.5945380
  19.6357200  15.3009120  30.8748140  19.4134440  16.7455240  31.2692330
  28.6552860  18.3999230  28.4957690  29.0317680  17.5271110  28.3831360
  28.5572370  18.7357930  27.6048130  22.7857870  16.7724860  23.9575130
  22.8924620  17.6728590  24.2643890  21.8750230  16.7242830  23.6669780
  32.4376980  15.8949670  25.4286030  33.2586600  15.4046240  25.4711510
  32.4711060  16.4847330  26.1817870  20.4341030  18.6943870  29.2027720
  21.1151140  18.9582240  29.8215120  20.1189080  17.8544740  29.5365730
  24.6265600  19.7411230  28.2900310  25.1343820  20.2392200  28.9305330
  25.1578840  18.9646430  28.1139670  36.7276530  17.9116420  31.9929660
  36.0228700  18.2998130  31.4744770  36.9934450  18.6066710  32.5950590
  22.9101700  14.3809790  32.5563730  22.9120140  14.8982180  31.7509630
  22.0806010  13.9039970  32.5333660  29.2972790  24.4929100  24.0553630
  28.6790060  24.9578550  23.4916350  29.8096040  25.1856580  24.4723140
  24.1604550  24.0204970  30.7337230  23.8273930  24.6473890  31.3758300
  24.3371230  24.5466850  29.9538900  32.6738460  17.8350050  28.2013570
  31.9694030  18.1234940  28.7816680  33.0350620  18.6450160  27.8413130
  22.5917030  16.0919750  30.5634180  22.9333840  16.9361800  30.2688050
  21.6532840  16.2403490  30.6799520  23.3723650  25.9885770  32.5486410
  23.9897650  26.6636850  32.2670860  22.5116770  26.3973750  32.4573910
  18.6655990  25.1785630  21.4293260  18.2883970  25.6672730  20.6978160
  18.9229060  25.8510910  22.0599790  35.7425380  17.2804840  28.5922780
  34.7950290  17.3143820  28.7238210  36.0675370  18.0943790  28.9772140
  26.2744920  13.5802020  26.8878770  26.5819900  13.0248910  26.1714270
  25.3445620  13.7146480  26.7051760  33.1205400  26.0185530  24.2676400
  33.0101730  25.0759860  24.3925820  33.1173650  26.3801170  25.1539160
  28.6625680  21.6450850  23.6238890  27.7354960  21.5788230  23.8527360
  28.8150500  22.5830980  23.5094130  28.6494760  17.9167850  20.6206050
  27.7098430  18.0781810  20.7058510  28.9678020  18.6353530  20.0742040
  32.6922970  23.2071150  24.1274140  32.0735390  22.8690700  23.4800440
  32.6747420  22.5630910  24.8353330  32.1349530  19.3855690  31.5439950
  31.7220710  20.2109400  31.7979940  31.4025480  18.8000730  31.3516310
  24.2682320  22.1715590  26.4058620  23.8639320  21.4592840  25.9104520
  24.3545440  21.8268830  27.2946660  24.7364020  25.8583150  28.5697830
  24.4392310  25.2528620  27.8905610  25.6863840  25.8960460  28.4587190
  22.9810940  18.9458800  30.1857660  23.5325530  19.0554140  29.4110910
  23.4954450  19.3196400  30.9012890  32.8249630  29.4315020  32.2320930
  32.3480190  30.2387210  32.0393540  32.1411420  28.7793350  32.3847140
  23.8282450  25.5964840  35.2205630  22.9310980  25.8204810  35.4679030
  23.8535320  25.7199780  34.2717030  30.8687670  22.4457960  21.1346890
  31.3080950  21.6080390  20.9884710  31.5816090  23.0787360  21.2211030
  22.6553670  22.4678160  33.7963000  22.5161440  23.3400960  34.1650400
  21.7735030  22.1250970  33.6510940  24.4534020  28.4099860  36.0048150
  24.4249450  28.8142810  35.1376580  24.2898990  27.4810220  35.8419750
  34.4504810  13.7000770  19.4487930  34.1377470  13.7927600  20.3487000
  35.2117280  14.2781800  19.3985360  20.9686950  21.0660570  23.9065270
  20.8484550  21.7922660  23.2946540  20.6587840  20.2963480  23.4293180
  36.4048840  29.1926960  37.3012320  36.8808560  29.6709850  37.9801400
  37.0256000  29.1244450  36.5757820  18.6072320  24.2375710  29.7133910
  18.6852740  24.3724480  28.7689630  19.2214000  23.5291600  29.9062030
  19.8519950  25.9375900  26.1240090  19.4448030  26.0790490  25.2693690
  20.7432960  25.6536060  25.9211300  35.8082090  26.3839810  34.4612330
  35.9345150  26.1451690  33.5429510  35.8503470  25.5524350  34.9334410
  29.6698830  30.0867810  33.0307140  30.1843500  29.9975820  33.8329570
  28.8267910  30.4327510  33.3235050  31.6453230  30.3723150  22.4591140
  31.4854370  30.0826090  23.3572970  31.4799940  29.5963280  21.9236370
  24.1241610  30.1521680  24.2362760  23.9484090  29.2357220  24.0230560
  23.2697350  30.5108970  24.4760560  31.3479360  27.8810710  21.0189140
  30.6544520  27.8788000  20.3591420  32.0902220  27.4570030  20.5883310
  35.6606100  18.4372270  35.4262070  35.0450370  18.9451940  34.8977530
  35.3402520  17.5370600  35.3688010  18.6631840  25.2789880  32.2528370
  18.8262880  24.8095240  31.4347740  19.1284290  24.7713440  32.9177210
  23.4350610  14.4095640  27.2888940  22.9918760  15.1905180  26.9573460
  23.9935600  14.7325530  27.9959880  27.7220420  17.2764160  32.8924260
  27.2599790  17.4847180  33.7044200  27.3198530  16.4623510  32.5894930
  32.7224930  18.4973110  34.0220920  31.8718520  18.1978860  34.3429990
  32.5626720  18.7415120  33.1104740  29.8174640  19.9974860  36.1219710
  30.1428050  19.1638610  35.7821940  30.6054970  20.5203380  36.2698040
  26.5509430  14.0306340  22.1694770  25.9263610  14.0266210  22.8948080
  26.4639550  13.1637300  21.7730740  25.4726510  14.9542970  29.1478540
  25.7698840  15.8605800  29.0670560  26.0212070  14.4661750  28.5338110
  23.2264830  19.5329210  25.0170190  23.0005750  19.3166380  25.9216810
  22.4457360  19.9657670  24.6716160  30.4562590  19.5392580  23.6160840
  29.8571480  20.2628380  23.4324460  31.0042200  19.4769360  22.8337290
  25.6664040  20.4314790  35.6830460  25.5707640  19.4909520  35.5330860
  26.5096020  20.6529860  35.2878530  29.0627460  18.1756120  25.6464120
  29.4557030  18.4928320  24.8332810  29.4244310  17.2968000  25.7608640
  20.7974580  16.8428460  33.8364240  20.4037970  17.6903670  34.0437020
  20.1092980  16.2054830  34.0272880  27.3719630  16.9263430  36.9060980
  26.6817950  16.7335630  37.5407070  28.1151930  17.2098070  37.4385280
  18.0991630  14.7656920  27.8694320  17.8104680  15.3359780  28.5819300
  18.8437390  14.2861370  28.2325550  18.2861860  18.7077040  19.0797040
  18.2036530  19.6507800  19.2212030  17.9344920  18.5651950  18.2009390
  29.6482600  20.7661870  29.7414900  28.9163720  21.2748680  30.0905000
  29.2506940  19.9491850  29.4403680  26.0859990  17.4416070  28.1467390
  26.0896050  17.0006020  27.2971930  26.9811110  17.7633400  28.2539210
  21.9362370  17.3242560  27.1061600  21.5962420  17.8017790  27.8628650
  21.1739690  16.8707680  26.7462700  26.1480140  18.4428150  21.1374150
  26.2692960  18.4014630  22.0859970  25.7628650  19.3052300  20.9820880
  30.1108510  16.2195550  29.1537840  30.1281250  16.6704200  29.9979690
  29.8624090  15.3201190  29.3671280  25.1601640  20.7529290  20.5357450
  24.5918540  20.3047540  19.9093360  25.8690640  21.1122070  20.0022600
  33.5379260  13.6327730  34.9924220  33.8625030  12.9017390  35.5182200
  33.5735770  13.3141370  34.0905210  20.2370820  24.6541310  34.4124180
  19.8525610  24.0134980  35.0107140  20.5483010  25.3577430  34.9818910
  26.3867960  21.5017850  29.8932800  26.7538090  21.0276420  30.6394140
  26.1973020  22.3759420  30.2341140  19.2508450  16.2461540  26.0226270
  18.9655370  15.8817210  26.8604890  19.1887310  15.5142000  25.4089410
  24.1767330  20.5426490  32.2117010  23.8724400  21.4218470  32.4367370
  25.1313790  20.6026280  32.2474450  22.7049120  24.7487480  22.8083860
  21.9311380  24.2085100  22.6482580  23.4343750  24.2294090  22.4701620
  28.9247040  15.1390800  22.7439640  28.1111650  14.6403970  22.6684950
  28.7308990  15.9789050  22.3275990  31.6395430  19.5110450  21.0401800
  32.5275050  19.8227680  20.8653140  31.6100520  18.6382700  20.6482380
  22.7486520  24.4167860  26.4462670  23.2665190  23.6136120  26.3919560
  22.2970540  24.3547000  27.2879500  27.6356020  25.6834140  21.7189970
  27.9771720  26.4276370  21.2233290  26.8068730  25.9965260  22.0814800
  20.2331060  21.3829230  33.3588370  19.8746000  22.0483080  33.9461710
  19.9385620  20.5512780  33.7300990  23.4344180  21.8413470  36.2427920
  23.1344320  21.9870650  35.3455740  24.2055420  21.2818760  36.1501310
  33.9109700  20.8222290  20.5081660  33.8273420  21.2536510  19.6578100
  34.6303890  21.2820640  20.9408480  34.9883840  23.2789810  33.5851630
  34.2632030  23.8718590  33.3881020  35.5159300  23.2713350  32.7865000
  34.9396950  27.6764550  23.2363790  34.2973110  27.0220170  23.5107510
  34.5527610  28.0819640  22.4604460  26.6046710  25.7647670  24.4905890
  27.2917840  26.3116880  24.8713480  25.8179130  26.3088400  24.5255500
  18.7439110  21.3820490  19.9822970  19.6133960  21.6645290  20.2658890
  18.2529430  22.1956360  19.8671780  25.9073920  22.7693700  24.1031250
  26.3636700  23.5798950  24.3291440  25.5562130  22.4516840  24.9349740
  21.8085700  13.1131350  24.5753770  21.6800330  13.1049250  25.5238690
  20.9847720  13.4514440  24.2244780  33.3294330  26.5681010  19.7740140
  33.1031910  25.8511450  20.3664780  32.9390530  26.3193450  18.9361890
  19.1110360  30.5947870  20.5484600  19.4708000  31.1937210  19.8941870
  18.9702700  31.1407760  21.3219630  18.8079630  14.8722470  34.0360470
  18.0938150  15.0719390  34.6413080  19.2274670  14.0962040  34.4075270
  32.9110580  24.4852950  21.4354300  32.6232280  24.9465640  22.2232180
  33.7062750  24.0250720  21.7038520  19.0952220  28.8602730  35.0227000
  19.2043340  27.9197470  34.8822390  18.4432780  29.1257480  34.3740730
  27.0864810  27.1318620  36.4225120  26.7661680  26.4127860  36.9670810
  26.4123170  27.8073690  36.4961180  25.1278980  27.9779070  21.3658270
  25.1189080  28.7108760  20.7502780  24.2077340  27.7310650  21.4585230
  20.7285620  23.1993960  22.1105030  20.1213570  23.9392860  22.1200330
  21.2034970  23.2893320  21.2843230  30.3018410  17.3644780  31.7861920
  30.6699230  16.5439990  32.1141490  29.4416610  17.4246670  32.2017570
  33.6680440  16.3201720  22.5949480  33.0393600  16.4247390  21.8807710
  33.1732360  16.5398500  23.3843360  28.1138580  28.0407310  20.0283460
  28.2150560  27.8371300  19.0985440  27.2140320  27.7865590  20.2331240
  25.6364470  18.5987670  24.0107360  24.9280620  19.0674010  24.4520970
  25.9208950  17.9409680  24.6452550  27.2620400  20.0184370  32.0099890
  27.7605650  20.4930190  32.6751740  27.4043350  19.0947890  32.2169920
  29.6679900  15.3238330  25.4503150  29.5447680  15.3424460  24.5012660
  30.6164460  15.3717270  25.5701550  26.7556690  30.5593630  24.7231130
  27.0098190  30.5215020  23.8010500  25.8069170  30.4326960  24.7159380
  23.8399490  16.9072750  21.3858070  24.6890020  17.3442900  21.3198260
  23.4730760  17.2193010  22.2130130  34.4687260  16.2352330  32.8528280
  33.9660860  16.9757730  33.1922090  35.2843920  16.6236330  32.5365070
  32.7609270  21.4785510  26.2989640  31.8199410  21.4935740  26.4737330
  33.0753340  20.6921470  26.7449940  22.7390910  23.1605110  19.8593600
  23.5054180  23.0486470  20.4219030  22.8165600  22.4643080  19.2070370
  21.4337670  20.5930180  20.5426490  21.5141260  19.6457690  20.6543890
  22.3257420  20.9237060  20.6487150  22.2352380  30.7425570  27.6461030
  22.9714860  30.1941030  27.9169600  22.6193300  31.6081580  27.5067020
  19.1197860  26.8099140  23.5202540  18.1937640  27.0520280  23.5107950
  19.5854290  27.6373400  23.3987290  21.2410660  29.9271640  36.8346610
  22.0423390  30.2483690  37.2482010  20.7262480  29.5667220  37.5566520
  25.3454690  29.9155880  19.4686600  26.1383300  30.2044710  19.0168390
  24.8259040  29.4848050  18.7899080  30.0775290  26.0351510  36.7822020
  29.4713450  26.0583110  36.0417770  29.7729400  25.3034550  37.3189270
  31.5075660  29.7631800  35.3931430  32.4597410  29.6789820  35.3431670
  31.3603880  30.4273510  36.0665220  34.3984860  29.1426010  20.8923340
  34.1126370  28.7291150  20.0777520  34.2004410  30.0713720  20.7723860
  18.9608470  22.4145100  35.7782660  19.4647490  21.8352380  36.3498890
  18.2215890  22.6985330  36.3159030  25.8632090  25.1359290  19.3328950
  25.7582730  24.5211640  20.0590330  25.6956310  24.6125180  18.5491960
  26.0146410  23.8216090  35.3118180  25.2492080  24.3901090  35.2272850
  26.1962370  23.5292300  34.4186410  29.1034820  24.1979320  19.9370940
  28.5544920  24.6448620  20.5813680  29.7254080  23.6928570  20.4608610
  33.1569760  25.5521420  35.8693200  33.8979230  25.8897180  35.3660660
  32.3942440  25.7213480  35.3162970  20.9931550  20.5574690  36.6732730
  21.0336890  20.2588560  37.5817960  21.8477050  20.9582300  36.5140250
  24.7709940  23.1570240  21.8336240  25.1926360  22.9910110  22.6767630
  24.8960780  22.3470470  21.3391380  22.9337360  19.1366790  34.6407220
  22.4033820  18.6457740  34.0130560  23.6025430  19.5650990  34.1065150
  27.2837580  22.1807850  19.0813340  27.8043240  21.4656870  18.7154490
  27.9305980  22.8193720  19.3813850  32.3037590  20.9432410  36.4087560
  32.8858360  20.1884730  36.3208040  32.4799360  21.4739850  35.6319040
  23.4209660  16.1029160  34.7204510  23.3266530  15.4849910  33.9955380
  22.8407050  16.8295450  34.4934420  26.1871100  14.6602400  31.7531900
  25.7388400  14.6826660  30.9077450  25.5536300  14.2621420  32.3502200
  28.9294550  21.2872910  33.7582180  29.0490760  20.6914050  34.4977020
  29.7888550  21.3242600  33.3383480  23.6668840  19.2303470  18.7794400
  23.4657900  18.3670830  19.1407740  23.4960890  19.1436830  17.8416000
  24.4438070  29.8609740  33.4902070  23.9059160  30.5855800  33.1710770
  24.6972030  29.3840080  32.6999410  25.6963320  17.8294260  35.0158000
  26.2863010  17.5210110  35.7035820  24.8783560  17.3574010  35.1717900
  30.5156750  17.4460070  35.2491020  29.8272270  16.7841610  35.1841010
  31.2362770  16.9998340  35.6939480  31.1457150  14.0411700  21.3081280
  31.4259440  13.1979600  21.6640700  30.3722880  14.2734810  21.8220030
  22.4651640  16.3304090  18.7672280  22.7677540  16.3371520  17.8591430
  23.2046230  15.9801950  19.2639940  27.3000280  31.0960950  33.7488720
  27.2258980  31.9996090  34.0561090  26.3979120  30.7772850  33.7210790
  25.6836570  15.2738710  19.7528480  25.3358570  14.5962700  19.1730930
  25.8849340  14.8128220  20.5671870  27.8485610  30.2619460  21.3715080
  28.7436400  30.6004430  21.3933840  27.8803240  29.5398870  20.7439360
  21.4881770  25.6346510  19.6002080  21.9256640  26.1776180  20.2559660
  21.9729500  24.8093460  19.6098420  18.7027570  28.4235540  27.0522340
  19.0330580  27.5556600  26.8200980  19.1318570  28.6294060  27.8827300
  23.2989490  26.7544550  24.7124310  22.9985030  26.6309520  25.6128220
  23.1926980  25.8953140  24.3040040  19.1917780  29.2906130  29.7903970
  18.7548770  29.4706930  30.6228120  19.7595460  30.0480750  29.6485690
  34.8279960  28.7923130  34.0781280  34.2281950  28.8515690  33.3345200
  34.9573860  27.8528110  34.2078130  36.0681410  26.5340950  19.4150990
  35.2374370  26.6017600  19.8858220  36.2453240  27.4245070  19.1117850
  35.5237870  23.2788430  21.9185190  36.2856780  23.8485080  22.0244880
  35.5392240  22.7115630  22.6893500  19.0242210  21.8026360  26.1492850
  18.3691050  21.5338000  25.5052550  19.8620160  21.6930840  25.6994830
  35.5757040  23.5722800  19.0757710  35.8505880  24.4801680  18.9476930
  35.3867780  23.5085330  20.0119700  31.9732650  16.5967650  20.3711340
  32.3917530  16.4098630  19.5308000  31.6668710  15.7446700  20.6814270
  35.4722380  21.5091790  24.0687140  35.0965980  20.7419720  23.6368430
  34.7425500  21.8914490  24.5562070  20.0618140  22.1878930  30.6896190
  20.4291180  22.1006330  31.5692210  19.4928960  21.4245480  30.5903050
  34.8622000  20.6563310  33.7026660  34.6308090  20.4276060  32.8024610
  35.1226550  21.5762860  33.6571550  19.6134140  19.0988020  34.5954610
  18.7190190  19.0654780  34.9348320  20.1531690  19.2974810  35.3605860
  33.3010070  15.8819740  36.4806360  34.1780250  15.8903140  36.8640360
  33.3130910  15.1450580  35.8698710  18.2380290  19.0125290  22.0918180
  17.3344370  19.2755490  21.9169840  18.7220910  19.2836460  21.3118140
  34.7473340  19.7349280  27.3694380  35.2710820  19.2411930  26.7384550
  35.3332760  19.8699640  28.1141950  34.9263060  19.8189150  30.8913930
  33.9765770  19.7852690  31.0058920  35.1076070  20.7289260  30.6563700
  20.7807500  18.0690830  20.0012560  21.4899200  17.6474050  19.5159840
  20.0647440  18.1366060  19.3695910  20.4281660  14.1230160  19.0415210
  21.1509790  14.6639100  19.3596430  20.7006180  13.8493580  18.1656750
  34.2373310  18.9922630  23.3086790  34.7332430  18.7593500  24.0935670
  34.0389380  18.1534470  22.8924430  20.1173850  13.3736350  28.9437830
  20.7650040  12.8233730  28.5032990  20.5375690  13.6279500  29.7653640
  35.6660470  17.6283580  25.8424470  35.5559750  17.4739620  26.7806740
  36.4268060  17.1004520  25.5999880  34.0126190  13.5677710  32.3007470
  34.6498410  14.1811850  32.6666660  34.1601080  13.6038370  31.3556700
  36.5550740  15.4591500  19.0830610  37.4800050  15.3272680  18.8748900
  36.5326530  15.5384320  20.0367060  36.6289230  16.2302160  21.7087320
  35.8340730  16.1647280  22.2380230  36.8332510  17.1652800  21.6972670
  19.8705850  13.5292020  31.6863150  19.5220670  13.9855840  32.4521330
  19.5393550  12.6349150  31.7685580  21.4770220  26.7011620  35.8516340
  21.4339850  26.3304530  36.7330800  21.6081230  27.6389190  35.9918160
  25.1776250  28.2571210  31.4526060  24.9367610  28.5245770  30.5656580
  26.1178890  28.4276940  31.5076920  27.3830670  14.7203900  35.2082570
  27.3219560  15.3125730  35.9577980  28.3231050  14.6129860  35.0632830
  30.0205230  14.3773960  34.8474860  30.6345640  14.6953250  34.1855940
  30.5654790  13.8922550  35.4670720  36.4380410  30.2765590  32.2536700
  35.9438690  30.6734460  31.5363830  35.8293700  29.6514800  32.6473980
  20.5426490  13.0568220  34.9613920  21.0909480  12.8756270  34.1980030
  20.6081800  12.2662330  35.4970230  21.3158250  29.6473870  32.9714120
  20.7218570  29.5158570  33.7104160  21.3082090  28.8112010  32.5056220
  30.7613270  12.9406100  31.1744150  29.8873110  13.2741210  30.9717080
  30.6524020  12.4679280  31.9996020  31.6685250  15.1476970  32.5585870
  31.3398610  14.3328730  32.1787600  32.6167550  15.1046780  32.4351560
  20.9470480  27.0132250  31.9222160  20.2204540  26.3937540  31.8548110
  21.0079630  27.4072860  31.0520240  24.5515580  29.2277250  28.7071570
  25.0680600  28.6164610  28.1819830  25.2012960  29.7306030  29.1982580
  28.5088090  13.8575940  30.1137060  27.7259880  14.3321440  30.3933820
  28.2151020  12.9530770  30.0050240  33.0609160  14.5599040  28.1586150
  33.5017250  14.5044140  27.3107750  32.7916750  15.4757050  28.2296330
  34.9247730  14.1914280  26.1694970  34.8636130  13.2475500  26.0225990
  35.7039760  14.2994370  26.7148430  19.2300480  30.3306640  25.1318920
  19.0622520  29.6977320  25.8300810  18.3634990  30.5366040  24.7813110
  19.8528500  14.1623420  22.6350780  20.6107860  14.2752300  22.0614810
  19.3905670  14.9992620  22.5894210  26.3942310  16.2762690  25.6253090
  25.5816820  15.9019580  25.2848970  26.8983950  15.5207770  25.9274280
  30.8967290  12.9405140  26.8636160  31.4996660  13.5125350  27.3384680
  30.1560280  13.5044580  26.6410060  34.0401890  13.3426700  22.1376440
  34.2352520  14.2410150  22.4043870  33.2531760  13.1113780  22.6309390
  20.8363180  29.0239870  22.5769060  20.3110800  29.4047900  21.8731020
  20.7607760  29.6490640  23.2978770  22.2253650  14.6887470  21.1752750
  22.7546410  13.9017270  21.0460700  22.8581970  15.3678660  21.4088280
  24.4191490  14.4262610  24.2298140  23.7894230  13.7249920  24.3968270
  23.8796630  15.1866740  24.0131300  27.3583440  31.0401840  36.9008750
  28.2850750  30.8046110  36.9444710  27.3433870  31.8673840  36.4194780
  24.5447050  13.7046590  36.6650630  24.2631320  14.2080190  35.9011450
  24.9266750  12.9068340  36.2992760  23.4356150  30.9722250  21.4518310
  24.1674970  30.6881530  20.9042200  23.6949820  30.7335530  22.3417690
  22.5970940  27.0886980  21.4564640  21.9679820  27.5572080  22.0050470
  22.7118770  26.2436200  21.8910830  31.1462510  13.1200170  37.2431100
  31.0327960  13.4394780  38.1382620  31.9632250  13.5212680  36.9468380
  33.9261000  30.2671700  36.7249790  34.7186320  29.7720930  36.5175750
  34.2194150  30.9461840  37.3325400  30.0520660  21.1392640   7.6065840
  29.9714710  20.2247250   7.3357550  29.6385080  21.6359710   6.9005550
  28.1838700  22.9171660   9.4875110  27.4080800  22.4372100   9.7773680
  28.8351630  22.2377310   9.3131270  22.2004530  23.2291470  10.3650870
  21.3689410  22.9740180  10.7647380  22.8085510  23.3002240  11.1008790
  32.2046130  27.3231850   8.2674240  31.7427660  26.5519090   8.5961410
  33.0171680  27.3497920   8.7726690  22.1805790  27.2631560  10.5608890
  22.4833830  26.3729300  10.3819110  22.9249380  27.8201780  10.3331140
  20.6096480  18.1893360   4.1493260  19.7213180  18.5309330   4.0473140
  20.8937670  17.9893680   3.2574090  18.5729490  20.7899010  10.0332960
  19.1445600  20.0221210  10.0336600  18.5731030  21.0887770   9.1239570
  28.4309440  29.6089860   7.8878230  27.8120880  30.0647360   7.3172670
  29.2861220  29.7641320   7.4867930  27.6247690  25.5928850   9.4945270
  27.5555970  24.6518790   9.3334400  28.3867550  25.6830260  10.0667840
  19.8154360  16.1983370  11.8201890  19.6357200  15.3009120  12.1004650
  19.4134440  16.7455240  12.4948840  28.6552860  18.3999230   9.7214200
  29.0317680  17.5271110   9.6087870  28.5572370  18.7357930   8.8304640
  22.7857870  16.7724860   5.1831640  22.8924620  17.6728590   5.4900400
  21.8750230  16.7242830   4.8926290  32.4376980  15.8949670   6.6542540
  33.2586600  15.4046240   6.6968020  32.4711060  16.4847330   7.4074380
  20.4341030  18.6943870  10.4284230  21.1151140  18.9582240  11.0471630
  20.1189080  17.8544740  10.7622240  24.6265600  19.7411230   9.5156820
  25.1343820  20.2392200  10.1561840  25.1578840  18.9646430   9.3396180
  36.7276530  17.9116420  13.2186170  36.0228700  18.2998130  12.7001280
  36.9934450  18.6066710  13.8207100  22.9101700  14.3809790  13.7820240
  22.9120140  14.8982180  12.9766140  22.0806010  13.9039970  13.7590170
  29.2972790  24.4929100   5.2810140  28.6790060  24.9578550   4.7172860
  29.8096040  25.1856580   5.6979650  24.1604550  24.0204970  11.9593740
  23.8273930  24.6473890  12.6014810  24.3371230  24.5466850  11.1795410
  32.6738460  17.8350050   9.4270080  31.9694030  18.1234940  10.0073190
  33.0350620  18.6450160   9.0669640  22.5917030  16.0919750  11.7890690
  22.9333840  16.9361800  11.4944560  21.6532840  16.2403490  11.9056030
  23.3723650  25.9885770  13.7742920  23.9897650  26.6636850  13.4927370
  22.5116770  26.3973750  13.6830420  18.6655990  25.1785630   2.6549770
  18.2883970  25.6672730   1.9234670  18.9229060  25.8510910   3.2856300
  34.2901240  27.4525180  11.6897560  33.6064760  28.1224290  11.6814230
  34.8295530  27.6505830  10.9242420  35.7425380  17.2804840   9.8179290
  34.7950290  17.3143820   9.9494720  36.0675370  18.0943790  10.2028650
  26.2744920  13.5802020   8.1135280  26.5819900  13.0248910   7.3970780
  25.3445620  13.7146480   7.9308270  31.8259980  29.2969310  10.4042740
  31.8387140  28.8931600   9.5365000  31.2735200  30.0716600  10.3004170
  33.1205400  26.0185530   5.4932910  33.0101730  25.0759860   5.6182330
  33.1173650  26.3801170   6.3795670  31.2245420  24.1999150  11.7325350
  31.6414210  23.9859260  10.8978810  31.9485240  24.4571940  12.3033970
  28.6625680  21.6450850   4.8495400  27.7354960  21.5788230   5.0783870
  28.8150500  22.5830980   4.7350640  35.1707520  22.5986370  11.8241590
  34.3426150  22.6679460  11.3491720  35.7658000  23.1840680  11.3557420
  32.6922970  23.2071150   5.3530650  32.0735390  22.8690700   4.7056950
  32.6747420  22.5630910   6.0609840  32.1349530  19.3855690  12.7696460
  31.7220710  20.2109400  13.0236450  31.4025480  18.8000730  12.5772820
  24.2682320  22.1715590   7.6315130  23.8639320  21.4592840   7.1361030
  24.3545440  21.8268830   8.5203170  24.7364020  25.8583150   9.7954340
  24.4392310  25.2528620   9.1162120  25.6863840  25.8960460   9.6843700
  22.9810940  18.9458800  11.4114170  23.5325530  19.0554140  10.6367420
  23.4954450  19.3196400  12.1269400  32.8249630  29.4315020  13.4577440
  32.3480190  30.2387210  13.2650050  32.1411420  28.7793350  13.6103650
  23.8282450  25.5964840  16.4462140  22.9310980  25.8204810  16.6935540
  23.8535320  25.7199780  15.4973540  30.8687670  22.4457960   2.3603400
  31.3080950  21.6080390   2.2141220  31.5816090  23.0787360   2.4467540
  22.6553670  22.4678160  15.0219510  22.5161440  23.3400960  15.3906910
  21.7735030  22.1250970  14.8767450  28.9783050  27.3854030   6.3284640
  29.4178960  28.1278360   5.9140030  28.9169940  27.6280600   7.2523600
  24.4534020  28.4099860  17.2304660  24.4249450  28.8142810  16.3633090
  24.2898990  27.4810220  17.0676260  20.9686950  21.0660570   5.1321780
  20.8484550  21.7922660   4.5203050  20.6587840  20.2963480   4.6549690
  36.4048840  29.1926960  18.5268830  36.8808560  29.6709850  19.2057910
  37.0256000  29.1244450  17.8014330  18.6072320  24.2375710  10.9390420
  18.6852740  24.3724480   9.9946140  19.2214000  23.5291600  11.1318540
  19.8519950  25.9375900   7.3496600  19.4448030  26.0790490   6.4950200
  20.7432960  25.6536060   7.1467810  35.8082090  26.3839810  15.6868840
  35.9345150  26.1451690  14.7686020  35.8503470  25.5524350  16.1590920
  29.6698830  30.0867810  14.2563650  30.1843500  29.9975820  15.0586080
  28.8267910  30.4327510  14.5491560  31.6453230  30.3723150   3.6847650
  31.4854370  30.0826090   4.5829480  31.4799940  29.5963280   3.1492880
  24.1241610  30.1521680   5.4619270  23.9484090  29.2357220   5.2487070
  23.2697350  30.5108970   5.7017070  30.9129290  29.5073420   6.3194140
  31.3686240  28.7262800   6.6332760  31.2521810  30.2180240   6.8635320
  35.6606100  18.4372270  16.6518580  35.0450370  18.9451940  16.1234040
  35.3402520  17.5370600  16.5944520  18.6631840  25.2789880  13.4784880
  18.8262880  24.8095240  12.6604250  19.1284290  24.7713440  14.1433720
  23.4350610  14.4095640   8.5145450  22.9918760  15.1905180   8.1829970
  23.9935600  14.7325530   9.2216390  27.7220420  17.2764160  14.1180770
  27.2599790  17.4847180  14.9300710  27.3198530  16.4623510  13.8151440
  32.7224930  18.4973110  15.2477430  31.8718520  18.1978860  15.5686500
  32.5626720  18.7415120  14.3361250  29.8174640  19.9974860  17.3476220
  30.1428050  19.1638610  17.0078450  30.6054970  20.5203380  17.4954550
  26.5509430  14.0306340   3.3951280  25.9263610  14.0266210   4.1204590
  26.4639550  13.1637300   2.9987250  25.4726510  14.9542970  10.3735050
  25.7698840  15.8605800  10.2927070  26.0212070  14.4661750   9.7594620
  23.2264830  19.5329210   6.2426700  23.0005750  19.3166380   7.1473320
  22.4457360  19.9657670   5.8972670  30.4562590  19.5392580   4.8417350
  29.8571480  20.2628380   4.6580970  31.0042200  19.4769360   4.0593800
  25.6664040  20.4314790  16.9086970  25.5707640  19.4909520  16.7587370
  26.5096020  20.6529860  16.5135040  29.0627460  18.1756120   6.8720630
  29.4557030  18.4928320   6.0589320  29.4244310  17.2968000   6.9865150
  20.7974580  16.8428460  15.0620750  20.4037970  17.6903670  15.2693530
  20.1092980  16.2054830  15.2529390  27.3719630  16.9263430  18.1317490
  26.6817950  16.7335630  18.7663580  28.1151930  17.2098070  18.6641790
  18.0991630  14.7656920   9.0950830  17.8104680  15.3359780   9.8075810
  18.8437390  14.2861370   9.4582060  29.6482600  20.7661870  10.9671410
  28.9163720  21.2748680  11.3161510  29.2506940  19.9491850  10.6660190
  26.0859990  17.4416070   9.3723900  26.0896050  17.0006020   8.5228440
  26.9811110  17.7633400   9.4795720  21.9362370  17.3242560   8.3318110
  21.5962420  17.8017790   9.0885160  21.1739690  16.8707680   7.9719210
  26.1480140  18.4428150   2.3630660  26.2692960  18.4014630   3.3116480
  25.7628650  19.3052300   2.2077390  30.1108510  16.2195550  10.3794350
  30.1281250  16.6704200  11.2236200  29.8624090  15.3201190  10.5927790
  33.5379260  13.6327730  16.2180730  33.8625030  12.9017390  16.7438710
  33.5735770  13.3141370  15.3161720  20.2370820  24.6541310  15.6380690
  19.8525610  24.0134980  16.2363650  20.5483010  25.3577430  16.2075420
  26.3867960  21.5017850  11.1189310  26.7538090  21.0276420  11.8650650
  26.1973020  22.3759420  11.4597650  19.2508450  16.2461540   7.2482780
  18.9655370  15.8817210   8.0861400  19.1887310  15.5142000   6.6345920
  24.1767330  20.5426490  13.4373520  23.8724400  21.4218470  13.6623880
  25.1313790  20.6026280  13.4730960  22.7049120  24.7487480   4.0340370
  21.9311380  24.2085100   3.8739090  23.4343750  24.2294090   3.6958130
  33.4637100  23.7452840   9.8266760  34.1836220  24.2408130   9.4362870
  33.2618920  23.0670730   9.1820630  28.9247040  15.1390800   3.9696150
  28.1111650  14.6403970   3.8941460  28.7308990  15.9789050   3.5532500
  28.8455900  23.8161900  15.7135760  28.7793210  22.8957570  15.4593350
  28.2161040  23.9137340  16.4280400  31.6395430  19.5110450   2.2658310
  32.5275050  19.8227680   2.0909650  31.6100520  18.6382700   1.8738890
  22.7486520  24.4167860   7.6719180  23.2665190  23.6136120   7.6176070
  22.2970540  24.3547000   8.5136010  27.6356020  25.6834140   2.9446480
  27.9771720  26.4276370   2.4489800  26.8068730  25.9965260   3.3071310
  20.2331060  21.3829230  14.5844880  19.8746000  22.0483080  15.1718220
  19.9385620  20.5512780  14.9557500  23.4344180  21.8413470  17.4684430
  23.1344320  21.9870650  16.5712250  24.2055420  21.2818760  17.3757820
  28.7772630  26.6382470  15.4639560  28.7917170  25.7063430  15.2458470
  28.0697730  26.7242230  16.1029330  34.9883840  23.2789810  14.8108140
  34.2632030  23.8718590  14.6137530  35.5159300  23.2713350  14.0121510
  34.9396950  27.6764550   4.4620300  34.2973110  27.0220170   4.7364020
  34.5527610  28.0819640   3.6860970  30.5183430  25.0049980   8.3091990
  30.8707250  24.4078110   7.6493360  29.6345760  24.6794210   8.4800240
  26.6046710  25.7647670   5.7162400  27.2917840  26.3116880   6.0969990
  25.8179130  26.3088400   5.7512010  25.9073920  22.7693700   5.3287760
  26.3636700  23.5798950   5.5547950  25.5562130  22.4516840   6.1606250
  28.2106530  28.2800040  12.5580060  28.8548750  28.4859420  13.2353480
  28.5735970  27.5188440  12.1050910  21.8085700  13.1131350   5.8010280
  21.6800330  13.1049250   6.7495200  20.9847720  13.4514440   5.4501290
  29.4838610  26.2832390  11.2757510  30.1260840  25.5825550  11.3889680
  30.0087960  27.0630830  11.0954400  31.2576230  27.0827290  14.4793570
  31.5932470  27.6693980  15.1571490  30.3376570  26.9520000  14.7091360
  18.8079630  14.8722470  15.2616980  18.0938150  15.0719390  15.8669590
  19.2274670  14.0962040  15.6331780  32.9110580  24.4852950   2.6610810
  32.6232280  24.9465640   3.4488690  33.7062750  24.0250720   2.9295030
  19.0952220  28.8602730  16.2483510  19.2043340  27.9197470  16.1078900
  18.4432780  29.1257480  15.5997240  27.0864810  27.1318620  17.6481630
  26.7661680  26.4127860  18.1927320  26.4123170  27.8073690  17.7217690
  25.1278980  27.9779070   2.5914780  25.1189080  28.7108760   1.9759290
  24.2077340  27.7310650   2.6841740  20.7285620  23.1993960   3.3361540
  20.1213570  23.9392860   3.3456840  21.2034970  23.2893320   2.5099740
  30.3018410  17.3644780  13.0118430  30.6699230  16.5439990  13.3398000
  29.4416610  17.4246670  13.4274080  33.6680440  16.3201720   3.8205990
  33.0393600  16.4247390   3.1064220  33.1732360  16.5398500   4.6099870
  25.6364470  18.5987670   5.2363870  24.9280620  19.0674010   5.6777480
  25.9208950  17.9409680   5.8709060  27.2620400  20.0184370  13.2356400
  27.7605650  20.4930190  13.9008250  27.4043350  19.0947890  13.4426430
  29.6679900  15.3238330   6.6759660  29.5447680  15.3424460   5.7269170
  30.6164460  15.3717270   6.7958060  26.7556690  30.5593630   5.9487640
  27.0098190  30.5215020   5.0267010  25.8069170  30.4326960   5.9415890
  23.8399490  16.9072750   2.6114580  24.6890020  17.3442900   2.5454770
  23.4730760  17.2193010   3.4386640  34.4687260  16.2352330  14.0784790
  33.9660860  16.9757730  14.4178600  35.2843920  16.6236330  13.7621580
  32.7609270  21.4785510   7.5246150  31.8199410  21.4935740   7.6993840
  33.0753340  20.6921470   7.9706450  21.4337670  20.5930180   1.7683000
  21.5141260  19.6457690   1.8800400  22.3257420  20.9237060   1.8743660
  34.7634850  28.6494360   9.2000410  34.8882270  29.4725530   9.6724220
  35.6300410  28.4385090   8.8524560  22.2352380  30.7425570   8.8717540
  22.9714860  30.1941030   9.1426110  22.6193300  31.6081580   8.7323530
  19.1197860  26.8099140   4.7459050  18.1937640  27.0520280   4.7364460
  19.5854290  27.6373400   4.6243800  21.2410660  29.9271640  18.0603120
  22.0423390  30.2483690  18.4738520  20.7262480  29.5667220  18.7823030
  30.0775290  26.0351510  18.0078530  29.4713450  26.0583110  17.2674280
  29.7729400  25.3034550  18.5445780  31.5075660  29.7631800  16.6187940
  32.4597410  29.6789820  16.5688180  31.3603880  30.4273510  17.2921730
  18.9608470  22.4145100  17.0039170  19.4647490  21.8352380  17.5755400
  18.2215890  22.6985330  17.5415540  26.0146410  23.8216090  16.5374690
  25.2492080  24.3901090  16.4529360  26.1962370  23.5292300  15.6442920
  33.1569760  25.5521420  17.0949710  33.8979230  25.8897180  16.5917170
  32.3942440  25.7213480  16.5419480  20.9931550  20.5574690  17.8989240
  21.0336890  20.2588560  18.8074470  21.8477050  20.9582300  17.7396760
  24.7709940  23.1570240   3.0592750  25.1926360  22.9910110   3.9024140
  24.8960780  22.3470470   2.5647890  22.9337360  19.1366790  15.8663730
  22.4033820  18.6457740  15.2387070  23.6025430  19.5650990  15.3321660
  31.8315420  23.6036250  15.6304920  32.2456440  23.7581330  16.4795340
  30.8966420  23.7291470  15.7930700  32.3037590  20.9432410  17.6344070
  32.8858360  20.1884730  17.5464550  32.4799360  21.4739850  16.8575550
  23.4209660  16.1029160  15.9461020  23.3266530  15.4849910  15.2211890
  22.8407050  16.8295450  15.7190930  26.1871100  14.6602400  12.9788410
  25.7388400  14.6826660  12.1333960  25.5536300  14.2621420  13.5758710
  26.5930650  23.5556730  13.6000850  27.0118760  24.3989460  13.4277090
  25.6739280  23.6928770  13.3707630  28.9294550  21.2872910  14.9838690
  29.0490760  20.6914050  15.7233530  29.7888550  21.3242600  14.5639990
  31.2682450  21.8410100  13.5601200  30.7417670  22.3652720  12.9566340
  31.6113790  22.4737490  14.1910930  24.4438070  29.8609740  14.7158580
  23.9059160  30.5855800  14.3967280  24.6972030  29.3840080  13.9255920
  25.6963320  17.8294260  16.2414510  26.2863010  17.5210110  16.9292330
  24.8783560  17.3574010  16.3974410  30.5156750  17.4460070  16.4747530
  29.8272270  16.7841610  16.4097520  31.2362770  16.9998340  16.9195990
  31.1457150  14.0411700   2.5337790  31.4259440  13.1979600   2.8897210
  30.3722880  14.2734810   3.0476540  27.3000280  31.0960950  14.9745230
  27.2258980  31.9996090  15.2817600  26.3979120  30.7772850  14.9467300
  27.8485610  30.2619460   2.5971590  28.7436400  30.6004430   2.6190350
  27.8803240  29.5398870   1.9695870  18.7027570  28.4235540   8.2778850
  19.0330580  27.5556600   8.0457490  19.1318570  28.6294060   9.1083810
  23.2989490  26.7544550   5.9380820  22.9985030  26.6309520   6.8384730
  23.1926980  25.8953140   5.5296550  19.1917780  29.2906130  11.0160480
  18.7548770  29.4706930  11.8484630  19.7595460  30.0480750  10.8742200
  34.8279960  28.7923130  15.3037790  34.2281950  28.8515690  14.5601710
  34.9573860  27.8528110  15.4334640  35.5237870  23.2788430   3.1441700
  36.2856780  23.8485080   3.2501390  35.5392240  22.7115630   3.9150010
  19.0242210  21.8026360   7.3749360  18.3691050  21.5338000   6.7309060
  19.8620160  21.6930840   6.9251340  36.5297840  24.1338530   7.9883630
  36.9006670  23.3505850   7.5819600  37.1699770  24.8227630   7.8100930
  33.5131600  25.5175110  13.4013950  32.6991440  25.9472270  13.6639740
  33.9205800  26.1293520  12.7883000  35.4722380  21.5091790   5.2943650
  35.0965980  20.7419720   4.8624940  34.7425500  21.8914490   5.7818580
  20.0618140  22.1878930  11.9152700  20.4291180  22.1006330  12.7948720
  19.4928960  21.4245480  11.8159560  34.8622000  20.6563310  14.9283170
  34.6308090  20.4276060  14.0281120  35.1226550  21.5762860  14.8828060
  19.6134140  19.0988020  15.8211120  18.7190190  19.0654780  16.1604830
  20.1531690  19.2974810  16.5862370  33.3010070  15.8819740  17.7062870
  34.1780250  15.8903140  18.0896870  33.3130910  15.1450580  17.0955220
  18.2380290  19.0125290   3.3174690  17.3344370  19.2755490   3.1426350
  18.7220910  19.2836460   2.5374650  34.7473340  19.7349280   8.5950890
  35.2710820  19.2411930   7.9641060  35.3332760  19.8699640   9.3398460
  34.9263060  19.8189150  12.1170440  33.9765770  19.7852690  12.2315430
  35.1076070  20.7289260  11.8820210  34.2373310  18.9922630   4.5343300
  34.7332430  18.7593500   5.3192180  34.0389380  18.1534470   4.1180940
  20.1173850  13.3736350  10.1694340  20.7650040  12.8233730   9.7289500
  20.5375690  13.6279500  10.9910150  35.6660470  17.6283580   7.0680980
  35.5559750  17.4739620   8.0063250  36.4268060  17.1004520   6.8256390
  34.0126190  13.5677710  13.5263980  34.6498410  14.1811850  13.8923170
  34.1601080  13.6038370  12.5813210  36.6289230  16.2302160   2.9343830
  35.8340730  16.1647280   3.4636740  36.8332510  17.1652800   2.9229180
  33.5707650  30.2693710   6.9282220  34.1666720  29.9478280   6.2516640
  33.8285800  29.7965530   7.7195490  19.8705850  13.5292020  12.9119660
  19.5220670  13.9855840  13.6777840  19.5393550  12.6349150  12.9942090
  21.4770220  26.7011620  17.0772850  21.4339850  26.3304530  17.9587310
  21.6081230  27.6389190  17.2174670  25.1776250  28.2571210  12.6782570
  24.9367610  28.5245770  11.7913090  26.1178890  28.4276940  12.7333430
  27.3830670  14.7203900  16.4339080  27.3219560  15.3125730  17.1834490
  28.3231050  14.6129860  16.2889340  30.0205230  14.3773960  16.0731370
  30.6345640  14.6953250  15.4112450  30.5654790  13.8922550  16.6927230
  36.4380410  30.2765590  13.4793210  35.9438690  30.6734460  12.7620340
  35.8293700  29.6514800  13.8730490  20.5426490  13.0568220  16.1870430
  21.0909480  12.8756270  15.4236540  20.6081800  12.2662330  16.7226740
  21.3158250  29.6473870  14.1970630  20.7218570  29.5158570  14.9360670
  21.3082090  28.8112010  13.7312730  30.7613270  12.9406100  12.4000660
  29.8873110  13.2741210  12.1973590  30.6524020  12.4679280  13.2252530
  31.6685250  15.1476970  13.7842380  31.3398610  14.3328730  13.4044110
  32.6167550  15.1046780  13.6608070  34.1219860  30.9189010  10.7579950
  33.6622830  31.6704820  10.3837970  33.4932320  30.1995480  10.6994750
  20.9470480  27.0132250  13.1478670  20.2204540  26.3937540  13.0804620
  21.0079630  27.4072860  12.2776750  24.5515580  29.2277250   9.9328080
  25.0680600  28.6164610   9.4076340  25.2012960  29.7306030  10.4239090
  27.2911080  30.1185740  10.7597060  27.5788890  29.8640040   9.8830070
  27.8034300  29.5663100  11.3502630  28.5088090  13.8575940  11.3393570
  27.7259880  14.3321440  11.6190330  28.2151020  12.9530770  11.2306750
  33.0609160  14.5599040   9.3842660  33.5017250  14.5044140   8.5364260
  32.7916750  15.4757050   9.4552840  34.9247730  14.1914280   7.3951480
  34.8636130  13.2475500   7.2482500  35.7039760  14.2994370   7.9404940
  19.2300480  30.3306640   6.3575430  19.0622520  29.6977320   7.0557320
  18.3634990  30.5366040   6.0069620  19.8528500  14.1623420   3.8607290
  20.6107860  14.2752300   3.2871320  19.3905670  14.9992620   3.8150720
  26.3942310  16.2762690   6.8509600  25.5816820  15.9019580   6.5105480
  26.8983950  15.5207770   7.1530790  30.8967290  12.9405140   8.0892670
  31.4996660  13.5125350   8.5641190  30.1560280  13.5044580   7.8666570
  34.0401890  13.3426700   3.3632950  34.2352520  14.2410150   3.6300380
  33.2531760  13.1113780   3.8565900  20.8363180  29.0239870   3.8025570
  20.3110800  29.4047900   3.0987530  20.7607760  29.6490640   4.5235280
  22.2253650  14.6887470   2.4009260  22.7546410  13.9017270   2.2717210
  22.8581970  15.3678660   2.6344790  24.4191490  14.4262610   5.4554650
  23.7894230  13.7249920   5.6224780  23.8796630  15.1866740   5.2387810
  27.3583440  31.0401840  18.1265260  28.2850750  30.8046110  18.1701220
  27.3433870  31.8673840  17.6451290  35.5928500  30.5827410   5.1239510
  35.7680690  29.8965150   4.4800430  34.8950070  31.1074460   4.7316180
  24.5447050  13.7046590  17.8907140  24.2631320  14.2080190  17.1267960
  24.9266750  12.9068340  17.5249270  23.4356150  30.9722250   2.6774820
  24.1674970  30.6881530   2.1298710  23.6949820  30.7335530   3.5674200
  22.5970940  27.0886980   2.6821150  21.9679820  27.5572080   3.2306980
  22.7118770  26.2436200   3.1167340  31.1462510  13.1200170  18.4687610
  31.0327960  13.4394780  19.3639130  31.9632250  13.5212680  18.1724890
  33.9261000  30.2671700  17.9506300  34.7186320  29.7720930  17.7432260
  34.2194150  30.9461840  18.5581910  28.1838700   4.1428170  47.0362090
  27.4080800   3.6628610  47.3260660  28.8351630   3.4633820  46.8618250
  22.2004530   4.4547980  47.9137850  21.3689410   4.1996690  48.3134360
  22.8085510   4.5258750  48.6495770  32.2046130   8.5488360  45.8161220
  31.7427660   7.7775600  46.1448390  33.0171680   8.5754430  46.3213670
  22.1805790   8.4888070  48.1095870  22.4833830   7.5985810  47.9306090
  22.9249380   9.0458290  47.8818120  28.4309440  10.8346370  45.4365210
  27.8120880  11.2903870  44.8659650  29.2861220  10.9897830  45.0354910
  27.6247690   6.8185360  47.0432250  27.5555970   5.8775300  46.8821380
  28.3867550   6.9086770  47.6154820  29.2972790   5.7185610  42.8297120
  28.6790060   6.1835060  42.2659840  29.8096040   6.4113090  43.2466630
  24.1604550   5.2461480  49.5080720  23.8273930   5.8730400  50.1501790
  24.3371230   5.7723360  48.7282390  23.3723650   7.2142280  51.3229900
  23.9897650   7.8893360  51.0414350  22.5116770   7.6230260  51.2317400
  18.6655990   6.4042140  40.2036750  18.2883970   6.8929240  39.4721650
  18.9229060   7.0767420  40.8343280  34.2901240   8.6781690  49.2384540
  33.6064760   9.3480800  49.2301210  34.8295530   8.8762340  48.4729400
  31.8259980  10.5225820  47.9529720  31.8387140  10.1188110  47.0851980
  31.2735200  11.2973110  47.8491150  33.1205400   7.2442040  43.0419890
  33.0101730   6.3016370  43.1669310  33.1173650   7.6057680  43.9282650
  31.2245420   5.4255660  49.2812330  31.6414210   5.2115770  48.4465790
  31.9485240   5.6828450  49.8520950  28.6625680   2.8707360  42.3982380
  27.7354960   2.8044740  42.6270850  28.8150500   3.8087490  42.2837620
  35.1707520   3.8242880  49.3728570  34.3426150   3.8935970  48.8978700
  35.7658000   4.4097190  48.9044400  32.6922970   4.4327660  42.9017630
  32.0735390   4.0947210  42.2543930  32.6747420   3.7887420  43.6096820
  24.2682320   3.3972100  45.1802110  23.8639320   2.6849350  44.6848010
  24.3545440   3.0525340  46.0690150  24.7364020   7.0839660  47.3441320
  24.4392310   6.4785130  46.6649100  25.6863840   7.1216970  47.2330680
  32.8249630  10.6571530  51.0064420  32.3480190  11.4643720  50.8137030
  32.1411420  10.0049860  51.1590630  30.8687670   3.6714470  39.9090380
  31.3080950   2.8336900  39.7628200  31.5816090   4.3043870  39.9954520
  22.6553670   3.6934670  52.5706490  22.5161440   4.5657470  52.9393890
  21.7735030   3.3507480  52.4254430  28.9783050   8.6110540  43.8771620
  29.4178960   9.3534870  43.4627010  28.9169940   8.8537110  44.8010580
  18.6072320   5.4632220  48.4877400  18.6852740   5.5980990  47.5433120
  19.2214000   4.7548110  48.6805520  19.8519950   7.1632410  44.8983580
  19.4448030   7.3047000  44.0437180  20.7432960   6.8792570  44.6954790
  35.8082090   7.6096320  53.2355820  35.9345150   7.3708200  52.3173000
  35.8503470   6.7780860  53.7077900  29.6698830  11.3124320  51.8050630
  30.1843500  11.2232330  52.6073060  28.8267910  11.6584020  52.0978540
  31.6453230  11.5979660  41.2334630  31.4854370  11.3082600  42.1316460
  31.4799940  10.8219790  40.6979860  24.1241610  11.3778190  43.0106250
  23.9484090  10.4613730  42.7974050  23.2697350  11.7365480  43.2504050
  31.3479360   9.1067220  39.7932630  30.6544520   9.1044510  39.1334910
  32.0902220   8.6826540  39.3626800  30.9129290  10.7329930  43.8681120
  31.3686240   9.9519310  44.1819740  31.2521810  11.4436750  44.4122300
  18.6631840   6.5046390  51.0271860  18.8262880   6.0351750  50.2091230
  19.1284290   5.9969950  51.6920700  20.2370820   5.8797820  53.1867670
  19.8525610   5.2391490  53.7850630  20.5483010   6.5833940  53.7562400
  26.3867960   2.7274360  48.6676290  26.7538090   2.2532930  49.4137630
  26.1973020   3.6015930  49.0084630  24.1767330   1.7683000  50.9860500
  23.8724400   2.6474980  51.2110860  25.1313790   1.8282790  51.0217940
  22.7049120   5.9743990  41.5827350  21.9311380   5.4341610  41.4226070
  23.4343750   5.4550600  41.2445110  33.4637100   4.9709350  47.3753740
  34.1836220   5.4664640  46.9849850  33.2618920   4.2927240  46.7307610
  28.8455900   5.0418410  53.2622740  28.7793210   4.1214080  53.0080330
  28.2161040   5.1393850  53.9767380  22.7486520   5.6424370  45.2206160
  23.2665190   4.8392630  45.1663050  22.2970540   5.5803510  46.0622990
  27.6356020   6.9090650  40.4933460  27.9771720   7.6532880  39.9976780
  26.8068730   7.2221770  40.8558290  20.2331060   2.6085740  52.1331860
  19.8746000   3.2739590  52.7205200  19.9385620   1.7769290  52.5044480
  28.7772630   7.8638980  53.0126540  28.7917170   6.9319940  52.7945450
  28.0697730   7.9498740  53.6516310  33.9109700   2.0478800  39.2825150
  33.8273420   2.4793020  38.4321590  34.6303890   2.5077150  39.7151970
  34.9883840   4.5046320  52.3595120  34.2632030   5.0975100  52.1624510
  35.5159300   4.4969860  51.5608490  34.9396950   8.9021060  42.0107280
  34.2973110   8.2476680  42.2851000  34.5527610   9.3076150  41.2347950
  30.5183430   6.2306490  45.8578970  30.8707250   5.6334620  45.1980340
  29.6345760   5.9050720  46.0287220  26.6046710   6.9904180  43.2649380
  27.2917840   7.5373390  43.6456970  25.8179130   7.5344910  43.2998990
  18.7439110   2.6077000  38.7566460  19.6133960   2.8901800  39.0402380
  18.2529430   3.4212870  38.6415270  25.9073920   3.9950210  42.8774740
  26.3636700   4.8055460  43.1034930  25.5562130   3.6773350  43.7093230
  28.2106530   9.5056550  50.1067040  28.8548750   9.7115930  50.7840460
  28.5735970   8.7444950  49.6537890  29.4838610   7.5088900  48.8244490
  30.1260840   6.8082060  48.9376660  30.0087960   8.2887340  48.6441380
  33.3294330   7.7937520  38.5483630  33.1031910   7.0767960  39.1408270
  32.9390530   7.5449960  37.7105380  31.2576230   8.3083800  52.0280550
  31.5932470   8.8950490  52.7058470  30.3376570   8.1776510  52.2578340
  19.1110360  11.8204380  39.3228090  19.4708000  12.4193720  38.6685360
  18.9702700  12.3664270  40.0963120  32.9110580   5.7109460  40.2097790
  32.6232280   6.1722150  40.9975670  33.7062750   5.2507230  40.4782010
  19.0952220  10.0859240  53.7970490  19.2043340   9.1453980  53.6565880
  18.4432780  10.3513990  53.1484220  25.1278980   9.2035580  40.1401760
  25.1189080   9.9365270  39.5246270  24.2077340   8.9567160  40.2328720
  20.7285620   4.4250470  40.8848520  20.1213570   5.1649370  40.8943820
  21.2034970   4.5149830  40.0586720  28.1138580   9.2663820  38.8026950
  28.2150560   9.0627810  37.8728930  27.2140320   9.0122100  39.0074730
  26.7556690  11.7850140  43.4974620  27.0098190  11.7471530  42.5753990
  25.8069170  11.6583470  43.4902870  32.7609270   2.7042020  45.0733130
  31.8199410   2.7192250  45.2480820  33.0753340   1.9177980  45.5193430
  22.7390910   4.3861620  38.6337090  23.5054180   4.2742980  39.1962520
  22.8165600   3.6899590  37.9813860  34.7634850   9.8750870  46.7487390
  34.8882270  10.6982040  47.2211200  35.6300410   9.6641600  46.4011540
  22.2352380  11.9682080  46.4204520  22.9714860  11.4197540  46.6913090
  22.6193300  12.8338090  46.2810510  19.1197860   8.0355650  42.2946030
  18.1937640   8.2776790  42.2851440  19.5854290   8.8629910  42.1730780
  25.3454690  11.1412390  38.2430090  26.1383300  11.4301220  37.7911880
  24.8259040  10.7104560  37.5642570  34.3984860  10.3682520  39.6666830
  34.1126370   9.9547660  38.8521010  34.2004410  11.2970230  39.5467350
  25.8632090   6.3615800  38.1072440  25.7582730   5.7468150  38.8333820
  25.6956310   5.8381690  37.3235450  26.0146410   5.0472600  54.0861670
  25.2492080   5.6157600  54.0016340  26.1962370   4.7548810  53.1929900
  29.1034820   5.4235830  38.7114430  28.5544920   5.8705130  39.3557170
  29.7254080   4.9185080  39.2352100  24.7709940   4.3826750  40.6079730
  25.1926360   4.2166620  41.4511120  24.8960780   3.5726980  40.1134870
  27.2837580   3.4064360  37.8556830  27.8043240   2.6913380  37.4897980
  27.9305980   4.0450230  38.1557340  31.8315420   4.8292760  53.1791900
  32.2456440   4.9837840  54.0282320  30.8966420   4.9547980  53.3417680
  26.5930650   4.7813240  51.1487830  27.0118760   5.6245970  50.9764070
  25.6739280   4.9185280  50.9194610  28.9294550   2.5129420  52.5325670
  29.0490760   1.9170560  53.2720510  29.7888550   2.5499110  52.1126970
  31.2682450   3.0666610  51.1088180  30.7417670   3.5909230  50.5053320
  31.6113790   3.6994000  51.7397910  24.4438070  11.0866250  52.2645560
  23.9059160  11.8112310  51.9454260  24.6972030  10.6096590  51.4742900
  27.3000280  12.3217460  52.5232210  27.2258980  13.2252600  52.8304580
  26.3979120  12.0029360  52.4954280  27.8485610  11.4875970  40.1458570
  28.7436400  11.8260940  40.1677330  27.8803240  10.7655380  39.5182850
  21.4881770   6.8603020  38.3745570  21.9256640   7.4032690  39.0303150
  21.9729500   6.0349970  38.3841910  18.7027570   9.6492050  45.8265830
  19.0330580   8.7813110  45.5944470  19.1318570   9.8550570  46.6570790
  23.2989490   7.9801060  43.4867800  22.9985030   7.8566030  44.3871710
  23.1926980   7.1209650  43.0783530  19.1917780  10.5162640  48.5647460
  18.7548770  10.6963440  49.3971610  19.7595460  11.2737260  48.4229180
  34.8279960  10.0179640  52.8524770  34.2281950  10.0772200  52.1088690
  34.9573860   9.0784620  52.9821620  36.0681410   7.7597460  38.1894480
  35.2374370   7.8274110  38.6601710  36.2453240   8.6501580  37.8861340
  35.5237870   4.5044940  40.6928680  36.2856780   5.0741590  40.7988370
  35.5392240   3.9372140  41.4636990  19.0242210   3.0282870  44.9236340
  18.3691050   2.7594510  44.2796040  19.8620160   2.9187350  44.4738320
  36.5297840   5.3595040  45.5370610  36.9006670   4.5762360  45.1306580
  37.1699770   6.0484140  45.3587910  33.5131600   6.7431620  50.9500930
  32.6991440   7.1728780  51.2126720  33.9205800   7.3550030  50.3369980
  35.5757040   4.7979310  37.8501200  35.8505880   5.7058190  37.7220420
  35.3867780   4.7341840  38.7863190  35.4722380   2.7348300  42.8430630
  35.0965980   1.9676230  42.4111920  34.7425500   3.1171000  43.3305560
  20.0618140   3.4135440  49.4639680  20.4291180   3.3262840  50.3435700
  19.4928960   2.6501990  49.3646540  33.5707650  11.4950220  44.4769200
  34.1666720  11.1734790  43.8003620  33.8285800  11.0222040  45.2682470
  25.1776250   9.4827720  50.2269550  24.9367610   9.7502280  49.3400070
  26.1178890   9.6533450  50.2820410  36.4380410  11.5022100  51.0280190
  35.9438690  11.8990970  50.3107320  35.8293700  10.8771310  51.4217470
  21.3158250  10.8730380  51.7457610  20.7218570  10.7415080  52.4847650
  21.3082090  10.0368520  51.2799710  34.1219860  12.1445520  48.3066930
  33.6622830  12.8961330  47.9324950  33.4932320  11.4251990  48.2481730
  20.9470480   8.2388760  50.6965650  20.2204540   7.6194050  50.6291600
  21.0079630   8.6329370  49.8263730  24.5515580  10.4533760  47.4815060
  25.0680600   9.8421120  46.9563320  25.2012960  10.9562540  47.9726070
  27.2911080  11.3442250  48.3084040  27.5788890  11.0896550  47.4317050
  27.8034300  10.7919610  48.8989610  19.2300480  11.5563150  43.9062410
  19.0622520  10.9233830  44.6044300  18.3634990  11.7622550  43.5556600
  20.8363180  10.2496380  41.3512550  20.3110800  10.6304410  40.6474510
  20.7607760  10.8747150  42.0722260  35.5928500  11.8083920  42.6726490
  35.7680690  11.1221660  42.0287410  34.8950070  12.3330970  42.2803160
  23.4356150  12.1978760  40.2261800  24.1674970  11.9138040  39.6785690
  23.6949820  11.9592040  41.1161180  22.5970940   8.3143490  40.2308130
  21.9679820   8.7828590  40.7793960  22.7118770   7.4692710  40.6654320
  28.1838700   4.1428170  28.2618600  27.4080800   3.6628610  28.5517170
  28.8351630   3.4633820  28.0874760  22.2004530   4.4547980  29.1394360
  21.3689410   4.1996690  29.5390870  22.8085510   4.5258750  29.8752280
  32.2046130   8.5488360  27.0417730  31.7427660   7.7775600  27.3704900
  33.0171680   8.5754430  27.5470180  22.1805790   8.4888070  29.3352380
  22.4833830   7.5985810  29.1562600  22.9249380   9.0458290  29.1074630
  28.4309440  10.8346370  26.6621720  27.8120880  11.2903870  26.0916160
  29.2861220  10.9897830  26.2611420  27.6247690   6.8185360  28.2688760
  27.5555970   5.8775300  28.1077890  28.3867550   6.9086770  28.8411330
  29.2972790   5.7185610  24.0553630  28.6790060   6.1835060  23.4916350
  29.8096040   6.4113090  24.4723140  24.1604550   5.2461480  30.7337230
  23.8273930   5.8730400  31.3758300  24.3371230   5.7723360  29.9538900
  23.3723650   7.2142280  32.5486410  23.9897650   7.8893360  32.2670860
  22.5116770   7.6230260  32.4573910  18.6655990   6.4042140  21.4293260
  18.2883970   6.8929240  20.6978160  18.9229060   7.0767420  22.0599790
  34.2901240   8.6781690  30.4641050  33.6064760   9.3480800  30.4557720
  34.8295530   8.8762340  29.6985910  31.8259980  10.5225820  29.1786230
  31.8387140  10.1188110  28.3108490  31.2735200  11.2973110  29.0747660
  33.1205400   7.2442040  24.2676400  33.0101730   6.3016370  24.3925820
  33.1173650   7.6057680  25.1539160  31.2245420   5.4255660  30.5068840
  31.6414210   5.2115770  29.6722300  31.9485240   5.6828450  31.0777460
  28.6625680   2.8707360  23.6238890  27.7354960   2.8044740  23.8527360
  28.8150500   3.8087490  23.5094130  35.1707520   3.8242880  30.5985080
  34.3426150   3.8935970  30.1235210  35.7658000   4.4097190  30.1300910
  32.6922970   4.4327660  24.1274140  32.0735390   4.0947210  23.4800440
  32.6747420   3.7887420  24.8353330  24.2682320   3.3972100  26.4058620
  23.8639320   2.6849350  25.9104520  24.3545440   3.0525340  27.2946660
  24.7364020   7.0839660  28.5697830  24.4392310   6.4785130  27.8905610
  25.6863840   7.1216970  28.4587190  32.8249630  10.6571530  32.2320930
  32.3480190  11.4643720  32.0393540  32.1411420  10.0049860  32.3847140
  23.8282450   6.8221350  35.2205630  22.9310980   7.0461320  35.4679030
  23.8535320   6.9456290  34.2717030  30.8687670   3.6714470  21.1346890
  31.3080950   2.8336900  20.9884710  31.5816090   4.3043870  21.2211030
  22.6553670   3.6934670  33.7963000  22.5161440   4.5657470  34.1650400
  21.7735030   3.3507480  33.6510940  28.9783050   8.6110540  25.1028130
  29.4178960   9.3534870  24.6883520  28.9169940   8.8537110  26.0267090
  24.4534020   9.6356370  36.0048150  24.4249450  10.0399320  35.1376580
  24.2898990   8.7066730  35.8419750  36.4048840  10.4183470  37.3012320
  36.8808560  10.8966360  37.9801400  37.0256000  10.3500960  36.5757820
  18.6072320   5.4632220  29.7133910  18.6852740   5.5980990  28.7689630
  19.2214000   4.7548110  29.9062030  19.8519950   7.1632410  26.1240090
  19.4448030   7.3047000  25.2693690  20.7432960   6.8792570  25.9211300
  35.8082090   7.6096320  34.4612330  35.9345150   7.3708200  33.5429510
  35.8503470   6.7780860  34.9334410  29.6698830  11.3124320  33.0307140
  30.1843500  11.2232330  33.8329570  28.8267910  11.6584020  33.3235050
  31.6453230  11.5979660  22.4591140  31.4854370  11.3082600  23.3572970
  31.4799940  10.8219790  21.9236370  24.1241610  11.3778190  24.2362760
  23.9484090  10.4613730  24.0230560  23.2697350  11.7365480  24.4760560
  31.3479360   9.1067220  21.0189140  30.6544520   9.1044510  20.3591420
  32.0902220   8.6826540  20.5883310  30.9129290  10.7329930  25.0937630
  31.3686240   9.9519310  25.4076250  31.2521810  11.4436750  25.6378810
  18.6631840   6.5046390  32.2528370  18.8262880   6.0351750  31.4347740
  19.1284290   5.9969950  32.9177210  20.2370820   5.8797820  34.4124180
  19.8525610   5.2391490  35.0107140  20.5483010   6.5833940  34.9818910
  26.3867960   2.7274360  29.8932800  26.7538090   2.2532930  30.6394140
  26.1973020   3.6015930  30.2341140  24.1767330   1.7683000  32.2117010
  23.8724400   2.6474980  32.4367370  25.1313790   1.8282790  32.2474450
  22.7049120   5.9743990  22.8083860  21.9311380   5.4341610  22.6482580
  23.4343750   5.4550600  22.4701620  33.4637100   4.9709350  28.6010250
  34.1836220   5.4664640  28.2106360  33.2618920   4.2927240  27.9564120
  28.8455900   5.0418410  34.4879250  28.7793210   4.1214080  34.2336840
  28.2161040   5.1393850  35.2023890  22.7486520   5.6424370  26.4462670
  23.2665190   4.8392630  26.3919560  22.2970540   5.5803510  27.2879500
  27.6356020   6.9090650  21.7189970  27.9771720   7.6532880  21.2233290
  26.8068730   7.2221770  22.0814800  20.2331060   2.6085740  33.3588370
  19.8746000   3.2739590  33.9461710  19.9385620   1.7769290  33.7300990
  23.4344180   3.0669980  36.2427920  23.1344320   3.2127160  35.3455740
  24.2055420   2.5075270  36.1501310  28.7772630   7.8638980  34.2383050
  28.7917170   6.9319940  34.0201960  28.0697730   7.9498740  34.8772820
  33.9109700   2.0478800  20.5081660  33.8273420   2.4793020  19.6578100
  34.6303890   2.5077150  20.9408480  34.9883840   4.5046320  33.5851630
  34.2632030   5.0975100  33.3881020  35.5159300   4.4969860  32.7865000
  34.9396950   8.9021060  23.2363790  34.2973110   8.2476680  23.5107510
  34.5527610   9.3076150  22.4604460  30.5183430   6.2306490  27.0835480
  30.8707250   5.6334620  26.4236850  29.6345760   5.9050720  27.2543730
  26.6046710   6.9904180  24.4905890  27.2917840   7.5373390  24.8713480
  25.8179130   7.5344910  24.5255500  18.7439110   2.6077000  19.9822970
  19.6133960   2.8901800  20.2658890  18.2529430   3.4212870  19.8671780
  25.9073920   3.9950210  24.1031250  26.3636700   4.8055460  24.3291440
  25.5562130   3.6773350  24.9349740  28.2106530   9.5056550  31.3323550
  28.8548750   9.7115930  32.0096970  28.5735970   8.7444950  30.8794400
  29.4838610   7.5088900  30.0501000  30.1260840   6.8082060  30.1633170
  30.0087960   8.2887340  29.8697890  33.3294330   7.7937520  19.7740140
  33.1031910   7.0767960  20.3664780  32.9390530   7.5449960  18.9361890
  31.2576230   8.3083800  33.2537060  31.5932470   8.8950490  33.9314980
  30.3376570   8.1776510  33.4834850  19.1110360  11.8204380  20.5484600
  19.4708000  12.4193720  19.8941870  18.9702700  12.3664270  21.3219630
  32.9110580   5.7109460  21.4354300  32.6232280   6.1722150  22.2232180
  33.7062750   5.2507230  21.7038520  19.0952220  10.0859240  35.0227000
  19.2043340   9.1453980  34.8822390  18.4432780  10.3513990  34.3740730
  27.0864810   8.3575130  36.4225120  26.7661680   7.6384370  36.9670810
  26.4123170   9.0330200  36.4961180  25.1278980   9.2035580  21.3658270
  25.1189080   9.9365270  20.7502780  24.2077340   8.9567160  21.4585230
  20.7285620   4.4250470  22.1105030  20.1213570   5.1649370  22.1200330
  21.2034970   4.5149830  21.2843230  28.1138580   9.2663820  20.0283460
  28.2150560   9.0627810  19.0985440  27.2140320   9.0122100  20.2331240
  26.7556690  11.7850140  24.7231130  27.0098190  11.7471530  23.8010500
  25.8069170  11.6583470  24.7159380  32.7609270   2.7042020  26.2989640
  31.8199410   2.7192250  26.4737330  33.0753340   1.9177980  26.7449940
  22.7390910   4.3861620  19.8593600  23.5054180   4.2742980  20.4219030
  22.8165600   3.6899590  19.2070370  34.7634850   9.8750870  27.9743900
  34.8882270  10.6982040  28.4467710  35.6300410   9.6641600  27.6268050
  22.2352380  11.9682080  27.6461030  22.9714860  11.4197540  27.9169600
  22.6193300  12.8338090  27.5067020  19.1197860   8.0355650  23.5202540
  18.1937640   8.2776790  23.5107950  19.5854290   8.8629910  23.3987290
  21.2410660  11.1528150  36.8346610  22.0423390  11.4740200  37.2482010
  20.7262480  10.7923730  37.5566520  25.3454690  11.1412390  19.4686600
  26.1383300  11.4301220  19.0168390  24.8259040  10.7104560  18.7899080
  30.0775290   7.2608020  36.7822020  29.4713450   7.2839620  36.0417770
  29.7729400   6.5291060  37.3189270  31.5075660  10.9888310  35.3931430
  32.4597410  10.9046330  35.3431670  31.3603880  11.6530020  36.0665220
  34.3984860  10.3682520  20.8923340  34.1126370   9.9547660  20.0777520
  34.2004410  11.2970230  20.7723860  18.9608470   3.6401610  35.7782660
  19.4647490   3.0608890  36.3498890  18.2215890   3.9241840  36.3159030
  25.8632090   6.3615800  19.3328950  25.7582730   5.7468150  20.0590330
  25.6956310   5.8381690  18.5491960  26.0146410   5.0472600  35.3118180
  25.2492080   5.6157600  35.2272850  26.1962370   4.7548810  34.4186410
  29.1034820   5.4235830  19.9370940  28.5544920   5.8705130  20.5813680
  29.7254080   4.9185080  20.4608610  33.1569760   6.7777930  35.8693200
  33.8979230   7.1153690  35.3660660  32.3942440   6.9469990  35.3162970
  24.7709940   4.3826750  21.8336240  25.1926360   4.2166620  22.6767630
  24.8960780   3.5726980  21.3391380  27.2837580   3.4064360  19.0813340
  27.8043240   2.6913380  18.7154490  27.9305980   4.0450230  19.3813850
  31.8315420   4.8292760  34.4048410  32.2456440   4.9837840  35.2538830
  30.8966420   4.9547980  34.5674190  26.5930650   4.7813240  32.3744340
  27.0118760   5.6245970  32.2020580  25.6739280   4.9185280  32.1451120
  28.9294550   2.5129420  33.7582180  29.0490760   1.9170560  34.4977020
  29.7888550   2.5499110  33.3383480  31.2682450   3.0666610  32.3344690
  30.7417670   3.5909230  31.7309830  31.6113790   3.6994000  32.9654420
  24.4438070  11.0866250  33.4902070  23.9059160  11.8112310  33.1710770
  24.6972030  10.6096590  32.6999410  27.3000280  12.3217460  33.7488720
  27.2258980  13.2252600  34.0561090  26.3979120  12.0029360  33.7210790
  27.8485610  11.4875970  21.3715080  28.7436400  11.8260940  21.3933840
  27.8803240  10.7655380  20.7439360  21.4881770   6.8603020  19.6002080
  21.9256640   7.4032690  20.2559660  21.9729500   6.0349970  19.6098420
  18.7027570   9.6492050  27.0522340  19.0330580   8.7813110  26.8200980
  19.1318570   9.8550570  27.8827300  23.2989490   7.9801060  24.7124310
  22.9985030   7.8566030  25.6128220  23.1926980   7.1209650  24.3040040
  19.1917780  10.5162640  29.7903970  18.7548770  10.6963440  30.6228120
  19.7595460  11.2737260  29.6485690  34.8279960  10.0179640  34.0781280
  34.2281950  10.0772200  33.3345200  34.9573860   9.0784620  34.2078130
  36.0681410   7.7597460  19.4150990  35.2374370   7.8274110  19.8858220
  36.2453240   8.6501580  19.1117850  35.5237870   4.5044940  21.9185190
  36.2856780   5.0741590  22.0244880  35.5392240   3.9372140  22.6893500
  19.0242210   3.0282870  26.1492850  18.3691050   2.7594510  25.5052550
  19.8620160   2.9187350  25.6994830  36.5297840   5.3595040  26.7627120
  36.9006670   4.5762360  26.3563090  37.1699770   6.0484140  26.5844420
  33.5131600   6.7431620  32.1757440  32.6991440   7.1728780  32.4383230
  33.9205800   7.3550030  31.5626490  35.5757040   4.7979310  19.0757710
  35.8505880   5.7058190  18.9476930  35.3867780   4.7341840  20.0119700
  35.4722380   2.7348300  24.0687140  35.0965980   1.9676230  23.6368430
  34.7425500   3.1171000  24.5562070  20.0618140   3.4135440  30.6896190
  20.4291180   3.3262840  31.5692210  19.4928960   2.6501990  30.5903050
  33.5707650  11.4950220  25.7025710  34.1666720  11.1734790  25.0260130
  33.8285800  11.0222040  26.4938980  21.4770220   7.9268130  35.8516340
  21.4339850   7.5561040  36.7330800  21.6081230   8.8645700  35.9918160
  25.1776250   9.4827720  31.4526060  24.9367610   9.7502280  30.5656580
  26.1178890   9.6533450  31.5076920  36.4380410  11.5022100  32.2536700
  35.9438690  11.8990970  31.5363830  35.8293700  10.8771310  32.6473980
  21.3158250  10.8730380  32.9714120  20.7218570  10.7415080  33.7104160
  21.3082090  10.0368520  32.5056220  34.1219860  12.1445520  29.5323440
  33.6622830  12.8961330  29.1581460  33.4932320  11.4251990  29.4738240
  20.9470480   8.2388760  31.9222160  20.2204540   7.6194050  31.8548110
  21.0079630   8.6329370  31.0520240  24.5515580  10.4533760  28.7071570
  25.0680600   9.8421120  28.1819830  25.2012960  10.9562540  29.1982580
  27.2911080  11.3442250  29.5340550  27.5788890  11.0896550  28.6573560
  27.8034300  10.7919610  30.1246120  19.2300480  11.5563150  25.1318920
  19.0622520  10.9233830  25.8300810  18.3634990  11.7622550  24.7813110
  20.8363180  10.2496380  22.5769060  20.3110800  10.6304410  21.8731020
  20.7607760  10.8747150  23.2978770  27.3583440  12.2658350  36.9008750
  28.2850750  12.0302620  36.9444710  27.3433870  13.0930350  36.4194780
  35.5928500  11.8083920  23.8983000  35.7680690  11.1221660  23.2543920
  34.8950070  12.3330970  23.5059670  23.4356150  12.1978760  21.4518310
  24.1674970  11.9138040  20.9042200  23.6949820  11.9592040  22.3417690
  22.5970940   8.3143490  21.4564640  21.9679820   8.7828590  22.0050470
  22.7118770   7.4692710  21.8910830  33.9261000  11.4928210  36.7249790
  34.7186320  10.9977440  36.5175750  34.2194150  12.1718350  37.3325400
  28.1838700   4.1428170   9.4875110  27.4080800   3.6628610   9.7773680
  28.8351630   3.4633820   9.3131270  22.2004530   4.4547980  10.3650870
  21.3689410   4.1996690  10.7647380  22.8085510   4.5258750  11.1008790
  32.2046130   8.5488360   8.2674240  31.7427660   7.7775600   8.5961410
  33.0171680   8.5754430   8.7726690  22.1805790   8.4888070  10.5608890
  22.4833830   7.5985810  10.3819110  22.9249380   9.0458290  10.3331140
  28.4309440  10.8346370   7.8878230  27.8120880  11.2903870   7.3172670
  29.2861220  10.9897830   7.4867930  27.6247690   6.8185360   9.4945270
  27.5555970   5.8775300   9.3334400  28.3867550   6.9086770  10.0667840
  29.2972790   5.7185610   5.2810140  28.6790060   6.1835060   4.7172860
  29.8096040   6.4113090   5.6979650  24.1604550   5.2461480  11.9593740
  23.8273930   5.8730400  12.6014810  24.3371230   5.7723360  11.1795410
  23.3723650   7.2142280  13.7742920  23.9897650   7.8893360  13.4927370
  22.5116770   7.6230260  13.6830420  18.6655990   6.4042140   2.6549770
  18.2883970   6.8929240   1.9234670  18.9229060   7.0767420   3.2856300
  34.2901240   8.6781690  11.6897560  33.6064760   9.3480800  11.6814230
  34.8295530   8.8762340  10.9242420  31.8259980  10.5225820  10.4042740
  31.8387140  10.1188110   9.5365000  31.2735200  11.2973110  10.3004170
  33.1205400   7.2442040   5.4932910  33.0101730   6.3016370   5.6182330
  33.1173650   7.6057680   6.3795670  31.2245420   5.4255660  11.7325350
  31.6414210   5.2115770  10.8978810  31.9485240   5.6828450  12.3033970
  28.6625680   2.8707360   4.8495400  27.7354960   2.8044740   5.0783870
  28.8150500   3.8087490   4.7350640  35.1707520   3.8242880  11.8241590
  34.3426150   3.8935970  11.3491720  35.7658000   4.4097190  11.3557420
  32.6922970   4.4327660   5.3530650  32.0735390   4.0947210   4.7056950
  32.6747420   3.7887420   6.0609840  24.2682320   3.3972100   7.6315130
  23.8639320   2.6849350   7.1361030  24.3545440   3.0525340   8.5203170
  24.7364020   7.0839660   9.7954340  24.4392310   6.4785130   9.1162120
  25.6863840   7.1216970   9.6843700  32.8249630  10.6571530  13.4577440
  32.3480190  11.4643720  13.2650050  32.1411420  10.0049860  13.6103650
  23.8282450   6.8221350  16.4462140  22.9310980   7.0461320  16.6935540
  23.8535320   6.9456290  15.4973540  30.8687670   3.6714470   2.3603400
  31.3080950   2.8336900   2.2141220  31.5816090   4.3043870   2.4467540
  22.6553670   3.6934670  15.0219510  22.5161440   4.5657470  15.3906910
  21.7735030   3.3507480  14.8767450  28.9783050   8.6110540   6.3284640
  29.4178960   9.3534870   5.9140030  28.9169940   8.8537110   7.2523600
  24.4534020   9.6356370  17.2304660  24.4249450  10.0399320  16.3633090
  24.2898990   8.7066730  17.0676260  36.4048840  10.4183470  18.5268830
  36.8808560  10.8966360  19.2057910  37.0256000  10.3500960  17.8014330
  18.6072320   5.4632220  10.9390420  18.6852740   5.5980990   9.9946140
  19.2214000   4.7548110  11.1318540  19.8519950   7.1632410   7.3496600
  19.4448030   7.3047000   6.4950200  20.7432960   6.8792570   7.1467810
  35.8082090   7.6096320  15.6868840  35.9345150   7.3708200  14.7686020
  35.8503470   6.7780860  16.1590920  29.6698830  11.3124320  14.2563650
  30.1843500  11.2232330  15.0586080  28.8267910  11.6584020  14.5491560
  31.6453230  11.5979660   3.6847650  31.4854370  11.3082600   4.5829480
  31.4799940  10.8219790   3.1492880  24.1241610  11.3778190   5.4619270
  23.9484090  10.4613730   5.2487070  23.2697350  11.7365480   5.7017070
  30.9129290  10.7329930   6.3194140  31.3686240   9.9519310   6.6332760
  31.2521810  11.4436750   6.8635320  18.6631840   6.5046390  13.4784880
  18.8262880   6.0351750  12.6604250  19.1284290   5.9969950  14.1433720
  20.2370820   5.8797820  15.6380690  19.8525610   5.2391490  16.2363650
  20.5483010   6.5833940  16.2075420  26.3867960   2.7274360  11.1189310
  26.7538090   2.2532930  11.8650650  26.1973020   3.6015930  11.4597650
  24.1767330   1.7683000  13.4373520  23.8724400   2.6474980  13.6623880
  25.1313790   1.8282790  13.4730960  22.7049120   5.9743990   4.0340370
  21.9311380   5.4341610   3.8739090  23.4343750   5.4550600   3.6958130
  33.4637100   4.9709350   9.8266760  34.1836220   5.4664640   9.4362870
  33.2618920   4.2927240   9.1820630  28.8455900   5.0418410  15.7135760
  28.7793210   4.1214080  15.4593350  28.2161040   5.1393850  16.4280400
  22.7486520   5.6424370   7.6719180  23.2665190   4.8392630   7.6176070
  22.2970540   5.5803510   8.5136010  27.6356020   6.9090650   2.9446480
  27.9771720   7.6532880   2.4489800  26.8068730   7.2221770   3.3071310
  20.2331060   2.6085740  14.5844880  19.8746000   3.2739590  15.1718220
  19.9385620   1.7769290  14.9557500  23.4344180   3.0669980  17.4684430
  23.1344320   3.2127160  16.5712250  24.2055420   2.5075270  17.3757820
  28.7772630   7.8638980  15.4639560  28.7917170   6.9319940  15.2458470
  28.0697730   7.9498740  16.1029330  34.9883840   4.5046320  14.8108140
  34.2632030   5.0975100  14.6137530  35.5159300   4.4969860  14.0121510
  34.9396950   8.9021060   4.4620300  34.2973110   8.2476680   4.7364020
  34.5527610   9.3076150   3.6860970  30.5183430   6.2306490   8.3091990
  30.8707250   5.6334620   7.6493360  29.6345760   5.9050720   8.4800240
  26.6046710   6.9904180   5.7162400  27.2917840   7.5373390   6.0969990
  25.8179130   7.5344910   5.7512010  25.9073920   3.9950210   5.3287760
  26.3636700   4.8055460   5.5547950  25.5562130   3.6773350   6.1606250
  28.2106530   9.5056550  12.5580060  28.8548750   9.7115930  13.2353480
  28.5735970   8.7444950  12.1050910  29.4838610   7.5088900  11.2757510
  30.1260840   6.8082060  11.3889680  30.0087960   8.2887340  11.0954400
  31.2576230   8.3083800  14.4793570  31.5932470   8.8950490  15.1571490
  30.3376570   8.1776510  14.7091360  32.9110580   5.7109460   2.6610810
  32.6232280   6.1722150   3.4488690  33.7062750   5.2507230   2.9295030
  19.0952220  10.0859240  16.2483510  19.2043340   9.1453980  16.1078900
  18.4432780  10.3513990  15.5997240  27.0864810   8.3575130  17.6481630
  26.7661680   7.6384370  18.1927320  26.4123170   9.0330200  17.7217690
  25.1278980   9.2035580   2.5914780  25.1189080   9.9365270   1.9759290
  24.2077340   8.9567160   2.6841740  20.7285620   4.4250470   3.3361540
  20.1213570   5.1649370   3.3456840  21.2034970   4.5149830   2.5099740
  26.7556690  11.7850140   5.9487640  27.0098190  11.7471530   5.0267010
  25.8069170  11.6583470   5.9415890  32.7609270   2.7042020   7.5246150
  31.8199410   2.7192250   7.6993840  33.0753340   1.9177980   7.9706450
  34.7634850   9.8750870   9.2000410  34.8882270  10.6982040   9.6724220
  35.6300410   9.6641600   8.8524560  22.2352380  11.9682080   8.8717540
  22.9714860  11.4197540   9.1426110  22.6193300  12.8338090   8.7323530
  19.1197860   8.0355650   4.7459050  18.1937640   8.2776790   4.7364460
  19.5854290   8.8629910   4.6243800  21.2410660  11.1528150  18.0603120
  22.0423390  11.4740200  18.4738520  20.7262480  10.7923730  18.7823030
  30.0775290   7.2608020  18.0078530  29.4713450   7.2839620  17.2674280
  29.7729400   6.5291060  18.5445780  31.5075660  10.9888310  16.6187940
  32.4597410  10.9046330  16.5688180  31.3603880  11.6530020  17.2921730
  18.9608470   3.6401610  17.0039170  19.4647490   3.0608890  17.5755400
  18.2215890   3.9241840  17.5415540  26.0146410   5.0472600  16.5374690
  25.2492080   5.6157600  16.4529360  26.1962370   4.7548810  15.6442920
  33.1569760   6.7777930  17.0949710  33.8979230   7.1153690  16.5917170
  32.3942440   6.9469990  16.5419480  24.7709940   4.3826750   3.0592750
  25.1926360   4.2166620   3.9024140  24.8960780   3.5726980   2.5647890
  31.8315420   4.8292760  15.6304920  32.2456440   4.9837840  16.4795340
  30.8966420   4.9547980  15.7930700  26.5930650   4.7813240  13.6000850
  27.0118760   5.6245970  13.4277090  25.6739280   4.9185280  13.3707630
  28.9294550   2.5129420  14.9838690  29.0490760   1.9170560  15.7233530
  29.7888550   2.5499110  14.5639990  31.2682450   3.0666610  13.5601200
  30.7417670   3.5909230  12.9566340  31.6113790   3.6994000  14.1910930
  24.4438070  11.0866250  14.7158580  23.9059160  11.8112310  14.3967280
  24.6972030  10.6096590  13.9255920  27.3000280  12.3217460  14.9745230
  27.2258980  13.2252600  15.2817600  26.3979120  12.0029360  14.9467300
  27.8485610  11.4875970   2.5971590  28.7436400  11.8260940   2.6190350
  27.8803240  10.7655380   1.9695870  18.7027570   9.6492050   8.2778850
  19.0330580   8.7813110   8.0457490  19.1318570   9.8550570   9.1083810
  23.2989490   7.9801060   5.9380820  22.9985030   7.8566030   6.8384730
  23.1926980   7.1209650   5.5296550  19.1917780  10.5162640  11.0160480
  18.7548770  10.6963440  11.8484630  19.7595460  11.2737260  10.8742200
  34.8279960  10.0179640  15.3037790  34.2281950  10.0772200  14.5601710
  34.9573860   9.0784620  15.4334640  35.5237870   4.5044940   3.1441700
  36.2856780   5.0741590   3.2501390  35.5392240   3.9372140   3.9150010
  19.0242210   3.0282870   7.3749360  18.3691050   2.7594510   6.7309060
  19.8620160   2.9187350   6.9251340  36.5297840   5.3595040   7.9883630
  36.9006670   4.5762360   7.5819600  37.1699770   6.0484140   7.8100930
  33.5131600   6.7431620  13.4013950  32.6991440   7.1728780  13.6639740
  33.9205800   7.3550030  12.7883000  35.4722380   2.7348300   5.2943650
  35.0965980   1.9676230   4.8624940  34.7425500   3.1171000   5.7818580
  20.0618140   3.4135440  11.9152700  20.4291180   3.3262840  12.7948720
  19.4928960   2.6501990  11.8159560  33.5707650  11.4950220   6.9282220
  34.1666720  11.1734790   6.2516640  33.8285800  11.0222040   7.7195490
  21.4770220   7.9268130  17.0772850  21.4339850   7.5561040  17.9587310
  21.6081230   8.8645700  17.2174670  25.1776250   9.4827720  12.6782570
  24.9367610   9.7502280  11.7913090  26.1178890   9.6533450  12.7333430
  36.4380410  11.5022100  13.4793210  35.9438690  11.8990970  12.7620340
  35.8293700  10.8771310  13.8730490  21.3158250  10.8730380  14.1970630
  20.7218570  10.7415080  14.9360670  21.3082090  10.0368520  13.7312730
  34.1219860  12.1445520  10.7579950  33.6622830  12.8961330  10.3837970
  33.4932320  11.4251990  10.6994750  20.9470480   8.2388760  13.1478670
  20.2204540   7.6194050  13.0804620  21.0079630   8.6329370  12.2776750
  24.5515580  10.4533760   9.9328080  25.0680600   9.8421120   9.4076340
  25.2012960  10.9562540  10.4239090  27.2911080  11.3442250  10.7597060
  27.5788890  11.0896550   9.8830070  27.8034300  10.7919610  11.3502630
  19.2300480  11.5563150   6.3575430  19.0622520  10.9233830   7.0557320
  18.3634990  11.7622550   6.0069620  20.8363180  10.2496380   3.8025570
  20.3110800  10.6304410   3.0987530  20.7607760  10.8747150   4.5235280
  27.3583440  12.2658350  18.1265260  28.2850750  12.0302620  18.1701220
  27.3433870  13.0930350  17.6451290  35.5928500  11.8083920   5.1239510
  35.7680690  11.1221660   4.4800430  34.8950070  12.3330970   4.7316180
  23.4356150  12.1978760   2.6774820  24.1674970  11.9138040   2.1298710
  23.6949820  11.9592040   3.5674200  22.5970940   8.3143490   2.6821150
  21.9679820   8.7828590   3.2306980  22.7118770   7.4692710   3.1167340
  33.9261000  11.4928210  17.9506300  34.7186320  10.9977440  17.7432260
  34.2194150  12.1718350  18.5581910  11.2777170  96.2366600  45.1552820
  11.1971220  95.3221210  44.8844530  10.8641590  96.7333670  44.4492530
   9.4095210  98.0145620  47.0362090   8.6337310  97.5346060  47.3260660
  10.0608140  97.3351270  46.8618250   3.4261040  98.3265430  47.9137850
   2.5945920  98.0714140  48.3134360   4.0342020  98.3976200  48.6495770
   9.8809370  93.4973190  47.2701180  10.2574190  92.6245070  47.1574850
   9.7828880  93.8331890  46.3791620   4.0114380  91.8698820  42.7318620
   4.1181130  92.7702550  43.0387380   3.1006740  91.8216790  42.4413270
  13.6633490  90.9923630  44.2029520  14.4843110  90.5020200  44.2455000
  13.6967570  91.5821290  44.9561360   5.8522110  94.8385190  47.0643800
   6.3600330  95.3366160  47.7048820   6.3835350  94.0620390  46.8883160
  17.9533040  93.0090380  50.7673150  17.2485210  93.3972090  50.2488260
  18.2190960  93.7040670  51.3694080   4.1358210  89.4783750  51.3307220
   4.1376650  89.9956140  50.5253120   3.3062520  89.0013930  51.3077150
  13.8994970  92.9324010  46.9757060  13.1950540  93.2208900  47.5560170
  14.2607130  93.7424120  46.6156620   3.8173540  91.1893710  49.3377670
   4.1590350  92.0335760  49.0431540   2.8789350  91.3377450  49.4543010
  16.9681890  92.3778800  47.3666270  16.0206800  92.4117780  47.4981700
  17.2931880  93.1917750  47.7515630   7.5001430  88.6775980  45.6622260
   7.8076410  88.1222870  44.9457760   6.5702130  88.8120440  45.4795250
   9.8882190  96.7424810  42.3982380   8.9611470  96.6762190  42.6270850
  10.0407010  97.6804940  42.2837620   9.8751270  93.0141810  39.3949540
   8.9354940  93.1755770  39.4802000  10.1934530  93.7327490  38.8485530
  16.3964030  97.6960330  49.3728570  15.5682660  97.7653420  48.8978700
  16.9914510  98.2814640  48.9044400  13.9179480  98.3045110  42.9017630
  13.2991900  97.9664660  42.2543930  13.9003930  97.6604870  43.6096820
  13.3606040  94.4829650  50.3183440  12.9477220  95.3083360  50.5723430
  12.6281990  93.8974690  50.1259800   5.4938830  97.2689550  45.1802110
   5.0895830  96.5566800  44.6848010   5.5801950  96.9242790  46.0690150
   4.2067450  94.0432760  48.9601150   4.7582040  94.1528100  48.1854400
   4.7210960  94.4170360  49.6756380  12.0944180  97.5431920  39.9090380
  12.5337460  96.7054350  39.7628200  12.8072600  98.1761320  39.9954520
   3.8810180  97.5652120  52.5706490   3.7417950  98.4374920  52.9393890
   2.9991540  97.2224930  52.4254430  15.6761320  88.7974730  38.2231420
  15.3633980  88.8901560  39.1230490  16.4373790  89.3755760  38.1728850
   2.1943460  96.1634530  42.6808760   2.0741060  96.8896620  42.0690030
   1.8844350  95.3937440  42.2036670  16.8862610  93.5346230  54.2005560
  16.2706880  94.0425900  53.6721020  16.5659030  92.6344560  54.1431500
   4.6607120  89.5069600  46.0632430   4.2175270  90.2879140  45.7316950
   5.2192110  89.8299490  46.7703370   8.9476930  92.3738120  51.6667750
   8.4856300  92.5821140  52.4787690   8.5455040  91.5597470  51.3638420
  13.9481440  93.5947070  52.7964410  13.0975030  93.2952820  53.1173480
  13.7883230  93.8389080  51.8848230   7.7765940  89.1280300  40.9438260
   7.1520120  89.1240170  41.6691570   7.6896060  88.2611260  40.5474230
   6.6983020  90.0516930  47.9222030   6.9955350  90.9579760  47.8414050
   7.2468580  89.5635710  47.3081600   4.4521340  94.6303170  43.7913680
   4.2262260  94.4140340  44.6960300   3.6713870  95.0631630  43.4459650
  11.6819100  94.6366540  42.3904330  11.0827990  95.3602340  42.2067950
  12.2298710  94.5743320  41.6080780  10.2883970  93.2730080  44.4207610
  10.6813540  93.5902280  43.6076300  10.6500820  92.3941960  44.5352130
  10.8739110  95.8635830  48.5158390  10.1420230  96.3722640  48.8648490
  10.4763450  95.0465810  48.2147170   7.3116500  92.5390030  46.9210880
   7.3152560  92.0979980  46.0715420   8.2067620  92.8607360  47.0282700
   3.1618880  92.4216520  45.8805090   2.8218930  92.8991750  46.6372140
   2.3996200  91.9681640  45.5206190   7.3736650  93.5402110  39.9117640
   7.4949470  93.4988590  40.8603460   6.9885160  94.4026260  39.7564370
  11.3365020  91.3169510  47.9281330  11.3537760  91.7678160  48.7723180
  11.0880600  90.4175150  48.1414770   6.3858150  95.8503250  39.3100940
   5.8175050  95.4021500  38.6836850   7.0947150  96.2096030  38.7766090
   7.6124470  96.5991810  48.6676290   7.9794600  96.1250380  49.4137630
   7.4229530  97.4733380  49.0084630   5.4023840  95.6400450  50.9860500
   5.0980910  96.5192430  51.2110860   6.3570300  95.7000240  51.0217940
  10.1503550  90.2364760  41.5183130   9.3368160  89.7377930  41.4428440
   9.9565500  91.0763010  41.1019480  12.8651940  94.6084410  39.8145290
  13.7531560  94.9201640  39.6396630  12.8357030  93.7356660  39.4225870
  15.1366210  95.9196250  39.2825150  15.0529930  96.3510470  38.4321590
  15.8560400  96.3794600  39.7151970   3.0342210  88.2105310  43.3497260
   2.9056840  88.2023210  44.2982180   2.2104230  88.5488400  42.9988270
  11.5274920  92.4618740  50.5605410  11.8955740  91.6413950  50.8884980
  10.6673120  92.5220630  50.9761060  14.8936950  91.4175680  41.3692970
  14.2650110  91.5221350  40.6551200  14.3988870  91.6372460  42.1586850
   6.8620980  93.6961630  42.7850850   6.1537130  94.1647970  43.2264460
   7.1465460  93.0383640  43.4196040   8.4876910  95.1158330  50.7843380
   8.9862160  95.5904150  51.4495230   8.6299860  94.1921850  50.9913410
  10.8936410  90.4212290  44.2246640  10.7704190  90.4398420  43.2756150
  11.8420970  90.4691230  44.3445040   5.0656000  92.0046710  40.1601560
   5.9146530  92.4416860  40.0941750   4.6987270  92.3166970  40.9873620
  15.6943770  91.3326290  51.6271770  15.1917370  92.0731690  51.9665580
  16.5100430  91.7210290  51.3108560  13.9865780  96.5759470  45.0733130
  13.0455920  96.5909700  45.2480820  14.3009850  95.7895430  45.5193430
   3.9647420  98.2579070  38.6337090   4.7310690  98.1460430  39.1962520
   4.0422110  97.5617040  37.9813860   2.6594180  95.6904140  39.3169980
   2.7397770  94.7431650  39.4287380   3.5513930  96.0211020  39.4230640
   5.9966450  98.2544200  40.6079730   6.4182870  98.0884070  41.4511120
   6.1217290  97.4444430  40.1134870   4.1593870  94.2340750  53.4150710
   3.6290330  93.7431700  52.7874050   4.8281940  94.6624950  52.8808640
   8.5094090  97.2781810  37.8556830   9.0299750  96.5630830  37.4897980
   9.1562490  97.9167680  38.1557340   4.6466170  91.2003120  53.4948000
   4.5523040  90.5823870  52.7698870   4.0663560  91.9269410  53.2677910
   7.4127610  89.7576360  50.5275390   6.9644910  89.7800620  49.6820940
   6.7792810  89.3595380  51.1245690  10.1551060  96.3846870  52.5325670
  10.2747270  95.7888010  53.2720510  11.0145060  96.4216560  52.1126970
  12.4938960  96.9384060  51.1088180  11.9674180  97.4626680  50.5053320
  12.8370300  97.5711450  51.7397910   4.8925350  94.3277430  37.5537890
   4.6914410  93.4644790  37.9151230   4.7217400  94.2410790  36.6159490
  12.3713660  89.1385660  40.0824770  12.6515950  88.2953560  40.4384190
  11.5979390  89.3708770  40.5963520   3.6908150  91.4278050  37.5415770
   3.9934050  91.4345480  36.6334920   4.4302740  91.0775910  38.0383430
   6.9093080  90.3712670  38.5271970   6.5615080  89.6936660  37.9474420
   7.1105850  89.9102180  39.3415360  13.1989160  91.6941610  39.1454830
  13.6174040  91.5072590  38.3051490  12.8925220  90.8420660  39.4557760
  16.6978890  96.6065750  42.8430630  16.3222490  95.8393680  42.4111920
  15.9682010  96.9888450  43.3305560  16.0878510  95.7537270  52.4770150
  15.8564600  95.5250020  51.5768100  16.3483060  96.6736820  52.4315040
  15.9729850  94.8323240  46.1437870  16.4967330  94.3385890  45.5128040
  16.5589270  94.9673600  46.8885440  16.1519570  94.9163110  49.6657420
  15.2022280  94.8826650  49.7802410  16.3332580  95.8263220  49.4307190
  15.4629820  94.0896590  42.0830280  15.9588940  93.8567460  42.8679160
  15.2645890  93.2508430  41.6667920  16.8916980  92.7257540  44.6167960
  16.7816260  92.5713580  45.5550230  17.6524570  92.1978480  44.3743370
  15.2382700  88.6651670  51.0750960  15.8754920  89.2785810  51.4410150
  15.3857590  88.7012330  50.1300190  17.7807250  90.5565460  37.8574100
  18.7056560  90.4246640  37.6492390  17.7583040  90.6358280  38.8110550
  17.8545740  91.3276120  40.4830810  17.0597240  91.2621240  41.0123720
  18.0589020  92.2626760  40.4716160  11.9869780  88.0380060  49.9487640
  11.1129620  88.3715170  49.7460570  11.8780530  87.5653240  50.7739510
  12.8941760  90.2450930  51.3329360  12.5655120  89.4302690  50.9531090
  13.8424060  90.2020740  51.2095050   9.7344600  88.9549900  48.8880550
   8.9516390  89.4295400  49.1677310   9.4407530  88.0504730  48.7793730
  14.2865670  89.6573000  46.9329640  14.7273760  89.6018100  46.0851240
  14.0173260  90.5731010  47.0039820  16.1504240  89.2888240  44.9438460
  16.0892640  88.3449460  44.7969480  16.9296270  89.3968330  45.4891920
   7.6198820  91.3736650  44.3996580   6.8073330  90.9993540  44.0592460
   8.1240460  90.6181730  44.7017770  12.1223800  88.0379100  45.6379650
  12.7253170  88.6099310  46.1128170  11.3816790  88.6018540  45.4153550
  15.2658400  88.4400660  40.9119930  15.4609030  89.3384110  41.1787360
  14.4788270  88.2087740  41.4052880   3.4510160  89.7861430  39.9496240
   3.9802920  88.9991230  39.8204190   4.0838480  90.4652620  40.1831770
   5.6448000  89.5236570  43.0041630   5.0150740  88.8223880  43.1711760
   5.1053140  90.2840700  42.7874790  11.2777170  96.2366600  26.3809330
  11.1971220  95.3221210  26.1101040  10.8641590  96.7333670  25.6749040
   9.4095210  98.0145620  28.2618600   8.6337310  97.5346060  28.5517170
  10.0608140  97.3351270  28.0874760   3.4261040  98.3265430  29.1394360
   2.5945920  98.0714140  29.5390870   4.0342020  98.3976200  29.8752280
   9.8809370  93.4973190  28.4957690  10.2574190  92.6245070  28.3831360
   9.7828880  93.8331890  27.6048130   4.0114380  91.8698820  23.9575130
   4.1181130  92.7702550  24.2643890   3.1006740  91.8216790  23.6669780
  13.6633490  90.9923630  25.4286030  14.4843110  90.5020200  25.4711510
  13.6967570  91.5821290  26.1817870   5.8522110  94.8385190  28.2900310
   6.3600330  95.3366160  28.9305330   6.3835350  94.0620390  28.1139670
  17.9533040  93.0090380  31.9929660  17.2485210  93.3972090  31.4744770
  18.2190960  93.7040670  32.5950590   4.1358210  89.4783750  32.5563730
   4.1376650  89.9956140  31.7509630   3.3062520  89.0013930  32.5333660
  13.8994970  92.9324010  28.2013570  13.1950540  93.2208900  28.7816680
  14.2607130  93.7424120  27.8413130   3.8173540  91.1893710  30.5634180
   4.1590350  92.0335760  30.2688050   2.8789350  91.3377450  30.6799520
  16.9681890  92.3778800  28.5922780  16.0206800  92.4117780  28.7238210
  17.2931880  93.1917750  28.9772140   7.5001430  88.6775980  26.8878770
   7.8076410  88.1222870  26.1714270   6.5702130  88.8120440  26.7051760
   9.8882190  96.7424810  23.6238890   8.9611470  96.6762190  23.8527360
  10.0407010  97.6804940  23.5094130   9.8751270  93.0141810  20.6206050
   8.9354940  93.1755770  20.7058510  10.1934530  93.7327490  20.0742040
  16.3964030  97.6960330  30.5985080  15.5682660  97.7653420  30.1235210
  16.9914510  98.2814640  30.1300910  13.9179480  98.3045110  24.1274140
  13.2991900  97.9664660  23.4800440  13.9003930  97.6604870  24.8353330
  13.3606040  94.4829650  31.5439950  12.9477220  95.3083360  31.7979940
  12.6281990  93.8974690  31.3516310   5.4938830  97.2689550  26.4058620
   5.0895830  96.5566800  25.9104520   5.5801950  96.9242790  27.2946660
   4.2067450  94.0432760  30.1857660   4.7582040  94.1528100  29.4110910
   4.7210960  94.4170360  30.9012890  12.0944180  97.5431920  21.1346890
  12.5337460  96.7054350  20.9884710  12.8072600  98.1761320  21.2211030
   3.8810180  97.5652120  33.7963000   3.7417950  98.4374920  34.1650400
   2.9991540  97.2224930  33.6510940  15.6761320  88.7974730  19.4487930
  15.3633980  88.8901560  20.3487000  16.4373790  89.3755760  19.3985360
   2.1943460  96.1634530  23.9065270   2.0741060  96.8896620  23.2946540
   1.8844350  95.3937440  23.4293180  16.8862610  93.5346230  35.4262070
  16.2706880  94.0425900  34.8977530  16.5659030  92.6344560  35.3688010
   4.6607120  89.5069600  27.2888940   4.2175270  90.2879140  26.9573460
   5.2192110  89.8299490  27.9959880   8.9476930  92.3738120  32.8924260
   8.4856300  92.5821140  33.7044200   8.5455040  91.5597470  32.5894930
  13.9481440  93.5947070  34.0220920  13.0975030  93.2952820  34.3429990
  13.7883230  93.8389080  33.1104740  11.0431150  95.0948820  36.1219710
  11.3684560  94.2612570  35.7821940  11.8311480  95.6177340  36.2698040
   7.7765940  89.1280300  22.1694770   7.1520120  89.1240170  22.8948080
   7.6896060  88.2611260  21.7730740   6.6983020  90.0516930  29.1478540
   6.9955350  90.9579760  29.0670560   7.2468580  89.5635710  28.5338110
   4.4521340  94.6303170  25.0170190   4.2262260  94.4140340  25.9216810
   3.6713870  95.0631630  24.6716160  11.6819100  94.6366540  23.6160840
  11.0827990  95.3602340  23.4324460  12.2298710  94.5743320  22.8337290
   6.8920550  95.5288750  35.6830460   6.7964150  94.5883480  35.5330860
   7.7352530  95.7503820  35.2878530  10.2883970  93.2730080  25.6464120
  10.6813540  93.5902280  24.8332810  10.6500820  92.3941960  25.7608640
   8.5976140  92.0237390  36.9060980   7.9074460  91.8309590  37.5407070
   9.3408440  92.3072030  37.4385280  10.8739110  95.8635830  29.7414900
  10.1420230  96.3722640  30.0905000  10.4763450  95.0465810  29.4403680
   7.3116500  92.5390030  28.1467390   7.3152560  92.0979980  27.2971930
   8.2067620  92.8607360  28.2539210   3.1618880  92.4216520  27.1061600
   2.8218930  92.8991750  27.8628650   2.3996200  91.9681640  26.7462700
   7.3736650  93.5402110  21.1374150   7.4949470  93.4988590  22.0859970
   6.9885160  94.4026260  20.9820880  11.3365020  91.3169510  29.1537840
  11.3537760  91.7678160  29.9979690  11.0880600  90.4175150  29.3671280
   6.3858150  95.8503250  20.5357450   5.8175050  95.4021500  19.9093360
   7.0947150  96.2096030  20.0022600  14.7635770  88.7301690  34.9924220
  15.0881540  87.9991350  35.5182200  14.7992280  88.4115330  34.0905210
   7.6124470  96.5991810  29.8932800   7.9794600  96.1250380  30.6394140
   7.4229530  97.4733380  30.2341140   5.4023840  95.6400450  32.2117010
   5.0980910  96.5192430  32.4367370   6.3570300  95.7000240  32.2474450
  10.1503550  90.2364760  22.7439640   9.3368160  89.7377930  22.6684950
   9.9565500  91.0763010  22.3275990  12.8651940  94.6084410  21.0401800
  13.7531560  94.9201640  20.8653140  12.8357030  93.7356660  20.6482380
   4.6600690  96.9387430  36.2427920   4.3600830  97.0844610  35.3455740
   5.4311930  96.3792720  36.1501310  15.1366210  95.9196250  20.5081660
  15.0529930  96.3510470  19.6578100  15.8560400  96.3794600  20.9408480
   3.0342210  88.2105310  24.5753770   2.9056840  88.2023210  25.5238690
   2.2104230  88.5488400  24.2244780  11.5274920  92.4618740  31.7861920
  11.8955740  91.6413950  32.1141490  10.6673120  92.5220630  32.2017570
  14.8936950  91.4175680  22.5949480  14.2650110  91.5221350  21.8807710
  14.3988870  91.6372460  23.3843360   6.8620980  93.6961630  24.0107360
   6.1537130  94.1647970  24.4520970   7.1465460  93.0383640  24.6452550
   8.4876910  95.1158330  32.0099890   8.9862160  95.5904150  32.6751740
   8.6299860  94.1921850  32.2169920  10.8936410  90.4212290  25.4503150
  10.7704190  90.4398420  24.5012660  11.8420970  90.4691230  25.5701550
   5.0656000  92.0046710  21.3858070   5.9146530  92.4416860  21.3198260
   4.6987270  92.3166970  22.2130130  15.6943770  91.3326290  32.8528280
  15.1917370  92.0731690  33.1922090  16.5100430  91.7210290  32.5365070
  13.9865780  96.5759470  26.2989640  13.0455920  96.5909700  26.4737330
  14.3009850  95.7895430  26.7449940   3.9647420  98.2579070  19.8593600
   4.7310690  98.1460430  20.4219030   4.0422110  97.5617040  19.2070370
   2.6594180  95.6904140  20.5426490   2.7397770  94.7431650  20.6543890
   3.5513930  96.0211020  20.6487150   2.2188060  95.6548650  36.6732730
   2.2593400  95.3562520  37.5817960   3.0733560  96.0556260  36.5140250
   5.9966450  98.2544200  21.8336240   6.4182870  98.0884070  22.6767630
   6.1217290  97.4444430  21.3391380   4.1593870  94.2340750  34.6407220
   3.6290330  93.7431700  34.0130560   4.8281940  94.6624950  34.1065150
   8.5094090  97.2781810  19.0813340   9.0299750  96.5630830  18.7154490
   9.1562490  97.9167680  19.3813850  13.5294100  96.0406370  36.4087560
  14.1114870  95.2858690  36.3208040  13.7055870  96.5713810  35.6319040
   4.6466170  91.2003120  34.7204510   4.5523040  90.5823870  33.9955380
   4.0663560  91.9269410  34.4934420   7.4127610  89.7576360  31.7531900
   6.9644910  89.7800620  30.9077450   6.7792810  89.3595380  32.3502200
  10.1551060  96.3846870  33.7582180  10.2747270  95.7888010  34.4977020
  11.0145060  96.4216560  33.3383480  12.4938960  96.9384060  32.3344690
  11.9674180  97.4626680  31.7309830  12.8370300  97.5711450  32.9654420
   4.8925350  94.3277430  18.7794400   4.6914410  93.4644790  19.1407740
   4.7217400  94.2410790  17.8416000   6.9219830  92.9268220  35.0158000
   7.5119520  92.6184070  35.7035820   6.1040070  92.4547970  35.1717900
  11.7413260  92.5434030  35.2491020  11.0528780  91.8815570  35.1841010
  12.4619280  92.0972300  35.6939480  12.3713660  89.1385660  21.3081280
  12.6515950  88.2953560  21.6640700  11.5979390  89.3708770  21.8220030
   3.6908150  91.4278050  18.7672280   3.9934050  91.4345480  17.8591430
   4.4302740  91.0775910  19.2639940   6.9093080  90.3712670  19.7528480
   6.5615080  89.6936660  19.1730930   7.1105850  89.9102180  20.5671870
  13.1989160  91.6941610  20.3711340  13.6174040  91.5072590  19.5308000
  12.8925220  90.8420660  20.6814270  16.6978890  96.6065750  24.0687140
  16.3222490  95.8393680  23.6368430  15.9682010  96.9888450  24.5562070
  16.0878510  95.7537270  33.7026660  15.8564600  95.5250020  32.8024610
  16.3483060  96.6736820  33.6571550  14.5266580  90.9793700  36.4806360
  15.4036760  90.9877100  36.8640360  14.5387420  90.2424540  35.8698710
  15.9729850  94.8323240  27.3694380  16.4967330  94.3385890  26.7384550
  16.5589270  94.9673600  28.1141950  16.1519570  94.9163110  30.8913930
  15.2022280  94.8826650  31.0058920  16.3332580  95.8263220  30.6563700
  15.4629820  94.0896590  23.3086790  15.9588940  93.8567460  24.0935670
  15.2645890  93.2508430  22.8924430  16.8916980  92.7257540  25.8424470
  16.7816260  92.5713580  26.7806740  17.6524570  92.1978480  25.5999880
  15.2382700  88.6651670  32.3007470  15.8754920  89.2785810  32.6666660
  15.3857590  88.7012330  31.3556700  17.7807250  90.5565460  19.0830610
  18.7056560  90.4246640  18.8748900  17.7583040  90.6358280  20.0367060
  17.8545740  91.3276120  21.7087320  17.0597240  91.2621240  22.2380230
  18.0589020  92.2626760  21.6972670   8.6087180  89.8177860  35.2082570
   8.5476070  90.4099690  35.9577980   9.5487560  89.7103820  35.0632830
  11.2461740  89.4747920  34.8474860  11.8602150  89.7927210  34.1855940
  11.7911300  88.9896510  35.4670720   1.7683000  88.1542180  34.9613920
   2.3165990  87.9730230  34.1980030   1.8338310  87.3636290  35.4970230
  11.9869780  88.0380060  31.1744150  11.1129620  88.3715170  30.9717080
  11.8780530  87.5653240  31.9996020  12.8941760  90.2450930  32.5585870
  12.5655120  89.4302690  32.1787600  13.8424060  90.2020740  32.4351560
   9.7344600  88.9549900  30.1137060   8.9516390  89.4295400  30.3933820
   9.4407530  88.0504730  30.0050240  14.2865670  89.6573000  28.1586150
  14.7273760  89.6018100  27.3107750  14.0173260  90.5731010  28.2296330
  16.1504240  89.2888240  26.1694970  16.0892640  88.3449460  26.0225990
  16.9296270  89.3968330  26.7148430   7.6198820  91.3736650  25.6253090
   6.8073330  90.9993540  25.2848970   8.1240460  90.6181730  25.9274280
  12.1223800  88.0379100  26.8636160  12.7253170  88.6099310  27.3384680
  11.3816790  88.6018540  26.6410060  15.2658400  88.4400660  22.1376440
  15.4609030  89.3384110  22.4043870  14.4788270  88.2087740  22.6309390
   3.4510160  89.7861430  21.1752750   3.9802920  88.9991230  21.0460700
   4.0838480  90.4652620  21.4088280   5.6448000  89.5236570  24.2298140
   5.0150740  88.8223880  24.3968270   5.1053140  90.2840700  24.0131300
   5.7703560  88.8020550  36.6650630   5.4887830  89.3054150  35.9011450
   6.1523260  88.0042300  36.2992760  12.3719020  88.2174130  37.2431100
  12.2584470  88.5368740  38.1382620  13.1888760  88.6186640  36.9468380
  11.2777170  96.2366600   7.6065840  11.1971220  95.3221210   7.3357550
  10.8641590  96.7333670   6.9005550   9.4095210  98.0145620   9.4875110
   8.6337310  97.5346060   9.7773680  10.0608140  97.3351270   9.3131270
   3.4261040  98.3265430  10.3650870   2.5945920  98.0714140  10.7647380
   4.0342020  98.3976200  11.1008790   9.8809370  93.4973190   9.7214200
  10.2574190  92.6245070   9.6087870   9.7828880  93.8331890   8.8304640
   4.0114380  91.8698820   5.1831640   4.1181130  92.7702550   5.4900400
   3.1006740  91.8216790   4.8926290  13.6633490  90.9923630   6.6542540
  14.4843110  90.5020200   6.6968020  13.6967570  91.5821290   7.4074380
   5.8522110  94.8385190   9.5156820   6.3600330  95.3366160  10.1561840
   6.3835350  94.0620390   9.3396180  17.9533040  93.0090380  13.2186170
  17.2485210  93.3972090  12.7001280  18.2190960  93.7040670  13.8207100
   4.1358210  89.4783750  13.7820240   4.1376650  89.9956140  12.9766140
   3.3062520  89.0013930  13.7590170  13.8994970  92.9324010   9.4270080
  13.1950540  93.2208900  10.0073190  14.2607130  93.7424120   9.0669640
   3.8173540  91.1893710  11.7890690   4.1590350  92.0335760  11.4944560
   2.8789350  91.3377450  11.9056030  16.9681890  92.3778800   9.8179290
  16.0206800  92.4117780   9.9494720  17.2931880  93.1917750  10.2028650
   7.5001430  88.6775980   8.1135280   7.8076410  88.1222870   7.3970780
   6.5702130  88.8120440   7.9308270   9.8882190  96.7424810   4.8495400
   8.9611470  96.6762190   5.0783870  10.0407010  97.6804940   4.7350640
  16.3964030  97.6960330  11.8241590  15.5682660  97.7653420  11.3491720
  16.9914510  98.2814640  11.3557420  13.9179480  98.3045110   5.3530650
  13.2991900  97.9664660   4.7056950  13.9003930  97.6604870   6.0609840
  13.3606040  94.4829650  12.7696460  12.9477220  95.3083360  13.0236450
  12.6281990  93.8974690  12.5772820   5.4938830  97.2689550   7.6315130
   5.0895830  96.5566800   7.1361030   5.5801950  96.9242790   8.5203170
   4.2067450  94.0432760  11.4114170   4.7582040  94.1528100  10.6367420
   4.7210960  94.4170360  12.1269400  12.0944180  97.5431920   2.3603400
  12.5337460  96.7054350   2.2141220  12.8072600  98.1761320   2.4467540
   3.8810180  97.5652120  15.0219510   3.7417950  98.4374920  15.3906910
   2.9991540  97.2224930  14.8767450   2.1943460  96.1634530   5.1321780
   2.0741060  96.8896620   4.5203050   1.8844350  95.3937440   4.6549690
  16.8862610  93.5346230  16.6518580  16.2706880  94.0425900  16.1234040
  16.5659030  92.6344560  16.5944520   4.6607120  89.5069600   8.5145450
   4.2175270  90.2879140   8.1829970   5.2192110  89.8299490   9.2216390
   8.9476930  92.3738120  14.1180770   8.4856300  92.5821140  14.9300710
   8.5455040  91.5597470  13.8151440  13.9481440  93.5947070  15.2477430
  13.0975030  93.2952820  15.5686500  13.7883230  93.8389080  14.3361250
  11.0431150  95.0948820  17.3476220  11.3684560  94.2612570  17.0078450
  11.8311480  95.6177340  17.4954550   7.7765940  89.1280300   3.3951280
   7.1520120  89.1240170   4.1204590   7.6896060  88.2611260   2.9987250
   6.6983020  90.0516930  10.3735050   6.9955350  90.9579760  10.2927070
   7.2468580  89.5635710   9.7594620   4.4521340  94.6303170   6.2426700
   4.2262260  94.4140340   7.1473320   3.6713870  95.0631630   5.8972670
  11.6819100  94.6366540   4.8417350  11.0827990  95.3602340   4.6580970
  12.2298710  94.5743320   4.0593800   6.8920550  95.5288750  16.9086970
   6.7964150  94.5883480  16.7587370   7.7352530  95.7503820  16.5135040
  10.2883970  93.2730080   6.8720630  10.6813540  93.5902280   6.0589320
  10.6500820  92.3941960   6.9865150   8.5976140  92.0237390  18.1317490
   7.9074460  91.8309590  18.7663580   9.3408440  92.3072030  18.6641790
  10.8739110  95.8635830  10.9671410  10.1420230  96.3722640  11.3161510
  10.4763450  95.0465810  10.6660190   7.3116500  92.5390030   9.3723900
   7.3152560  92.0979980   8.5228440   8.2067620  92.8607360   9.4795720
   3.1618880  92.4216520   8.3318110   2.8218930  92.8991750   9.0885160
   2.3996200  91.9681640   7.9719210   7.3736650  93.5402110   2.3630660
   7.4949470  93.4988590   3.3116480   6.9885160  94.4026260   2.2077390
  11.3365020  91.3169510  10.3794350  11.3537760  91.7678160  11.2236200
  11.0880600  90.4175150  10.5927790  14.7635770  88.7301690  16.2180730
  15.0881540  87.9991350  16.7438710  14.7992280  88.4115330  15.3161720
   7.6124470  96.5991810  11.1189310   7.9794600  96.1250380  11.8650650
   7.4229530  97.4733380  11.4597650   5.4023840  95.6400450  13.4373520
   5.0980910  96.5192430  13.6623880   6.3570300  95.7000240  13.4730960
  10.1503550  90.2364760   3.9696150   9.3368160  89.7377930   3.8941460
   9.9565500  91.0763010   3.5532500  12.8651940  94.6084410   2.2658310
  13.7531560  94.9201640   2.0909650  12.8357030  93.7356660   1.8738890
   4.6600690  96.9387430  17.4684430   4.3600830  97.0844610  16.5712250
   5.4311930  96.3792720  17.3757820   3.0342210  88.2105310   5.8010280
   2.9056840  88.2023210   6.7495200   2.2104230  88.5488400   5.4501290
  11.5274920  92.4618740  13.0118430  11.8955740  91.6413950  13.3398000
  10.6673120  92.5220630  13.4274080  14.8936950  91.4175680   3.8205990
  14.2650110  91.5221350   3.1064220  14.3988870  91.6372460   4.6099870
   6.8620980  93.6961630   5.2363870   6.1537130  94.1647970   5.6777480
   7.1465460  93.0383640   5.8709060   8.4876910  95.1158330  13.2356400
   8.9862160  95.5904150  13.9008250   8.6299860  94.1921850  13.4426430
  10.8936410  90.4212290   6.6759660  10.7704190  90.4398420   5.7269170
  11.8420970  90.4691230   6.7958060   5.0656000  92.0046710   2.6114580
   5.9146530  92.4416860   2.5454770   4.6987270  92.3166970   3.4386640
  15.6943770  91.3326290  14.0784790  15.1917370  92.0731690  14.4178600
  16.5100430  91.7210290  13.7621580  13.9865780  96.5759470   7.5246150
  13.0455920  96.5909700   7.6993840  14.3009850  95.7895430   7.9706450
   2.6594180  95.6904140   1.7683000   2.7397770  94.7431650   1.8800400
   3.5513930  96.0211020   1.8743660   2.2188060  95.6548650  17.8989240
   2.2593400  95.3562520  18.8074470   3.0733560  96.0556260  17.7396760
   5.9966450  98.2544200   3.0592750   6.4182870  98.0884070   3.9024140
   6.1217290  97.4444430   2.5647890   4.1593870  94.2340750  15.8663730
   3.6290330  93.7431700  15.2387070   4.8281940  94.6624950  15.3321660
  13.5294100  96.0406370  17.6344070  14.1114870  95.2858690  17.5464550
  13.7055870  96.5713810  16.8575550   4.6466170  91.2003120  15.9461020
   4.5523040  90.5823870  15.2211890   4.0663560  91.9269410  15.7190930
   7.4127610  89.7576360  12.9788410   6.9644910  89.7800620  12.1333960
   6.7792810  89.3595380  13.5758710  10.1551060  96.3846870  14.9838690
  10.2747270  95.7888010  15.7233530  11.0145060  96.4216560  14.5639990
  12.4938960  96.9384060  13.5601200  11.9674180  97.4626680  12.9566340
  12.8370300  97.5711450  14.1910930   6.9219830  92.9268220  16.2414510
   7.5119520  92.6184070  16.9292330   6.1040070  92.4547970  16.3974410
  11.7413260  92.5434030  16.4747530  11.0528780  91.8815570  16.4097520
  12.4619280  92.0972300  16.9195990  12.3713660  89.1385660   2.5337790
  12.6515950  88.2953560   2.8897210  11.5979390  89.3708770   3.0476540
  16.6978890  96.6065750   5.2943650  16.3222490  95.8393680   4.8624940
  15.9682010  96.9888450   5.7818580  16.0878510  95.7537270  14.9283170
  15.8564600  95.5250020  14.0281120  16.3483060  96.6736820  14.8828060
  14.5266580  90.9793700  17.7062870  15.4036760  90.9877100  18.0896870
  14.5387420  90.2424540  17.0955220  15.9729850  94.8323240   8.5950890
  16.4967330  94.3385890   7.9641060  16.5589270  94.9673600   9.3398460
  16.1519570  94.9163110  12.1170440  15.2022280  94.8826650  12.2315430
  16.3332580  95.8263220  11.8820210  15.4629820  94.0896590   4.5343300
  15.9588940  93.8567460   5.3192180  15.2645890  93.2508430   4.1180940
  16.8916980  92.7257540   7.0680980  16.7816260  92.5713580   8.0063250
  17.6524570  92.1978480   6.8256390  15.2382700  88.6651670  13.5263980
  15.8754920  89.2785810  13.8923170  15.3857590  88.7012330  12.5813210
  17.8545740  91.3276120   2.9343830  17.0597240  91.2621240   3.4636740
  18.0589020  92.2626760   2.9229180   8.6087180  89.8177860  16.4339080
   8.5476070  90.4099690  17.1834490   9.5487560  89.7103820  16.2889340
  11.2461740  89.4747920  16.0731370  11.8602150  89.7927210  15.4112450
  11.7911300  88.9896510  16.6927230   1.7683000  88.1542180  16.1870430
   2.3165990  87.9730230  15.4236540   1.8338310  87.3636290  16.7226740
  11.9869780  88.0380060  12.4000660  11.1129620  88.3715170  12.1973590
  11.8780530  87.5653240  13.2252530  12.8941760  90.2450930  13.7842380
  12.5655120  89.4302690  13.4044110  13.8424060  90.2020740  13.6608070
   9.7344600  88.9549900  11.3393570   8.9516390  89.4295400  11.6190330
   9.4407530  88.0504730  11.2306750  14.2865670  89.6573000   9.3842660
  14.7273760  89.6018100   8.5364260  14.0173260  90.5731010   9.4552840
  16.1504240  89.2888240   7.3951480  16.0892640  88.3449460   7.2482500
  16.9296270  89.3968330   7.9404940   7.6198820  91.3736650   6.8509600
   6.8073330  90.9993540   6.5105480   8.1240460  90.6181730   7.1530790
  12.1223800  88.0379100   8.0892670  12.7253170  88.6099310   8.5641190
  11.3816790  88.6018540   7.8666570  15.2658400  88.4400660   3.3632950
  15.4609030  89.3384110   3.6300380  14.4788270  88.2087740   3.8565900
   3.4510160  89.7861430   2.4009260   3.9802920  88.9991230   2.2717210
   4.0838480  90.4652620   2.6344790   5.6448000  89.5236570   5.4554650
   5.0150740  88.8223880   5.6224780   5.1053140  90.2840700   5.2387810
   5.7703560  88.8020550  17.8907140   5.4887830  89.3054150  17.1267960
   6.1523260  88.0042300  17.5249270  12.3719020  88.2174130  18.4687610
  12.2584470  88.5368740  19.3639130  13.1888760  88.6186640  18.1724890
  11.2777170  77.4623110  45.1552820  11.1971220  76.5477720  44.8844530
  10.8641590  77.9590180  44.4492530   9.4095210  79.2402130  47.0362090
   8.6337310  78.7602570  47.3260660  10.0608140  78.5607780  46.8618250
   3.4261040  79.5521940  47.9137850   2.5945920  79.2970650  48.3134360
   4.0342020  79.6232710  48.6495770  13.4302640  83.6462320  45.8161220
  12.9684170  82.8749560  46.1448390  14.2428190  83.6728390  46.3213670
   3.4062300  83.5862030  48.1095870   3.7090340  82.6959770  47.9306090
   4.1505890  84.1432250  47.8818120   9.6565950  85.9320330  45.4365210
   9.0377390  86.3877830  44.8659650  10.5117730  86.0871790  45.0354910
   8.8504200  81.9159320  47.0432250   8.7812480  80.9749260  46.8821380
   9.6124060  82.0060730  47.6154820   9.8809370  74.7229700  47.2701180
  10.2574190  73.8501580  47.1574850   9.7828880  75.0588400  46.3791620
   4.0114380  73.0955330  42.7318620   4.1181130  73.9959060  43.0387380
   3.1006740  73.0473300  42.4413270  13.6633490  72.2180140  44.2029520
  14.4843110  71.7276710  44.2455000  13.6967570  72.8077800  44.9561360
   5.8522110  76.0641700  47.0643800   6.3600330  76.5622670  47.7048820
   6.3835350  75.2876900  46.8883160  17.9533040  74.2346890  50.7673150
  17.2485210  74.6228600  50.2488260  18.2190960  74.9297180  51.3694080
   4.1358210  70.7040260  51.3307220   4.1376650  71.2212650  50.5253120
   3.3062520  70.2270440  51.3077150  10.5229300  80.8159570  42.8297120
   9.9046570  81.2809020  42.2659840  11.0352550  81.5087050  43.2466630
   5.3861060  80.3435440  49.5080720   5.0530440  80.9704360  50.1501790
   5.5627740  80.8697320  48.7282390  13.8994970  74.1580520  46.9757060
  13.1950540  74.4465410  47.5560170  14.2607130  74.9680630  46.6156620
   3.8173540  72.4150220  49.3377670   4.1590350  73.2592270  49.0431540
   2.8789350  72.5633960  49.4543010   4.5980160  82.3116240  51.3229900
   5.2154160  82.9867320  51.0414350   3.7373280  82.7204220  51.2317400
  15.5157750  83.7755650  49.2384540  14.8321270  84.4454760  49.2301210
  16.0552040  83.9736300  48.4729400  16.9681890  73.6035310  47.3666270
  16.0206800  73.6374290  47.4981700  17.2931880  74.4174260  47.7515630
   7.5001430  69.9032490  45.6622260   7.8076410  69.3479380  44.9457760
   6.5702130  70.0376950  45.4795250  13.0516490  85.6199780  47.9529720
  13.0643650  85.2162070  47.0851980  12.4991710  86.3947070  47.8491150
  14.3461910  82.3416000  43.0419890  14.2358240  81.3990330  43.1669310
  14.3430160  82.7031640  43.9282650  12.4501930  80.5229620  49.2812330
  12.8670720  80.3089730  48.4465790  13.1741750  80.7802410  49.8520950
   9.8882190  77.9681320  42.3982380   8.9611470  77.9018700  42.6270850
  10.0407010  78.9061450  42.2837620   9.8751270  74.2398320  39.3949540
   8.9354940  74.4012280  39.4802000  10.1934530  74.9584000  38.8485530
  16.3964030  78.9216840  49.3728570  15.5682660  78.9909930  48.8978700
  16.9914510  79.5071150  48.9044400  13.9179480  79.5301620  42.9017630
  13.2991900  79.1921170  42.2543930  13.9003930  78.8861380  43.6096820
  13.3606040  75.7086160  50.3183440  12.9477220  76.5339870  50.5723430
  12.6281990  75.1231200  50.1259800   5.4938830  78.4946060  45.1802110
   5.0895830  77.7823310  44.6848010   5.5801950  78.1499300  46.0690150
   5.9620530  82.1813620  47.3441320   5.6648820  81.5759090  46.6649100
   6.9120350  82.2190930  47.2330680   4.2067450  75.2689270  48.9601150
   4.7582040  75.3784610  48.1854400   4.7210960  75.6426870  49.6756380
  14.0506140  85.7545490  51.0064420  13.5736700  86.5617680  50.8137030
  13.3667930  85.1023820  51.1590630  12.0944180  78.7688430  39.9090380
  12.5337460  77.9310860  39.7628200  12.8072600  79.4017830  39.9954520
   3.8810180  78.7908630  52.5706490   3.7417950  79.6631430  52.9393890
   2.9991540  78.4481440  52.4254430  10.2039560  83.7084500  43.8771620
  10.6435470  84.4508830  43.4627010  10.1426450  83.9511070  44.8010580
  15.6761320  70.0231240  38.2231420  15.3633980  70.1158070  39.1230490
  16.4373790  70.6012270  38.1728850   2.1943460  77.3891040  42.6808760
   2.0741060  78.1153130  42.0690030   1.8844350  76.6193950  42.2036670
  17.0338600  82.7070280  53.2355820  17.1601660  82.4682160  52.3173000
  17.0759980  81.8754820  53.7077900  10.8955340  86.4098280  51.8050630
  11.4100010  86.3206290  52.6073060  10.0524420  86.7557980  52.0978540
  12.8709740  86.6953620  41.2334630  12.7110880  86.4056560  42.1316460
  12.7056450  85.9193750  40.6979860   5.3498120  86.4752150  43.0106250
   5.1740600  85.5587690  42.7974050   4.4953860  86.8339440  43.2504050
  12.5735870  84.2041180  39.7932630  11.8801030  84.2018470  39.1334910
  13.3158730  83.7800500  39.3626800  12.1385800  85.8303890  43.8681120
  12.5942750  85.0493270  44.1819740  12.4778320  86.5410710  44.4122300
  16.8862610  74.7602740  54.2005560  16.2706880  75.2682410  53.6721020
  16.5659030  73.8601070  54.1431500   4.6607120  70.7326110  46.0632430
   4.2175270  71.5135650  45.7316950   5.2192110  71.0556000  46.7703370
   8.9476930  73.5994630  51.6667750   8.4856300  73.8077650  52.4787690
   8.5455040  72.7853980  51.3638420  13.9481440  74.8203580  52.7964410
  13.0975030  74.5209330  53.1173480  13.7883230  75.0645590  51.8848230
   7.7765940  70.3536810  40.9438260   7.1520120  70.3496680  41.6691570
   7.6896060  69.4867770  40.5474230   6.6983020  71.2773440  47.9222030
   6.9955350  72.1836270  47.8414050   7.2468580  70.7892220  47.3081600
   4.4521340  75.8559680  43.7913680   4.2262260  75.6396850  44.6960300
   3.6713870  76.2888140  43.4459650  11.6819100  75.8623050  42.3904330
  11.0827990  76.5858850  42.2067950  12.2298710  75.7999830  41.6080780
  10.2883970  74.4986590  44.4207610  10.6813540  74.8158790  43.6076300
  10.6500820  73.6198470  44.5352130  10.8739110  77.0892340  48.5158390
  10.1420230  77.5979150  48.8648490  10.4763450  76.2722320  48.2147170
   7.3116500  73.7646540  46.9210880   7.3152560  73.3236490  46.0715420
   8.2067620  74.0863870  47.0282700   3.1618880  73.6473030  45.8805090
   2.8218930  74.1248260  46.6372140   2.3996200  73.1938150  45.5206190
   7.3736650  74.7658620  39.9117640   7.4949470  74.7245100  40.8603460
   6.9885160  75.6282770  39.7564370  11.3365020  72.5426020  47.9281330
  11.3537760  72.9934670  48.7723180  11.0880600  71.6431660  48.1414770
   6.3858150  77.0759760  39.3100940   5.8175050  76.6278010  38.6836850
   7.0947150  77.4352540  38.7766090   7.6124470  77.8248320  48.6676290
   7.9794600  77.3506890  49.4137630   7.4229530  78.6989890  49.0084630
   5.4023840  76.8656960  50.9860500   5.0980910  77.7448940  51.2110860
   6.3570300  76.9256750  51.0217940   3.9305630  81.0717950  41.5827350
   3.1567890  80.5315570  41.4226070   4.6600260  80.5524560  41.2445110
  14.6893610  80.0683310  47.3753740  15.4092730  80.5638600  46.9849850
  14.4875430  79.3901200  46.7307610  10.1503550  71.4621270  41.5183130
   9.3368160  70.9634440  41.4428440   9.9565500  72.3019520  41.1019480
  10.0712410  80.1392370  53.2622740  10.0049720  79.2188040  53.0080330
   9.4417550  80.2367810  53.9767380  12.8651940  75.8340920  39.8145290
  13.7531560  76.1458150  39.6396630  12.8357030  74.9613170  39.4225870
   3.9743030  80.7398330  45.2206160   4.4921700  79.9366590  45.1663050
   3.5227050  80.6777470  46.0622990   8.8612530  82.0064610  40.4933460
   9.2028230  82.7506840  39.9976780   8.0325240  82.3195730  40.8558290
  10.0029140  82.9612940  53.0126540  10.0173680  82.0293900  52.7945450
   9.2954240  83.0472700  53.6516310  15.1366210  77.1452760  39.2825150
  15.0529930  77.5766980  38.4321590  15.8560400  77.6051110  39.7151970
  16.2140350  79.6020280  52.3595120  15.4888540  80.1949060  52.1624510
  16.7415810  79.5943820  51.5608490  16.1653460  83.9995020  42.0107280
  15.5229620  83.3450640  42.2851000  15.7784120  84.4050110  41.2347950
  11.7439940  81.3280450  45.8578970  12.0963760  80.7308580  45.1980340
  10.8602270  81.0024680  46.0287220   7.8303220  82.0878140  43.2649380
   8.5174350  82.6347350  43.6456970   7.0435640  82.6318870  43.2998990
   7.1330430  79.0924170  42.8774740   7.5893210  79.9029420  43.1034930
   6.7818640  78.7747310  43.7093230   9.4363040  84.6030510  50.1067040
  10.0805260  84.8089890  50.7840460   9.7992480  83.8418910  49.6537890
   3.0342210  69.4361820  43.3497260   2.9056840  69.4279720  44.2982180
   2.2104230  69.7744910  42.9988270  10.7095120  82.6062860  48.8244490
  11.3517350  81.9056020  48.9376660  11.2344470  83.3861300  48.6441380
  14.5550840  82.8911480  38.5483630  14.3288420  82.1741920  39.1408270
  14.1647040  82.6423920  37.7105380  12.4832740  83.4057760  52.0280550
  12.8188980  83.9924450  52.7058470  11.5633080  83.2750470  52.2578340
  14.1367090  80.8083420  40.2097790  13.8488790  81.2696110  40.9975670
  14.9319260  80.3481190  40.4782010   6.3535490  84.3009540  40.1401760
   6.3445590  85.0339230  39.5246270   5.4333850  84.0541120  40.2328720
  11.5274920  73.6875250  50.5605410  11.8955740  72.8670460  50.8884980
  10.6673120  73.7477140  50.9761060  14.8936950  72.6432190  41.3692970
  14.2650110  72.7477860  40.6551200  14.3988870  72.8628970  42.1586850
   9.3395090  84.3637780  38.8026950   9.4407070  84.1601770  37.8728930
   8.4396830  84.1096060  39.0074730   6.8620980  74.9218140  42.7850850
   6.1537130  75.3904480  43.2264460   7.1465460  74.2640150  43.4196040
   8.4876910  76.3414840  50.7843380   8.9862160  76.8160660  51.4495230
   8.6299860  75.4178360  50.9913410  10.8936410  71.6468800  44.2246640
  10.7704190  71.6654930  43.2756150  11.8420970  71.6947740  44.3445040
   7.9813200  86.8824100  43.4974620   8.2354700  86.8445490  42.5753990
   7.0325680  86.7557430  43.4902870   5.0656000  73.2303220  40.1601560
   5.9146530  73.6673370  40.0941750   4.6987270  73.5423480  40.9873620
  15.6943770  72.5582800  51.6271770  15.1917370  73.2988200  51.9665580
  16.5100430  72.9466800  51.3108560  13.9865780  77.8015980  45.0733130
  13.0455920  77.8166210  45.2480820  14.3009850  77.0151940  45.5193430
   3.9647420  79.4835580  38.6337090   4.7310690  79.3716940  39.1962520
   4.0422110  78.7873550  37.9813860   2.6594180  76.9160650  39.3169980
   2.7397770  75.9688160  39.4287380   3.5513930  77.2467530  39.4230640
  15.9891360  84.9724830  46.7487390  16.1138780  85.7956000  47.2211200
  16.8556920  84.7615560  46.4011540   3.4608890  87.0656040  46.4204520
   4.1971370  86.5171500  46.6913090   3.8449810  87.9312050  46.2810510
   6.5711200  86.2386350  38.2430090   7.3639810  86.5275180  37.7911880
   6.0515550  85.8078520  37.5642570  15.6241370  85.4656480  39.6666830
  15.3382880  85.0521620  38.8521010  15.4260920  86.3944190  39.5467350
   7.0888600  81.4589760  38.1072440   6.9839240  80.8442110  38.8333820
   6.9212820  80.9355650  37.3235450   7.2402920  80.1446560  54.0861670
   6.4748590  80.7131560  54.0016340   7.4218880  79.8522770  53.1929900
  10.3291330  80.5209790  38.7114430   9.7801430  80.9679090  39.3557170
  10.9510590  80.0159040  39.2352100   5.9966450  79.4800710  40.6079730
   6.4182870  79.3140580  41.4511120   6.1217290  78.6700940  40.1134870
   4.1593870  75.4597260  53.4150710   3.6290330  74.9688210  52.7874050
   4.8281940  75.8881460  52.8808640   8.5094090  78.5038320  37.8556830
   9.0299750  77.7887340  37.4897980   9.1562490  79.1424190  38.1557340
  13.0571930  79.9266720  53.1791900  13.4712950  80.0811800  54.0282320
  12.1222930  80.0521940  53.3417680   4.6466170  72.4259630  53.4948000
   4.5523040  71.8080380  52.7698870   4.0663560  73.1525920  53.2677910
   7.4127610  70.9832870  50.5275390   6.9644910  71.0057130  49.6820940
   6.7792810  70.5851890  51.1245690   7.8187160  79.8787200  51.1487830
   8.2375270  80.7219930  50.9764070   6.8995790  80.0159240  50.9194610
  10.1551060  77.6103380  52.5325670  10.2747270  77.0144520  53.2720510
  11.0145060  77.6473070  52.1126970  12.4938960  78.1640570  51.1088180
  11.9674180  78.6883190  50.5053320  12.8370300  78.7967960  51.7397910
   4.8925350  75.5533940  37.5537890   4.6914410  74.6901300  37.9151230
   4.7217400  75.4667300  36.6159490   5.6694580  86.1840210  52.2645560
   5.1315670  86.9086270  51.9454260   5.9228540  85.7070550  51.4742900
  12.3713660  70.3642170  40.0824770  12.6515950  69.5210070  40.4384190
  11.5979390  70.5965280  40.5963520   3.6908150  72.6534560  37.5415770
   3.9934050  72.6601990  36.6334920   4.4302740  72.3032420  38.0383430
   8.5256790  87.4191420  52.5232210   8.4515490  88.3226560  52.8304580
   7.6235630  87.1003320  52.4954280   6.9093080  71.5969180  38.5271970
   6.5615080  70.9193170  37.9474420   7.1105850  71.1358690  39.3415360
   9.0742120  86.5849930  40.1458570   9.9692910  86.9234900  40.1677330
   9.1059750  85.8629340  39.5182850   2.7138280  81.9576980  38.3745570
   3.1513150  82.5006650  39.0303150   3.1986010  81.1323930  38.3841910
   4.5246000  83.0775020  43.4867800   4.2241540  82.9539990  44.3871710
   4.4183490  82.2183610  43.0783530  16.0536470  85.1153600  52.8524770
  15.4538460  85.1746160  52.1088690  16.1830370  84.1758580  52.9821620
  17.2937920  82.8571420  38.1894480  16.4630880  82.9248070  38.6601710
  17.4709750  83.7475540  37.8861340  16.7494380  79.6018900  40.6928680
  17.5113290  80.1715550  40.7988370  16.7648750  79.0346100  41.4636990
  17.7554350  80.4569000  45.5370610  18.1263180  79.6736320  45.1306580
  18.3956280  81.1458100  45.3587910  14.7388110  81.8405580  50.9500930
  13.9247950  82.2702740  51.2126720  15.1462310  82.4523990  50.3369980
  16.8013550  79.8953270  37.8501200  17.0762390  80.8032150  37.7220420
  16.6124290  79.8315800  38.7863190  13.1989160  72.9198120  39.1454830
  13.6174040  72.7329100  38.3051490  12.8925220  72.0677170  39.4557760
  16.6978890  77.8322260  42.8430630  16.3222490  77.0650190  42.4111920
  15.9682010  78.2144960  43.3305560  16.0878510  76.9793780  52.4770150
  15.8564600  76.7506530  51.5768100  16.3483060  77.8993330  52.4315040
  15.9729850  76.0579750  46.1437870  16.4967330  75.5642400  45.5128040
  16.5589270  76.1930110  46.8885440  16.1519570  76.1419620  49.6657420
  15.2022280  76.1083160  49.7802410  16.3332580  77.0519730  49.4307190
  15.4629820  75.3153100  42.0830280  15.9588940  75.0823970  42.8679160
  15.2645890  74.4764940  41.6667920  16.8916980  73.9514050  44.6167960
  16.7816260  73.7970090  45.5550230  17.6524570  73.4234990  44.3743370
  15.2382700  69.8908180  51.0750960  15.8754920  70.5042320  51.4410150
  15.3857590  69.9268840  50.1300190  17.7807250  71.7821970  37.8574100
  18.7056560  71.6503150  37.6492390  17.7583040  71.8614790  38.8110550
  17.8545740  72.5532630  40.4830810  17.0597240  72.4877750  41.0123720
  18.0589020  73.4883270  40.4716160  14.7964160  86.5924180  44.4769200
  15.3923230  86.2708750  43.8003620  15.0542310  86.1196000  45.2682470
   6.4032760  84.5801680  50.2269550   6.1624120  84.8476240  49.3400070
   7.3435400  84.7507410  50.2820410  17.6636920  86.5996060  51.0280190
  17.1695200  86.9964930  50.3107320  17.0550210  85.9745270  51.4217470
   2.5414760  85.9704340  51.7457610   1.9475080  85.8389040  52.4847650
   2.5338600  85.1342480  51.2799710  11.9869780  69.2636570  49.9487640
  11.1129620  69.5971680  49.7460570  11.8780530  68.7909750  50.7739510
  12.8941760  71.4707440  51.3329360  12.5655120  70.6559200  50.9531090
  13.8424060  71.4277250  51.2095050  15.3476370  87.2419480  48.3066930
  14.8879340  87.9935290  47.9324950  14.7188830  86.5225950  48.2481730
   5.7772090  85.5507720  47.4815060   6.2937110  84.9395080  46.9563320
   6.4269470  86.0536500  47.9726070   8.5167590  86.4416210  48.3084040
   8.8045400  86.1870510  47.4317050   9.0290810  85.8893570  48.8989610
   9.7344600  70.1806410  48.8880550   8.9516390  70.6551910  49.1677310
   9.4407530  69.2761240  48.7793730  14.2865670  70.8829510  46.9329640
  14.7273760  70.8274610  46.0851240  14.0173260  71.7987520  47.0039820
  16.1504240  70.5144750  44.9438460  16.0892640  69.5705970  44.7969480
  16.9296270  70.6224840  45.4891920   7.6198820  72.5993160  44.3996580
   6.8073330  72.2250050  44.0592460   8.1240460  71.8438240  44.7017770
  12.1223800  69.2635610  45.6379650  12.7253170  69.8355820  46.1128170
  11.3816790  69.8275050  45.4153550  15.2658400  69.6657170  40.9119930
  15.4609030  70.5640620  41.1787360  14.4788270  69.4344250  41.4052880
   3.4510160  71.0117940  39.9496240   3.9802920  70.2247740  39.8204190
   4.0838480  71.6909130  40.1831770   5.6448000  70.7493080  43.0041630
   5.0150740  70.0480390  43.1711760   5.1053140  71.5097210  42.7874790
  16.8185010  86.9057880  42.6726490  16.9937200  86.2195620  42.0287410
  16.1206580  87.4304930  42.2803160   4.6612660  87.2952720  40.2261800
   5.3931480  87.0112000  39.6785690   4.9206330  87.0566000  41.1161180
   3.8227450  83.4117450  40.2308130   3.1936330  83.8802550  40.7793960
   3.9375280  82.5666670  40.6654320  11.2777170  77.4623110  26.3809330
  11.1971220  76.5477720  26.1101040  10.8641590  77.9590180  25.6749040
   9.4095210  79.2402130  28.2618600   8.6337310  78.7602570  28.5517170
  10.0608140  78.5607780  28.0874760   3.4261040  79.5521940  29.1394360
   2.5945920  79.2970650  29.5390870   4.0342020  79.6232710  29.8752280
  13.4302640  83.6462320  27.0417730  12.9684170  82.8749560  27.3704900
  14.2428190  83.6728390  27.5470180   3.4062300  83.5862030  29.3352380
   3.7090340  82.6959770  29.1562600   4.1505890  84.1432250  29.1074630
   9.6565950  85.9320330  26.6621720   9.0377390  86.3877830  26.0916160
  10.5117730  86.0871790  26.2611420   8.8504200  81.9159320  28.2688760
   8.7812480  80.9749260  28.1077890   9.6124060  82.0060730  28.8411330
   9.8809370  74.7229700  28.4957690  10.2574190  73.8501580  28.3831360
   9.7828880  75.0588400  27.6048130   4.0114380  73.0955330  23.9575130
   4.1181130  73.9959060  24.2643890   3.1006740  73.0473300  23.6669780
  13.6633490  72.2180140  25.4286030  14.4843110  71.7276710  25.4711510
  13.6967570  72.8077800  26.1817870   5.8522110  76.0641700  28.2900310
   6.3600330  76.5622670  28.9305330   6.3835350  75.2876900  28.1139670
  17.9533040  74.2346890  31.9929660  17.2485210  74.6228600  31.4744770
  18.2190960  74.9297180  32.5950590   4.1358210  70.7040260  32.5563730
   4.1376650  71.2212650  31.7509630   3.3062520  70.2270440  32.5333660
  10.5229300  80.8159570  24.0553630   9.9046570  81.2809020  23.4916350
  11.0352550  81.5087050  24.4723140   5.3861060  80.3435440  30.7337230
   5.0530440  80.9704360  31.3758300   5.5627740  80.8697320  29.9538900
  13.8994970  74.1580520  28.2013570  13.1950540  74.4465410  28.7816680
  14.2607130  74.9680630  27.8413130   3.8173540  72.4150220  30.5634180
   4.1590350  73.2592270  30.2688050   2.8789350  72.5633960  30.6799520
   4.5980160  82.3116240  32.5486410   5.2154160  82.9867320  32.2670860
   3.7373280  82.7204220  32.4573910  15.5157750  83.7755650  30.4641050
  14.8321270  84.4454760  30.4557720  16.0552040  83.9736300  29.6985910
  16.9681890  73.6035310  28.5922780  16.0206800  73.6374290  28.7238210
  17.2931880  74.4174260  28.9772140   7.5001430  69.9032490  26.8878770
   7.8076410  69.3479380  26.1714270   6.5702130  70.0376950  26.7051760
  13.0516490  85.6199780  29.1786230  13.0643650  85.2162070  28.3108490
  12.4991710  86.3947070  29.0747660  14.3461910  82.3416000  24.2676400
  14.2358240  81.3990330  24.3925820  14.3430160  82.7031640  25.1539160
  12.4501930  80.5229620  30.5068840  12.8670720  80.3089730  29.6722300
  13.1741750  80.7802410  31.0777460   9.8882190  77.9681320  23.6238890
   8.9611470  77.9018700  23.8527360  10.0407010  78.9061450  23.5094130
   9.8751270  74.2398320  20.6206050   8.9354940  74.4012280  20.7058510
  10.1934530  74.9584000  20.0742040  16.3964030  78.9216840  30.5985080
  15.5682660  78.9909930  30.1235210  16.9914510  79.5071150  30.1300910
  13.9179480  79.5301620  24.1274140  13.2991900  79.1921170  23.4800440
  13.9003930  78.8861380  24.8353330  13.3606040  75.7086160  31.5439950
  12.9477220  76.5339870  31.7979940  12.6281990  75.1231200  31.3516310
   5.4938830  78.4946060  26.4058620   5.0895830  77.7823310  25.9104520
   5.5801950  78.1499300  27.2946660   5.9620530  82.1813620  28.5697830
   5.6648820  81.5759090  27.8905610   6.9120350  82.2190930  28.4587190
   4.2067450  75.2689270  30.1857660   4.7582040  75.3784610  29.4110910
   4.7210960  75.6426870  30.9012890  14.0506140  85.7545490  32.2320930
  13.5736700  86.5617680  32.0393540  13.3667930  85.1023820  32.3847140
   5.0538960  81.9195310  35.2205630   4.1567490  82.1435280  35.4679030
   5.0791830  82.0430250  34.2717030  12.0944180  78.7688430  21.1346890
  12.5337460  77.9310860  20.9884710  12.8072600  79.4017830  21.2211030
   3.8810180  78.7908630  33.7963000   3.7417950  79.6631430  34.1650400
   2.9991540  78.4481440  33.6510940  10.2039560  83.7084500  25.1028130
  10.6435470  84.4508830  24.6883520  10.1426450  83.9511070  26.0267090
   5.6790530  84.7330330  36.0048150   5.6505960  85.1373280  35.1376580
   5.5155500  83.8040690  35.8419750  15.6761320  70.0231240  19.4487930
  15.3633980  70.1158070  20.3487000  16.4373790  70.6012270  19.3985360
   2.1943460  77.3891040  23.9065270   2.0741060  78.1153130  23.2946540
   1.8844350  76.6193950  23.4293180  17.6305350  85.5157430  37.3012320
  18.1065070  85.9940320  37.9801400  18.2512510  85.4474920  36.5757820
  17.0338600  82.7070280  34.4612330  17.1601660  82.4682160  33.5429510
  17.0759980  81.8754820  34.9334410  10.8955340  86.4098280  33.0307140
  11.4100010  86.3206290  33.8329570  10.0524420  86.7557980  33.3235050
  12.8709740  86.6953620  22.4591140  12.7110880  86.4056560  23.3572970
  12.7056450  85.9193750  21.9236370   5.3498120  86.4752150  24.2362760
   5.1740600  85.5587690  24.0230560   4.4953860  86.8339440  24.4760560
  12.5735870  84.2041180  21.0189140  11.8801030  84.2018470  20.3591420
  13.3158730  83.7800500  20.5883310  12.1385800  85.8303890  25.0937630
  12.5942750  85.0493270  25.4076250  12.4778320  86.5410710  25.6378810
  16.8862610  74.7602740  35.4262070  16.2706880  75.2682410  34.8977530
  16.5659030  73.8601070  35.3688010   4.6607120  70.7326110  27.2888940
   4.2175270  71.5135650  26.9573460   5.2192110  71.0556000  27.9959880
   8.9476930  73.5994630  32.8924260   8.4856300  73.8077650  33.7044200
   8.5455040  72.7853980  32.5894930  13.9481440  74.8203580  34.0220920
  13.0975030  74.5209330  34.3429990  13.7883230  75.0645590  33.1104740
  11.0431150  76.3205330  36.1219710  11.3684560  75.4869080  35.7821940
  11.8311480  76.8433850  36.2698040   7.7765940  70.3536810  22.1694770
   7.1520120  70.3496680  22.8948080   7.6896060  69.4867770  21.7730740
   6.6983020  71.2773440  29.1478540   6.9955350  72.1836270  29.0670560
   7.2468580  70.7892220  28.5338110   4.4521340  75.8559680  25.0170190
   4.2262260  75.6396850  25.9216810   3.6713870  76.2888140  24.6716160
  11.6819100  75.8623050  23.6160840  11.0827990  76.5858850  23.4324460
  12.2298710  75.7999830  22.8337290   6.8920550  76.7545260  35.6830460
   6.7964150  75.8139990  35.5330860   7.7352530  76.9760330  35.2878530
  10.2883970  74.4986590  25.6464120  10.6813540  74.8158790  24.8332810
  10.6500820  73.6198470  25.7608640   8.5976140  73.2493900  36.9060980
   7.9074460  73.0566100  37.5407070   9.3408440  73.5328540  37.4385280
  10.8739110  77.0892340  29.7414900  10.1420230  77.5979150  30.0905000
  10.4763450  76.2722320  29.4403680   7.3116500  73.7646540  28.1467390
   7.3152560  73.3236490  27.2971930   8.2067620  74.0863870  28.2539210
   3.1618880  73.6473030  27.1061600   2.8218930  74.1248260  27.8628650
   2.3996200  73.1938150  26.7462700   7.3736650  74.7658620  21.1374150
   7.4949470  74.7245100  22.0859970   6.9885160  75.6282770  20.9820880
  11.3365020  72.5426020  29.1537840  11.3537760  72.9934670  29.9979690
  11.0880600  71.6431660  29.3671280   6.3858150  77.0759760  20.5357450
   5.8175050  76.6278010  19.9093360   7.0947150  77.4352540  20.0022600
  14.7635770  69.9558200  34.9924220  15.0881540  69.2247860  35.5182200
  14.7992280  69.6371840  34.0905210   7.6124470  77.8248320  29.8932800
   7.9794600  77.3506890  30.6394140   7.4229530  78.6989890  30.2341140
   5.4023840  76.8656960  32.2117010   5.0980910  77.7448940  32.4367370
   6.3570300  76.9256750  32.2474450   3.9305630  81.0717950  22.8083860
   3.1567890  80.5315570  22.6482580   4.6600260  80.5524560  22.4701620
  14.6893610  80.0683310  28.6010250  15.4092730  80.5638600  28.2106360
  14.4875430  79.3901200  27.9564120  10.1503550  71.4621270  22.7439640
   9.3368160  70.9634440  22.6684950   9.9565500  72.3019520  22.3275990
  10.0712410  80.1392370  34.4879250  10.0049720  79.2188040  34.2336840
   9.4417550  80.2367810  35.2023890  12.8651940  75.8340920  21.0401800
  13.7531560  76.1458150  20.8653140  12.8357030  74.9613170  20.6482380
   3.9743030  80.7398330  26.4462670   4.4921700  79.9366590  26.3919560
   3.5227050  80.6777470  27.2879500   8.8612530  82.0064610  21.7189970
   9.2028230  82.7506840  21.2233290   8.0325240  82.3195730  22.0814800
   4.6600690  78.1643940  36.2427920   4.3600830  78.3101120  35.3455740
   5.4311930  77.6049230  36.1501310  10.0029140  82.9612940  34.2383050
  10.0173680  82.0293900  34.0201960   9.2954240  83.0472700  34.8772820
  15.1366210  77.1452760  20.5081660  15.0529930  77.5766980  19.6578100
  15.8560400  77.6051110  20.9408480  16.2140350  79.6020280  33.5851630
  15.4888540  80.1949060  33.3881020  16.7415810  79.5943820  32.7865000
  16.1653460  83.9995020  23.2363790  15.5229620  83.3450640  23.5107510
  15.7784120  84.4050110  22.4604460  11.7439940  81.3280450  27.0835480
  12.0963760  80.7308580  26.4236850  10.8602270  81.0024680  27.2543730
   7.8303220  82.0878140  24.4905890   8.5174350  82.6347350  24.8713480
   7.0435640  82.6318870  24.5255500   7.1330430  79.0924170  24.1031250
   7.5893210  79.9029420  24.3291440   6.7818640  78.7747310  24.9349740
   9.4363040  84.6030510  31.3323550  10.0805260  84.8089890  32.0096970
   9.7992480  83.8418910  30.8794400   3.0342210  69.4361820  24.5753770
   2.9056840  69.4279720  25.5238690   2.2104230  69.7744910  24.2244780
  10.7095120  82.6062860  30.0501000  11.3517350  81.9056020  30.1633170
  11.2344470  83.3861300  29.8697890  14.5550840  82.8911480  19.7740140
  14.3288420  82.1741920  20.3664780  14.1647040  82.6423920  18.9361890
  12.4832740  83.4057760  33.2537060  12.8188980  83.9924450  33.9314980
  11.5633080  83.2750470  33.4834850  14.1367090  80.8083420  21.4354300
  13.8488790  81.2696110  22.2232180  14.9319260  80.3481190  21.7038520
   8.3121320  83.4549090  36.4225120   7.9918190  82.7358330  36.9670810
   7.6379680  84.1304160  36.4961180   6.3535490  84.3009540  21.3658270
   6.3445590  85.0339230  20.7502780   5.4333850  84.0541120  21.4585230
  11.5274920  73.6875250  31.7861920  11.8955740  72.8670460  32.1141490
  10.6673120  73.7477140  32.2017570  14.8936950  72.6432190  22.5949480
  14.2650110  72.7477860  21.8807710  14.3988870  72.8628970  23.3843360
   9.3395090  84.3637780  20.0283460   9.4407070  84.1601770  19.0985440
   8.4396830  84.1096060  20.2331240   6.8620980  74.9218140  24.0107360
   6.1537130  75.3904480  24.4520970   7.1465460  74.2640150  24.6452550
   8.4876910  76.3414840  32.0099890   8.9862160  76.8160660  32.6751740
   8.6299860  75.4178360  32.2169920  10.8936410  71.6468800  25.4503150
  10.7704190  71.6654930  24.5012660  11.8420970  71.6947740  25.5701550
   7.9813200  86.8824100  24.7231130   8.2354700  86.8445490  23.8010500
   7.0325680  86.7557430  24.7159380   5.0656000  73.2303220  21.3858070
   5.9146530  73.6673370  21.3198260   4.6987270  73.5423480  22.2130130
  15.6943770  72.5582800  32.8528280  15.1917370  73.2988200  33.1922090
  16.5100430  72.9466800  32.5365070  13.9865780  77.8015980  26.2989640
  13.0455920  77.8166210  26.4737330  14.3009850  77.0151940  26.7449940
   3.9647420  79.4835580  19.8593600   4.7310690  79.3716940  20.4219030
   4.0422110  78.7873550  19.2070370   2.6594180  76.9160650  20.5426490
   2.7397770  75.9688160  20.6543890   3.5513930  77.2467530  20.6487150
  15.9891360  84.9724830  27.9743900  16.1138780  85.7956000  28.4467710
  16.8556920  84.7615560  27.6268050   3.4608890  87.0656040  27.6461030
   4.1971370  86.5171500  27.9169600   3.8449810  87.9312050  27.5067020
   2.4667170  86.2502110  36.8346610   3.2679900  86.5714160  37.2482010
   1.9518990  85.8897690  37.5566520   6.5711200  86.2386350  19.4686600
   7.3639810  86.5275180  19.0168390   6.0515550  85.8078520  18.7899080
  11.3031800  82.3581980  36.7822020  10.6969960  82.3813580  36.0417770
  10.9985910  81.6265020  37.3189270  12.7332170  86.0862270  35.3931430
  13.6853920  86.0020290  35.3431670  12.5860390  86.7503980  36.0665220
  15.6241370  85.4656480  20.8923340  15.3382880  85.0521620  20.0777520
  15.4260920  86.3944190  20.7723860   7.0888600  81.4589760  19.3328950
   6.9839240  80.8442110  20.0590330   6.9212820  80.9355650  18.5491960
   7.2402920  80.1446560  35.3118180   6.4748590  80.7131560  35.2272850
   7.4218880  79.8522770  34.4186410  10.3291330  80.5209790  19.9370940
   9.7801430  80.9679090  20.5813680  10.9510590  80.0159040  20.4608610
  14.3826270  81.8751890  35.8693200  15.1235740  82.2127650  35.3660660
  13.6198950  82.0443950  35.3162970   2.2188060  76.8805160  36.6732730
   2.2593400  76.5819030  37.5817960   3.0733560  77.2812770  36.5140250
   5.9966450  79.4800710  21.8336240   6.4182870  79.3140580  22.6767630
   6.1217290  78.6700940  21.3391380   4.1593870  75.4597260  34.6407220
   3.6290330  74.9688210  34.0130560   4.8281940  75.8881460  34.1065150
   8.5094090  78.5038320  19.0813340   9.0299750  77.7887340  18.7154490
   9.1562490  79.1424190  19.3813850  13.0571930  79.9266720  34.4048410
  13.4712950  80.0811800  35.2538830  12.1222930  80.0521940  34.5674190
  13.5294100  77.2662880  36.4087560  14.1114870  76.5115200  36.3208040
  13.7055870  77.7970320  35.6319040   4.6466170  72.4259630  34.7204510
   4.5523040  71.8080380  33.9955380   4.0663560  73.1525920  34.4934420
   7.4127610  70.9832870  31.7531900   6.9644910  71.0057130  30.9077450
   6.7792810  70.5851890  32.3502200   7.8187160  79.8787200  32.3744340
   8.2375270  80.7219930  32.2020580   6.8995790  80.0159240  32.1451120
  10.1551060  77.6103380  33.7582180  10.2747270  77.0144520  34.4977020
  11.0145060  77.6473070  33.3383480  12.4938960  78.1640570  32.3344690
  11.9674180  78.6883190  31.7309830  12.8370300  78.7967960  32.9654420
   4.8925350  75.5533940  18.7794400   4.6914410  74.6901300  19.1407740
   4.7217400  75.4667300  17.8416000   5.6694580  86.1840210  33.4902070
   5.1315670  86.9086270  33.1710770   5.9228540  85.7070550  32.6999410
   6.9219830  74.1524730  35.0158000   7.5119520  73.8440580  35.7035820
   6.1040070  73.6804480  35.1717900  11.7413260  73.7690540  35.2491020
  11.0528780  73.1072080  35.1841010  12.4619280  73.3228810  35.6939480
  12.3713660  70.3642170  21.3081280  12.6515950  69.5210070  21.6640700
  11.5979390  70.5965280  21.8220030   3.6908150  72.6534560  18.7672280
   3.9934050  72.6601990  17.8591430   4.4302740  72.3032420  19.2639940
   8.5256790  87.4191420  33.7488720   8.4515490  88.3226560  34.0561090
   7.6235630  87.1003320  33.7210790   6.9093080  71.5969180  19.7528480
   6.5615080  70.9193170  19.1730930   7.1105850  71.1358690  20.5671870
   9.0742120  86.5849930  21.3715080   9.9692910  86.9234900  21.3933840
   9.1059750  85.8629340  20.7439360   2.7138280  81.9576980  19.6002080
   3.1513150  82.5006650  20.2559660   3.1986010  81.1323930  19.6098420
   4.5246000  83.0775020  24.7124310   4.2241540  82.9539990  25.6128220
   4.4183490  82.2183610  24.3040040  16.0536470  85.1153600  34.0781280
  15.4538460  85.1746160  33.3345200  16.1830370  84.1758580  34.2078130
  17.2937920  82.8571420  19.4150990  16.4630880  82.9248070  19.8858220
  17.4709750  83.7475540  19.1117850  16.7494380  79.6018900  21.9185190
  17.5113290  80.1715550  22.0244880  16.7648750  79.0346100  22.6893500
  17.7554350  80.4569000  26.7627120  18.1263180  79.6736320  26.3563090
  18.3956280  81.1458100  26.5844420  14.7388110  81.8405580  32.1757440
  13.9247950  82.2702740  32.4383230  15.1462310  82.4523990  31.5626490
  16.8013550  79.8953270  19.0757710  17.0762390  80.8032150  18.9476930
  16.6124290  79.8315800  20.0119700  13.1989160  72.9198120  20.3711340
  13.6174040  72.7329100  19.5308000  12.8925220  72.0677170  20.6814270
  16.6978890  77.8322260  24.0687140  16.3222490  77.0650190  23.6368430
  15.9682010  78.2144960  24.5562070  16.0878510  76.9793780  33.7026660
  15.8564600  76.7506530  32.8024610  16.3483060  77.8993330  33.6571550
  14.5266580  72.2050210  36.4806360  15.4036760  72.2133610  36.8640360
  14.5387420  71.4681050  35.8698710  15.9729850  76.0579750  27.3694380
  16.4967330  75.5642400  26.7384550  16.5589270  76.1930110  28.1141950
  16.1519570  76.1419620  30.8913930  15.2022280  76.1083160  31.0058920
  16.3332580  77.0519730  30.6563700  15.4629820  75.3153100  23.3086790
  15.9588940  75.0823970  24.0935670  15.2645890  74.4764940  22.8924430
  16.8916980  73.9514050  25.8424470  16.7816260  73.7970090  26.7806740
  17.6524570  73.4234990  25.5999880  15.2382700  69.8908180  32.3007470
  15.8754920  70.5042320  32.6666660  15.3857590  69.9268840  31.3556700
  17.7807250  71.7821970  19.0830610  18.7056560  71.6503150  18.8748900
  17.7583040  71.8614790  20.0367060  17.8545740  72.5532630  21.7087320
  17.0597240  72.4877750  22.2380230  18.0589020  73.4883270  21.6972670
  14.7964160  86.5924180  25.7025710  15.3923230  86.2708750  25.0260130
  15.0542310  86.1196000  26.4938980   2.7026730  83.0242090  35.8516340
   2.6596360  82.6535000  36.7330800   2.8337740  83.9619660  35.9918160
   6.4032760  84.5801680  31.4526060   6.1624120  84.8476240  30.5656580
   7.3435400  84.7507410  31.5076920   8.6087180  71.0434370  35.2082570
   8.5476070  71.6356200  35.9577980   9.5487560  70.9360330  35.0632830
  11.2461740  70.7004430  34.8474860  11.8602150  71.0183720  34.1855940
  11.7911300  70.2153020  35.4670720  17.6636920  86.5996060  32.2536700
  17.1695200  86.9964930  31.5363830  17.0550210  85.9745270  32.6473980
   1.7683000  69.3798690  34.9613920   2.3165990  69.1986740  34.1980030
   1.8338310  68.5892800  35.4970230   2.5414760  85.9704340  32.9714120
   1.9475080  85.8389040  33.7104160   2.5338600  85.1342480  32.5056220
  11.9869780  69.2636570  31.1744150  11.1129620  69.5971680  30.9717080
  11.8780530  68.7909750  31.9996020  12.8941760  71.4707440  32.5585870
  12.5655120  70.6559200  32.1787600  13.8424060  71.4277250  32.4351560
  15.3476370  87.2419480  29.5323440  14.8879340  87.9935290  29.1581460
  14.7188830  86.5225950  29.4738240   5.7772090  85.5507720  28.7071570
   6.2937110  84.9395080  28.1819830   6.4269470  86.0536500  29.1982580
   8.5167590  86.4416210  29.5340550   8.8045400  86.1870510  28.6573560
   9.0290810  85.8893570  30.1246120   9.7344600  70.1806410  30.1137060
   8.9516390  70.6551910  30.3933820   9.4407530  69.2761240  30.0050240
  14.2865670  70.8829510  28.1586150  14.7273760  70.8274610  27.3107750
  14.0173260  71.7987520  28.2296330  16.1504240  70.5144750  26.1694970
  16.0892640  69.5705970  26.0225990  16.9296270  70.6224840  26.7148430
   7.6198820  72.5993160  25.6253090   6.8073330  72.2250050  25.2848970
   8.1240460  71.8438240  25.9274280  12.1223800  69.2635610  26.8636160
  12.7253170  69.8355820  27.3384680  11.3816790  69.8275050  26.6410060
  15.2658400  69.6657170  22.1376440  15.4609030  70.5640620  22.4043870
  14.4788270  69.4344250  22.6309390   3.4510160  71.0117940  21.1752750
   3.9802920  70.2247740  21.0460700   4.0838480  71.6909130  21.4088280
   5.6448000  70.7493080  24.2298140   5.0150740  70.0480390  24.3968270
   5.1053140  71.5097210  24.0131300   8.5839950  87.3632310  36.9008750
   9.5107260  87.1276580  36.9444710   8.5690380  88.1904310  36.4194780
  16.8185010  86.9057880  23.8983000  16.9937200  86.2195620  23.2543920
  16.1206580  87.4304930  23.5059670   5.7703560  70.0277060  36.6650630
   5.4887830  70.5310660  35.9011450   6.1523260  69.2298810  36.2992760
   4.6612660  87.2952720  21.4518310   5.3931480  87.0112000  20.9042200
   4.9206330  87.0566000  22.3417690   3.8227450  83.4117450  21.4564640
   3.1936330  83.8802550  22.0050470   3.9375280  82.5666670  21.8910830
  12.3719020  69.4430640  37.2431100  12.2584470  69.7625250  38.1382620
  13.1888760  69.8443150  36.9468380  15.1517510  86.5902170  36.7249790
  15.9442830  86.0951400  36.5175750  15.4450660  87.2692310  37.3325400
  11.2777170  77.4623110   7.6065840  11.1971220  76.5477720   7.3357550
  10.8641590  77.9590180   6.9005550   9.4095210  79.2402130   9.4875110
   8.6337310  78.7602570   9.7773680  10.0608140  78.5607780   9.3131270
   3.4261040  79.5521940  10.3650870   2.5945920  79.2970650  10.7647380
   4.0342020  79.6232710  11.1008790  13.4302640  83.6462320   8.2674240
  12.9684170  82.8749560   8.5961410  14.2428190  83.6728390   8.7726690
   3.4062300  83.5862030  10.5608890   3.7090340  82.6959770  10.3819110
   4.1505890  84.1432250  10.3331140   9.6565950  85.9320330   7.8878230
   9.0377390  86.3877830   7.3172670  10.5117730  86.0871790   7.4867930
   8.8504200  81.9159320   9.4945270   8.7812480  80.9749260   9.3334400
   9.6124060  82.0060730  10.0667840   9.8809370  74.7229700   9.7214200
  10.2574190  73.8501580   9.6087870   9.7828880  75.0588400   8.8304640
   4.0114380  73.0955330   5.1831640   4.1181130  73.9959060   5.4900400
   3.1006740  73.0473300   4.8926290  13.6633490  72.2180140   6.6542540
  14.4843110  71.7276710   6.6968020  13.6967570  72.8077800   7.4074380
   5.8522110  76.0641700   9.5156820   6.3600330  76.5622670  10.1561840
   6.3835350  75.2876900   9.3396180  17.9533040  74.2346890  13.2186170
  17.2485210  74.6228600  12.7001280  18.2190960  74.9297180  13.8207100
   4.1358210  70.7040260  13.7820240   4.1376650  71.2212650  12.9766140
   3.3062520  70.2270440  13.7590170  10.5229300  80.8159570   5.2810140
   9.9046570  81.2809020   4.7172860  11.0352550  81.5087050   5.6979650
   5.3861060  80.3435440  11.9593740   5.0530440  80.9704360  12.6014810
   5.5627740  80.8697320  11.1795410  13.8994970  74.1580520   9.4270080
  13.1950540  74.4465410  10.0073190  14.2607130  74.9680630   9.0669640
   3.8173540  72.4150220  11.7890690   4.1590350  73.2592270  11.4944560
   2.8789350  72.5633960  11.9056030   4.5980160  82.3116240  13.7742920
   5.2154160  82.9867320  13.4927370   3.7373280  82.7204220  13.6830420
  15.5157750  83.7755650  11.6897560  14.8321270  84.4454760  11.6814230
  16.0552040  83.9736300  10.9242420  16.9681890  73.6035310   9.8179290
  16.0206800  73.6374290   9.9494720  17.2931880  74.4174260  10.2028650
   7.5001430  69.9032490   8.1135280   7.8076410  69.3479380   7.3970780
   6.5702130  70.0376950   7.9308270  13.0516490  85.6199780  10.4042740
  13.0643650  85.2162070   9.5365000  12.4991710  86.3947070  10.3004170
  14.3461910  82.3416000   5.4932910  14.2358240  81.3990330   5.6182330
  14.3430160  82.7031640   6.3795670  12.4501930  80.5229620  11.7325350
  12.8670720  80.3089730  10.8978810  13.1741750  80.7802410  12.3033970
   9.8882190  77.9681320   4.8495400   8.9611470  77.9018700   5.0783870
  10.0407010  78.9061450   4.7350640  16.3964030  78.9216840  11.8241590
  15.5682660  78.9909930  11.3491720  16.9914510  79.5071150  11.3557420
  13.9179480  79.5301620   5.3530650  13.2991900  79.1921170   4.7056950
  13.9003930  78.8861380   6.0609840  13.3606040  75.7086160  12.7696460
  12.9477220  76.5339870  13.0236450  12.6281990  75.1231200  12.5772820
   5.4938830  78.4946060   7.6315130   5.0895830  77.7823310   7.1361030
   5.5801950  78.1499300   8.5203170   5.9620530  82.1813620   9.7954340
   5.6648820  81.5759090   9.1162120   6.9120350  82.2190930   9.6843700
   4.2067450  75.2689270  11.4114170   4.7582040  75.3784610  10.6367420
   4.7210960  75.6426870  12.1269400  14.0506140  85.7545490  13.4577440
  13.5736700  86.5617680  13.2650050  13.3667930  85.1023820  13.6103650
   5.0538960  81.9195310  16.4462140   4.1567490  82.1435280  16.6935540
   5.0791830  82.0430250  15.4973540  12.0944180  78.7688430   2.3603400
  12.5337460  77.9310860   2.2141220  12.8072600  79.4017830   2.4467540
   3.8810180  78.7908630  15.0219510   3.7417950  79.6631430  15.3906910
   2.9991540  78.4481440  14.8767450  10.2039560  83.7084500   6.3284640
  10.6435470  84.4508830   5.9140030  10.1426450  83.9511070   7.2523600
   5.6790530  84.7330330  17.2304660   5.6505960  85.1373280  16.3633090
   5.5155500  83.8040690  17.0676260   2.1943460  77.3891040   5.1321780
   2.0741060  78.1153130   4.5203050   1.8844350  76.6193950   4.6549690
  17.6305350  85.5157430  18.5268830  18.1065070  85.9940320  19.2057910
  18.2512510  85.4474920  17.8014330  17.0338600  82.7070280  15.6868840
  17.1601660  82.4682160  14.7686020  17.0759980  81.8754820  16.1590920
  10.8955340  86.4098280  14.2563650  11.4100010  86.3206290  15.0586080
  10.0524420  86.7557980  14.5491560  12.8709740  86.6953620   3.6847650
  12.7110880  86.4056560   4.5829480  12.7056450  85.9193750   3.1492880
   5.3498120  86.4752150   5.4619270   5.1740600  85.5587690   5.2487070
   4.4953860  86.8339440   5.7017070  12.1385800  85.8303890   6.3194140
  12.5942750  85.0493270   6.6332760  12.4778320  86.5410710   6.8635320
  16.8862610  74.7602740  16.6518580  16.2706880  75.2682410  16.1234040
  16.5659030  73.8601070  16.5944520   4.6607120  70.7326110   8.5145450
   4.2175270  71.5135650   8.1829970   5.2192110  71.0556000   9.2216390
   8.9476930  73.5994630  14.1180770   8.4856300  73.8077650  14.9300710
   8.5455040  72.7853980  13.8151440  13.9481440  74.8203580  15.2477430
  13.0975030  74.5209330  15.5686500  13.7883230  75.0645590  14.3361250
  11.0431150  76.3205330  17.3476220  11.3684560  75.4869080  17.0078450
  11.8311480  76.8433850  17.4954550   7.7765940  70.3536810   3.3951280
   7.1520120  70.3496680   4.1204590   7.6896060  69.4867770   2.9987250
   6.6983020  71.2773440  10.3735050   6.9955350  72.1836270  10.2927070
   7.2468580  70.7892220   9.7594620   4.4521340  75.8559680   6.2426700
   4.2262260  75.6396850   7.1473320   3.6713870  76.2888140   5.8972670
  11.6819100  75.8623050   4.8417350  11.0827990  76.5858850   4.6580970
  12.2298710  75.7999830   4.0593800   6.8920550  76.7545260  16.9086970
   6.7964150  75.8139990  16.7587370   7.7352530  76.9760330  16.5135040
  10.2883970  74.4986590   6.8720630  10.6813540  74.8158790   6.0589320
  10.6500820  73.6198470   6.9865150   8.5976140  73.2493900  18.1317490
   7.9074460  73.0566100  18.7663580   9.3408440  73.5328540  18.6641790
  10.8739110  77.0892340  10.9671410  10.1420230  77.5979150  11.3161510
  10.4763450  76.2722320  10.6660190   7.3116500  73.7646540   9.3723900
   7.3152560  73.3236490   8.5228440   8.2067620  74.0863870   9.4795720
   3.1618880  73.6473030   8.3318110   2.8218930  74.1248260   9.0885160
   2.3996200  73.1938150   7.9719210   7.3736650  74.7658620   2.3630660
   7.4949470  74.7245100   3.3116480   6.9885160  75.6282770   2.2077390
  11.3365020  72.5426020  10.3794350  11.3537760  72.9934670  11.2236200
  11.0880600  71.6431660  10.5927790  14.7635770  69.9558200  16.2180730
  15.0881540  69.2247860  16.7438710  14.7992280  69.6371840  15.3161720
   7.6124470  77.8248320  11.1189310   7.9794600  77.3506890  11.8650650
   7.4229530  78.6989890  11.4597650   5.4023840  76.8656960  13.4373520
   5.0980910  77.7448940  13.6623880   6.3570300  76.9256750  13.4730960
   3.9305630  81.0717950   4.0340370   3.1567890  80.5315570   3.8739090
   4.6600260  80.5524560   3.6958130  14.6893610  80.0683310   9.8266760
  15.4092730  80.5638600   9.4362870  14.4875430  79.3901200   9.1820630
  10.1503550  71.4621270   3.9696150   9.3368160  70.9634440   3.8941460
   9.9565500  72.3019520   3.5532500  10.0712410  80.1392370  15.7135760
  10.0049720  79.2188040  15.4593350   9.4417550  80.2367810  16.4280400
  12.8651940  75.8340920   2.2658310  13.7531560  76.1458150   2.0909650
  12.8357030  74.9613170   1.8738890   3.9743030  80.7398330   7.6719180
   4.4921700  79.9366590   7.6176070   3.5227050  80.6777470   8.5136010
   8.8612530  82.0064610   2.9446480   9.2028230  82.7506840   2.4489800
   8.0325240  82.3195730   3.3071310   4.6600690  78.1643940  17.4684430
   4.3600830  78.3101120  16.5712250   5.4311930  77.6049230  17.3757820
  10.0029140  82.9612940  15.4639560  10.0173680  82.0293900  15.2458470
   9.2954240  83.0472700  16.1029330  16.2140350  79.6020280  14.8108140
  15.4888540  80.1949060  14.6137530  16.7415810  79.5943820  14.0121510
  16.1653460  83.9995020   4.4620300  15.5229620  83.3450640   4.7364020
  15.7784120  84.4050110   3.6860970  11.7439940  81.3280450   8.3091990
  12.0963760  80.7308580   7.6493360  10.8602270  81.0024680   8.4800240
   7.8303220  82.0878140   5.7162400   8.5174350  82.6347350   6.0969990
   7.0435640  82.6318870   5.7512010   7.1330430  79.0924170   5.3287760
   7.5893210  79.9029420   5.5547950   6.7818640  78.7747310   6.1606250
   9.4363040  84.6030510  12.5580060  10.0805260  84.8089890  13.2353480
   9.7992480  83.8418910  12.1050910   3.0342210  69.4361820   5.8010280
   2.9056840  69.4279720   6.7495200   2.2104230  69.7744910   5.4501290
  10.7095120  82.6062860  11.2757510  11.3517350  81.9056020  11.3889680
  11.2344470  83.3861300  11.0954400  12.4832740  83.4057760  14.4793570
  12.8188980  83.9924450  15.1571490  11.5633080  83.2750470  14.7091360
  14.1367090  80.8083420   2.6610810  13.8488790  81.2696110   3.4488690
  14.9319260  80.3481190   2.9295030   8.3121320  83.4549090  17.6481630
   7.9918190  82.7358330  18.1927320   7.6379680  84.1304160  17.7217690
   6.3535490  84.3009540   2.5914780   6.3445590  85.0339230   1.9759290
   5.4333850  84.0541120   2.6841740  11.5274920  73.6875250  13.0118430
  11.8955740  72.8670460  13.3398000  10.6673120  73.7477140  13.4274080
  14.8936950  72.6432190   3.8205990  14.2650110  72.7477860   3.1064220
  14.3988870  72.8628970   4.6099870   6.8620980  74.9218140   5.2363870
   6.1537130  75.3904480   5.6777480   7.1465460  74.2640150   5.8709060
   8.4876910  76.3414840  13.2356400   8.9862160  76.8160660  13.9008250
   8.6299860  75.4178360  13.4426430  10.8936410  71.6468800   6.6759660
  10.7704190  71.6654930   5.7269170  11.8420970  71.6947740   6.7958060
   7.9813200  86.8824100   5.9487640   8.2354700  86.8445490   5.0267010
   7.0325680  86.7557430   5.9415890   5.0656000  73.2303220   2.6114580
   5.9146530  73.6673370   2.5454770   4.6987270  73.5423480   3.4386640
  15.6943770  72.5582800  14.0784790  15.1917370  73.2988200  14.4178600
  16.5100430  72.9466800  13.7621580  13.9865780  77.8015980   7.5246150
  13.0455920  77.8166210   7.6993840  14.3009850  77.0151940   7.9706450
   2.6594180  76.9160650   1.7683000   2.7397770  75.9688160   1.8800400
   3.5513930  77.2467530   1.8743660  15.9891360  84.9724830   9.2000410
  16.1138780  85.7956000   9.6724220  16.8556920  84.7615560   8.8524560
   3.4608890  87.0656040   8.8717540   4.1971370  86.5171500   9.1426110
   3.8449810  87.9312050   8.7323530   2.4667170  86.2502110  18.0603120
   3.2679900  86.5714160  18.4738520   1.9518990  85.8897690  18.7823030
  11.3031800  82.3581980  18.0078530  10.6969960  82.3813580  17.2674280
  10.9985910  81.6265020  18.5445780  12.7332170  86.0862270  16.6187940
  13.6853920  86.0020290  16.5688180  12.5860390  86.7503980  17.2921730
   7.2402920  80.1446560  16.5374690   6.4748590  80.7131560  16.4529360
   7.4218880  79.8522770  15.6442920  14.3826270  81.8751890  17.0949710
  15.1235740  82.2127650  16.5917170  13.6198950  82.0443950  16.5419480
   2.2188060  76.8805160  17.8989240   2.2593400  76.5819030  18.8074470
   3.0733560  77.2812770  17.7396760   5.9966450  79.4800710   3.0592750
   6.4182870  79.3140580   3.9024140   6.1217290  78.6700940   2.5647890
   4.1593870  75.4597260  15.8663730   3.6290330  74.9688210  15.2387070
   4.8281940  75.8881460  15.3321660  13.0571930  79.9266720  15.6304920
  13.4712950  80.0811800  16.4795340  12.1222930  80.0521940  15.7930700
  13.5294100  77.2662880  17.6344070  14.1114870  76.5115200  17.5464550
  13.7055870  77.7970320  16.8575550   4.6466170  72.4259630  15.9461020
   4.5523040  71.8080380  15.2211890   4.0663560  73.1525920  15.7190930
   7.4127610  70.9832870  12.9788410   6.9644910  71.0057130  12.1333960
   6.7792810  70.5851890  13.5758710   7.8187160  79.8787200  13.6000850
   8.2375270  80.7219930  13.4277090   6.8995790  80.0159240  13.3707630
  10.1551060  77.6103380  14.9838690  10.2747270  77.0144520  15.7233530
  11.0145060  77.6473070  14.5639990  12.4938960  78.1640570  13.5601200
  11.9674180  78.6883190  12.9566340  12.8370300  78.7967960  14.1910930
   5.6694580  86.1840210  14.7158580   5.1315670  86.9086270  14.3967280
   5.9228540  85.7070550  13.9255920   6.9219830  74.1524730  16.2414510
   7.5119520  73.8440580  16.9292330   6.1040070  73.6804480  16.3974410
  11.7413260  73.7690540  16.4747530  11.0528780  73.1072080  16.4097520
  12.4619280  73.3228810  16.9195990  12.3713660  70.3642170   2.5337790
  12.6515950  69.5210070   2.8897210  11.5979390  70.5965280   3.0476540
   8.5256790  87.4191420  14.9745230   8.4515490  88.3226560  15.2817600
   7.6235630  87.1003320  14.9467300   9.0742120  86.5849930   2.5971590
   9.9692910  86.9234900   2.6190350   9.1059750  85.8629340   1.9695870
   4.5246000  83.0775020   5.9380820   4.2241540  82.9539990   6.8384730
   4.4183490  82.2183610   5.5296550  16.0536470  85.1153600  15.3037790
  15.4538460  85.1746160  14.5601710  16.1830370  84.1758580  15.4334640
  16.7494380  79.6018900   3.1441700  17.5113290  80.1715550   3.2501390
  16.7648750  79.0346100   3.9150010  17.7554350  80.4569000   7.9883630
  18.1263180  79.6736320   7.5819600  18.3956280  81.1458100   7.8100930
  14.7388110  81.8405580  13.4013950  13.9247950  82.2702740  13.6639740
  15.1462310  82.4523990  12.7883000  16.6978890  77.8322260   5.2943650
  16.3222490  77.0650190   4.8624940  15.9682010  78.2144960   5.7818580
  16.0878510  76.9793780  14.9283170  15.8564600  76.7506530  14.0281120
  16.3483060  77.8993330  14.8828060  14.5266580  72.2050210  17.7062870
  15.4036760  72.2133610  18.0896870  14.5387420  71.4681050  17.0955220
  15.9729850  76.0579750   8.5950890  16.4967330  75.5642400   7.9641060
  16.5589270  76.1930110   9.3398460  16.1519570  76.1419620  12.1170440
  15.2022280  76.1083160  12.2315430  16.3332580  77.0519730  11.8820210
  15.4629820  75.3153100   4.5343300  15.9588940  75.0823970   5.3192180
  15.2645890  74.4764940   4.1180940  16.8916980  73.9514050   7.0680980
  16.7816260  73.7970090   8.0063250  17.6524570  73.4234990   6.8256390
  15.2382700  69.8908180  13.5263980  15.8754920  70.5042320  13.8923170
  15.3857590  69.9268840  12.5813210  17.8545740  72.5532630   2.9343830
  17.0597240  72.4877750   3.4636740  18.0589020  73.4883270   2.9229180
  14.7964160  86.5924180   6.9282220  15.3923230  86.2708750   6.2516640
  15.0542310  86.1196000   7.7195490   2.7026730  83.0242090  17.0772850
   2.6596360  82.6535000  17.9587310   2.8337740  83.9619660  17.2174670
   6.4032760  84.5801680  12.6782570   6.1624120  84.8476240  11.7913090
   7.3435400  84.7507410  12.7333430   8.6087180  71.0434370  16.4339080
   8.5476070  71.6356200  17.1834490   9.5487560  70.9360330  16.2889340
  11.2461740  70.7004430  16.0731370  11.8602150  71.0183720  15.4112450
  11.7911300  70.2153020  16.6927230  17.6636920  86.5996060  13.4793210
  17.1695200  86.9964930  12.7620340  17.0550210  85.9745270  13.8730490
   1.7683000  69.3798690  16.1870430   2.3165990  69.1986740  15.4236540
   1.8338310  68.5892800  16.7226740   2.5414760  85.9704340  14.1970630
   1.9475080  85.8389040  14.9360670   2.5338600  85.1342480  13.7312730
  11.9869780  69.2636570  12.4000660  11.1129620  69.5971680  12.1973590
  11.8780530  68.7909750  13.2252530  12.8941760  71.4707440  13.7842380
  12.5655120  70.6559200  13.4044110  13.8424060  71.4277250  13.6608070
  15.3476370  87.2419480  10.7579950  14.8879340  87.9935290  10.3837970
  14.7188830  86.5225950  10.6994750   5.7772090  85.5507720   9.9328080
   6.2937110  84.9395080   9.4076340   6.4269470  86.0536500  10.4239090
   8.5167590  86.4416210  10.7597060   8.8045400  86.1870510   9.8830070
   9.0290810  85.8893570  11.3502630   9.7344600  70.1806410  11.3393570
   8.9516390  70.6551910  11.6190330   9.4407530  69.2761240  11.2306750
  14.2865670  70.8829510   9.3842660  14.7273760  70.8274610   8.5364260
  14.0173260  71.7987520   9.4552840  16.1504240  70.5144750   7.3951480
  16.0892640  69.5705970   7.2482500  16.9296270  70.6224840   7.9404940
   7.6198820  72.5993160   6.8509600   6.8073330  72.2250050   6.5105480
   8.1240460  71.8438240   7.1530790  12.1223800  69.2635610   8.0892670
  12.7253170  69.8355820   8.5641190  11.3816790  69.8275050   7.8666570
  15.2658400  69.6657170   3.3632950  15.4609030  70.5640620   3.6300380
  14.4788270  69.4344250   3.8565900   3.4510160  71.0117940   2.4009260
   3.9802920  70.2247740   2.2717210   4.0838480  71.6909130   2.6344790
   5.6448000  70.7493080   5.4554650   5.0150740  70.0480390   5.6224780
   5.1053140  71.5097210   5.2387810   8.5839950  87.3632310  18.1265260
   9.5107260  87.1276580  18.1701220   8.5690380  88.1904310  17.6451290
  16.8185010  86.9057880   5.1239510  16.9937200  86.2195620   4.4800430
  16.1206580  87.4304930   4.7316180   5.7703560  70.0277060  17.8907140
   5.4887830  70.5310660  17.1267960   6.1523260  69.2298810  17.5249270
   4.6612660  87.2952720   2.6774820   5.3931480  87.0112000   2.1298710
   4.9206330  87.0566000   3.5674200   3.8227450  83.4117450   2.6821150
   3.1936330  83.8802550   3.2306980   3.9375280  82.5666670   3.1167340
  12.3719020  69.4430640  18.4687610  12.2584470  69.7625250  19.3639130
  13.1888760  69.8443150  18.1724890  15.1517510  86.5902170  17.9506300
  15.9442830  86.0951400  17.7432260  15.4450660  87.2692310  18.5581910
  11.2777170  58.6879620  45.1552820  11.1971220  57.7734230  44.8844530
  10.8641590  59.1846690  44.4492530   9.4095210  60.4658640  47.0362090
   8.6337310  59.9859080  47.3260660  10.0608140  59.7864290  46.8618250
   3.4261040  60.7778450  47.9137850   2.5945920  60.5227160  48.3134360
   4.0342020  60.8489220  48.6495770  13.4302640  64.8718830  45.8161220
  12.9684170  64.1006070  46.1448390  14.2428190  64.8984900  46.3213670
   3.4062300  64.8118540  48.1095870   3.7090340  63.9216280  47.9306090
   4.1505890  65.3688760  47.8818120   9.6565950  67.1576840  45.4365210
   9.0377390  67.6134340  44.8659650  10.5117730  67.3128300  45.0354910
   8.8504200  63.1415830  47.0432250   8.7812480  62.2005770  46.8821380
   9.6124060  63.2317240  47.6154820   9.8809370  55.9486210  47.2701180
  10.2574190  55.0758090  47.1574850   9.7828880  56.2844910  46.3791620
   4.0114380  54.3211840  42.7318620   4.1181130  55.2215570  43.0387380
   3.1006740  54.2729810  42.4413270  13.6633490  53.4436650  44.2029520
  14.4843110  52.9533220  44.2455000  13.6967570  54.0334310  44.9561360
   5.8522110  57.2898210  47.0643800   6.3600330  57.7879180  47.7048820
   6.3835350  56.5133410  46.8883160  17.9533040  55.4603400  50.7673150
  17.2485210  55.8485110  50.2488260  18.2190960  56.1553690  51.3694080
   4.1358210  51.9296770  51.3307220   4.1376650  52.4469160  50.5253120
   3.3062520  51.4526950  51.3077150  10.5229300  62.0416080  42.8297120
   9.9046570  62.5065530  42.2659840  11.0352550  62.7343560  43.2466630
   5.3861060  61.5691950  49.5080720   5.0530440  62.1960870  50.1501790
   5.5627740  62.0953830  48.7282390  13.8994970  55.3837030  46.9757060
  13.1950540  55.6721920  47.5560170  14.2607130  56.1937140  46.6156620
   3.8173540  53.6406730  49.3377670   4.1590350  54.4848780  49.0431540
   2.8789350  53.7890470  49.4543010   4.5980160  63.5372750  51.3229900
   5.2154160  64.2123830  51.0414350   3.7373280  63.9460730  51.2317400
  15.5157750  65.0012160  49.2384540  14.8321270  65.6711270  49.2301210
  16.0552040  65.1992810  48.4729400  16.9681890  54.8291820  47.3666270
  16.0206800  54.8630800  47.4981700  17.2931880  55.6430770  47.7515630
   7.5001430  51.1289000  45.6622260   7.8076410  50.5735890  44.9457760
   6.5702130  51.2633460  45.4795250  13.0516490  66.8456290  47.9529720
  13.0643650  66.4418580  47.0851980  12.4991710  67.6203580  47.8491150
  14.3461910  63.5672510  43.0419890  14.2358240  62.6246840  43.1669310
  14.3430160  63.9288150  43.9282650  12.4501930  61.7486130  49.2812330
  12.8670720  61.5346240  48.4465790  13.1741750  62.0058920  49.8520950
   9.8882190  59.1937830  42.3982380   8.9611470  59.1275210  42.6270850
  10.0407010  60.1317960  42.2837620   9.8751270  55.4654830  39.3949540
   8.9354940  55.6268790  39.4802000  10.1934530  56.1840510  38.8485530
  16.3964030  60.1473350  49.3728570  15.5682660  60.2166440  48.8978700
  16.9914510  60.7327660  48.9044400  13.9179480  60.7558130  42.9017630
  13.2991900  60.4177680  42.2543930  13.9003930  60.1117890  43.6096820
  13.3606040  56.9342670  50.3183440  12.9477220  57.7596380  50.5723430
  12.6281990  56.3487710  50.1259800   5.4938830  59.7202570  45.1802110
   5.0895830  59.0079820  44.6848010   5.5801950  59.3755810  46.0690150
   5.9620530  63.4070130  47.3441320   5.6648820  62.8015600  46.6649100
   6.9120350  63.4447440  47.2330680   4.2067450  56.4945780  48.9601150
   4.7582040  56.6041120  48.1854400   4.7210960  56.8683380  49.6756380
  14.0506140  66.9802000  51.0064420  13.5736700  67.7874190  50.8137030
  13.3667930  66.3280330  51.1590630  12.0944180  59.9944940  39.9090380
  12.5337460  59.1567370  39.7628200  12.8072600  60.6274340  39.9954520
   3.8810180  60.0165140  52.5706490   3.7417950  60.8887940  52.9393890
   2.9991540  59.6737950  52.4254430  10.2039560  64.9341010  43.8771620
  10.6435470  65.6765340  43.4627010  10.1426450  65.1767580  44.8010580
  15.6761320  51.2487750  38.2231420  15.3633980  51.3414580  39.1230490
  16.4373790  51.8268780  38.1728850   2.1943460  58.6147550  42.6808760
   2.0741060  59.3409640  42.0690030   1.8844350  57.8450460  42.2036670
  17.0338600  63.9326790  53.2355820  17.1601660  63.6938670  52.3173000
  17.0759980  63.1011330  53.7077900  10.8955340  67.6354790  51.8050630
  11.4100010  67.5462800  52.6073060  10.0524420  67.9814490  52.0978540
  12.8709740  67.9210130  41.2334630  12.7110880  67.6313070  42.1316460
  12.7056450  67.1450260  40.6979860   5.3498120  67.7008660  43.0106250
   5.1740600  66.7844200  42.7974050   4.4953860  68.0595950  43.2504050
  12.5735870  65.4297690  39.7932630  11.8801030  65.4274980  39.1334910
  13.3158730  65.0057010  39.3626800  12.1385800  67.0560400  43.8681120
  12.5942750  66.2749780  44.1819740  12.4778320  67.7667220  44.4122300
  16.8862610  55.9859250  54.2005560  16.2706880  56.4938920  53.6721020
  16.5659030  55.0857580  54.1431500   4.6607120  51.9582620  46.0632430
   4.2175270  52.7392160  45.7316950   5.2192110  52.2812510  46.7703370
   8.9476930  54.8251140  51.6667750   8.4856300  55.0334160  52.4787690
   8.5455040  54.0110490  51.3638420  13.9481440  56.0460090  52.7964410
  13.0975030  55.7465840  53.1173480  13.7883230  56.2902100  51.8848230
   7.7765940  51.5793320  40.9438260   7.1520120  51.5753190  41.6691570
   7.6896060  50.7124280  40.5474230   6.6983020  52.5029950  47.9222030
   6.9955350  53.4092780  47.8414050   7.2468580  52.0148730  47.3081600
   4.4521340  57.0816190  43.7913680   4.2262260  56.8653360  44.6960300
   3.6713870  57.5144650  43.4459650  11.6819100  57.0879560  42.3904330
  11.0827990  57.8115360  42.2067950  12.2298710  57.0256340  41.6080780
  10.2883970  55.7243100  44.4207610  10.6813540  56.0415300  43.6076300
  10.6500820  54.8454980  44.5352130  10.8739110  58.3148850  48.5158390
  10.1420230  58.8235660  48.8648490  10.4763450  57.4978830  48.2147170
   7.3116500  54.9903050  46.9210880   7.3152560  54.5493000  46.0715420
   8.2067620  55.3120380  47.0282700   3.1618880  54.8729540  45.8805090
   2.8218930  55.3504770  46.6372140   2.3996200  54.4194660  45.5206190
   7.3736650  55.9915130  39.9117640   7.4949470  55.9501610  40.8603460
   6.9885160  56.8539280  39.7564370  11.3365020  53.7682530  47.9281330
  11.3537760  54.2191180  48.7723180  11.0880600  52.8688170  48.1414770
   6.3858150  58.3016270  39.3100940   5.8175050  57.8534520  38.6836850
   7.0947150  58.6609050  38.7766090   7.6124470  59.0504830  48.6676290
   7.9794600  58.5763400  49.4137630   7.4229530  59.9246400  49.0084630
   5.4023840  58.0913470  50.9860500   5.0980910  58.9705450  51.2110860
   6.3570300  58.1513260  51.0217940   3.9305630  62.2974460  41.5827350
   3.1567890  61.7572080  41.4226070   4.6600260  61.7781070  41.2445110
  14.6893610  61.2939820  47.3753740  15.4092730  61.7895110  46.9849850
  14.4875430  60.6157710  46.7307610  10.1503550  52.6877780  41.5183130
   9.3368160  52.1890950  41.4428440   9.9565500  53.5276030  41.1019480
  10.0712410  61.3648880  53.2622740  10.0049720  60.4444550  53.0080330
   9.4417550  61.4624320  53.9767380  12.8651940  57.0597430  39.8145290
  13.7531560  57.3714660  39.6396630  12.8357030  56.1869680  39.4225870
   3.9743030  61.9654840  45.2206160   4.4921700  61.1623100  45.1663050
   3.5227050  61.9033980  46.0622990   8.8612530  63.2321120  40.4933460
   9.2028230  63.9763350  39.9976780   8.0325240  63.5452240  40.8558290
  10.0029140  64.1869450  53.0126540  10.0173680  63.2550410  52.7945450
   9.2954240  64.2729210  53.6516310  15.1366210  58.3709270  39.2825150
  15.0529930  58.8023490  38.4321590  15.8560400  58.8307620  39.7151970
  16.2140350  60.8276790  52.3595120  15.4888540  61.4205570  52.1624510
  16.7415810  60.8200330  51.5608490  16.1653460  65.2251530  42.0107280
  15.5229620  64.5707150  42.2851000  15.7784120  65.6306620  41.2347950
  11.7439940  62.5536960  45.8578970  12.0963760  61.9565090  45.1980340
  10.8602270  62.2281190  46.0287220   7.8303220  63.3134650  43.2649380
   8.5174350  63.8603860  43.6456970   7.0435640  63.8575380  43.2998990
   7.1330430  60.3180680  42.8774740   7.5893210  61.1285930  43.1034930
   6.7818640  60.0003820  43.7093230   9.4363040  65.8287020  50.1067040
  10.0805260  66.0346400  50.7840460   9.7992480  65.0675420  49.6537890
   3.0342210  50.6618330  43.3497260   2.9056840  50.6536230  44.2982180
   2.2104230  51.0001420  42.9988270  10.7095120  63.8319370  48.8244490
  11.3517350  63.1312530  48.9376660  11.2344470  64.6117810  48.6441380
  14.5550840  64.1167990  38.5483630  14.3288420  63.3998430  39.1408270
  14.1647040  63.8680430  37.7105380  12.4832740  64.6314270  52.0280550
  12.8188980  65.2180960  52.7058470  11.5633080  64.5006980  52.2578340
  14.1367090  62.0339930  40.2097790  13.8488790  62.4952620  40.9975670
  14.9319260  61.5737700  40.4782010   6.3535490  65.5266050  40.1401760
   6.3445590  66.2595740  39.5246270   5.4333850  65.2797630  40.2328720
  11.5274920  54.9131760  50.5605410  11.8955740  54.0926970  50.8884980
  10.6673120  54.9733650  50.9761060  14.8936950  53.8688700  41.3692970
  14.2650110  53.9734370  40.6551200  14.3988870  54.0885480  42.1586850
   9.3395090  65.5894290  38.8026950   9.4407070  65.3858280  37.8728930
   8.4396830  65.3352570  39.0074730   6.8620980  56.1474650  42.7850850
   6.1537130  56.6160990  43.2264460   7.1465460  55.4896660  43.4196040
   8.4876910  57.5671350  50.7843380   8.9862160  58.0417170  51.4495230
   8.6299860  56.6434870  50.9913410  10.8936410  52.8725310  44.2246640
  10.7704190  52.8911440  43.2756150  11.8420970  52.9204250  44.3445040
   7.9813200  68.1080610  43.4974620   8.2354700  68.0702000  42.5753990
   7.0325680  67.9813940  43.4902870   5.0656000  54.4559730  40.1601560
   5.9146530  54.8929880  40.0941750   4.6987270  54.7679990  40.9873620
  15.6943770  53.7839310  51.6271770  15.1917370  54.5244710  51.9665580
  16.5100430  54.1723310  51.3108560  13.9865780  59.0272490  45.0733130
  13.0455920  59.0422720  45.2480820  14.3009850  58.2408450  45.5193430
   3.9647420  60.7092090  38.6337090   4.7310690  60.5973450  39.1962520
   4.0422110  60.0130060  37.9813860   2.6594180  58.1417160  39.3169980
   2.7397770  57.1944670  39.4287380   3.5513930  58.4724040  39.4230640
  15.9891360  66.1981340  46.7487390  16.1138780  67.0212510  47.2211200
  16.8556920  65.9872070  46.4011540   3.4608890  68.2912550  46.4204520
   4.1971370  67.7428010  46.6913090   3.8449810  69.1568560  46.2810510
   6.5711200  67.4642860  38.2430090   7.3639810  67.7531690  37.7911880
   6.0515550  67.0335030  37.5642570  15.6241370  66.6912990  39.6666830
  15.3382880  66.2778130  38.8521010  15.4260920  67.6200700  39.5467350
   7.0888600  62.6846270  38.1072440   6.9839240  62.0698620  38.8333820
   6.9212820  62.1612160  37.3235450   7.2402920  61.3703070  54.0861670
   6.4748590  61.9388070  54.0016340   7.4218880  61.0779280  53.1929900
  10.3291330  61.7466300  38.7114430   9.7801430  62.1935600  39.3557170
  10.9510590  61.2415550  39.2352100   5.9966450  60.7057220  40.6079730
   6.4182870  60.5397090  41.4511120   6.1217290  59.8957450  40.1134870
   4.1593870  56.6853770  53.4150710   3.6290330  56.1944720  52.7874050
   4.8281940  57.1137970  52.8808640   8.5094090  59.7294830  37.8556830
   9.0299750  59.0143850  37.4897980   9.1562490  60.3680700  38.1557340
  13.0571930  61.1523230  53.1791900  13.4712950  61.3068310  54.0282320
  12.1222930  61.2778450  53.3417680   4.6466170  53.6516140  53.4948000
   4.5523040  53.0336890  52.7698870   4.0663560  54.3782430  53.2677910
   7.4127610  52.2089380  50.5275390   6.9644910  52.2313640  49.6820940
   6.7792810  51.8108400  51.1245690   7.8187160  61.1043710  51.1487830
   8.2375270  61.9476440  50.9764070   6.8995790  61.2415750  50.9194610
  10.1551060  58.8359890  52.5325670  10.2747270  58.2401030  53.2720510
  11.0145060  58.8729580  52.1126970  12.4938960  59.3897080  51.1088180
  11.9674180  59.9139700  50.5053320  12.8370300  60.0224470  51.7397910
   4.8925350  56.7790450  37.5537890   4.6914410  55.9157810  37.9151230
   4.7217400  56.6923810  36.6159490   5.6694580  67.4096720  52.2645560
   5.1315670  68.1342780  51.9454260   5.9228540  66.9327060  51.4742900
  12.3713660  51.5898680  40.0824770  12.6515950  50.7466580  40.4384190
  11.5979390  51.8221790  40.5963520   3.6908150  53.8791070  37.5415770
   3.9934050  53.8858500  36.6334920   4.4302740  53.5288930  38.0383430
   8.5256790  68.6447930  52.5232210   8.4515490  69.5483070  52.8304580
   7.6235630  68.3259830  52.4954280   6.9093080  52.8225690  38.5271970
   6.5615080  52.1449680  37.9474420   7.1105850  52.3615200  39.3415360
   9.0742120  67.8106440  40.1458570   9.9692910  68.1491410  40.1677330
   9.1059750  67.0885850  39.5182850   2.7138280  63.1833490  38.3745570
   3.1513150  63.7263160  39.0303150   3.1986010  62.3580440  38.3841910
   4.5246000  64.3031530  43.4867800   4.2241540  64.1796500  44.3871710
   4.4183490  63.4440120  43.0783530  16.0536470  66.3410110  52.8524770
  15.4538460  66.4002670  52.1088690  16.1830370  65.4015090  52.9821620
  17.2937920  64.0827930  38.1894480  16.4630880  64.1504580  38.6601710
  17.4709750  64.9732050  37.8861340  16.7494380  60.8275410  40.6928680
  17.5113290  61.3972060  40.7988370  16.7648750  60.2602610  41.4636990
  17.7554350  61.6825510  45.5370610  18.1263180  60.8992830  45.1306580
  18.3956280  62.3714610  45.3587910  14.7388110  63.0662090  50.9500930
  13.9247950  63.4959250  51.2126720  15.1462310  63.6780500  50.3369980
  16.8013550  61.1209780  37.8501200  17.0762390  62.0288660  37.7220420
  16.6124290  61.0572310  38.7863190  13.1989160  54.1454630  39.1454830
  13.6174040  53.9585610  38.3051490  12.8925220  53.2933680  39.4557760
  16.6978890  59.0578770  42.8430630  16.3222490  58.2906700  42.4111920
  15.9682010  59.4401470  43.3305560  16.0878510  58.2050290  52.4770150
  15.8564600  57.9763040  51.5768100  16.3483060  59.1249840  52.4315040
  15.9729850  57.2836260  46.1437870  16.4967330  56.7898910  45.5128040
  16.5589270  57.4186620  46.8885440  16.1519570  57.3676130  49.6657420
  15.2022280  57.3339670  49.7802410  16.3332580  58.2776240  49.4307190
  15.4629820  56.5409610  42.0830280  15.9588940  56.3080480  42.8679160
  15.2645890  55.7021450  41.6667920  16.8916980  55.1770560  44.6167960
  16.7816260  55.0226600  45.5550230  17.6524570  54.6491500  44.3743370
  15.2382700  51.1164690  51.0750960  15.8754920  51.7298830  51.4410150
  15.3857590  51.1525350  50.1300190  17.7807250  53.0078480  37.8574100
  18.7056560  52.8759660  37.6492390  17.7583040  53.0871300  38.8110550
  17.8545740  53.7789140  40.4830810  17.0597240  53.7134260  41.0123720
  18.0589020  54.7139780  40.4716160  14.7964160  67.8180690  44.4769200
  15.3923230  67.4965260  43.8003620  15.0542310  67.3452510  45.2682470
   6.4032760  65.8058190  50.2269550   6.1624120  66.0732750  49.3400070
   7.3435400  65.9763920  50.2820410  17.6636920  67.8252570  51.0280190
  17.1695200  68.2221440  50.3107320  17.0550210  67.2001780  51.4217470
   2.5414760  67.1960850  51.7457610   1.9475080  67.0645550  52.4847650
   2.5338600  66.3598990  51.2799710  11.9869780  50.4893080  49.9487640
  11.1129620  50.8228190  49.7460570  11.8780530  50.0166260  50.7739510
  12.8941760  52.6963950  51.3329360  12.5655120  51.8815710  50.9531090
  13.8424060  52.6533760  51.2095050  15.3476370  68.4675990  48.3066930
  14.8879340  69.2191800  47.9324950  14.7188830  67.7482460  48.2481730
   5.7772090  66.7764230  47.4815060   6.2937110  66.1651590  46.9563320
   6.4269470  67.2793010  47.9726070   8.5167590  67.6672720  48.3084040
   8.8045400  67.4127020  47.4317050   9.0290810  67.1150080  48.8989610
   9.7344600  51.4062920  48.8880550   8.9516390  51.8808420  49.1677310
   9.4407530  50.5017750  48.7793730  14.2865670  52.1086020  46.9329640
  14.7273760  52.0531120  46.0851240  14.0173260  53.0244030  47.0039820
  16.1504240  51.7401260  44.9438460  16.0892640  50.7962480  44.7969480
  16.9296270  51.8481350  45.4891920   7.6198820  53.8249670  44.3996580
   6.8073330  53.4506560  44.0592460   8.1240460  53.0694750  44.7017770
  12.1223800  50.4892120  45.6379650  12.7253170  51.0612330  46.1128170
  11.3816790  51.0531560  45.4153550  15.2658400  50.8913680  40.9119930
  15.4609030  51.7897130  41.1787360  14.4788270  50.6600760  41.4052880
   3.4510160  52.2374450  39.9496240   3.9802920  51.4504250  39.8204190
   4.0838480  52.9165640  40.1831770   5.6448000  51.9749590  43.0041630
   5.0150740  51.2736900  43.1711760   5.1053140  52.7353720  42.7874790
  16.8185010  68.1314390  42.6726490  16.9937200  67.4452130  42.0287410
  16.1206580  68.6561440  42.2803160   4.6612660  68.5209230  40.2261800
   5.3931480  68.2368510  39.6785690   4.9206330  68.2822510  41.1161180
   3.8227450  64.6373960  40.2308130   3.1936330  65.1059060  40.7793960
   3.9375280  63.7923180  40.6654320  11.2777170  58.6879620  26.3809330
  11.1971220  57.7734230  26.1101040  10.8641590  59.1846690  25.6749040
   9.4095210  60.4658640  28.2618600   8.6337310  59.9859080  28.5517170
  10.0608140  59.7864290  28.0874760   3.4261040  60.7778450  29.1394360
   2.5945920  60.5227160  29.5390870   4.0342020  60.8489220  29.8752280
  13.4302640  64.8718830  27.0417730  12.9684170  64.1006070  27.3704900
  14.2428190  64.8984900  27.5470180   3.4062300  64.8118540  29.3352380
   3.7090340  63.9216280  29.1562600   4.1505890  65.3688760  29.1074630
   9.6565950  67.1576840  26.6621720   9.0377390  67.6134340  26.0916160
  10.5117730  67.3128300  26.2611420   8.8504200  63.1415830  28.2688760
   8.7812480  62.2005770  28.1077890   9.6124060  63.2317240  28.8411330
   9.8809370  55.9486210  28.4957690  10.2574190  55.0758090  28.3831360
   9.7828880  56.2844910  27.6048130   4.0114380  54.3211840  23.9575130
   4.1181130  55.2215570  24.2643890   3.1006740  54.2729810  23.6669780
  13.6633490  53.4436650  25.4286030  14.4843110  52.9533220  25.4711510
  13.6967570  54.0334310  26.1817870   5.8522110  57.2898210  28.2900310
   6.3600330  57.7879180  28.9305330   6.3835350  56.5133410  28.1139670
  17.9533040  55.4603400  31.9929660  17.2485210  55.8485110  31.4744770
  18.2190960  56.1553690  32.5950590   4.1358210  51.9296770  32.5563730
   4.1376650  52.4469160  31.7509630   3.3062520  51.4526950  32.5333660
  10.5229300  62.0416080  24.0553630   9.9046570  62.5065530  23.4916350
  11.0352550  62.7343560  24.4723140   5.3861060  61.5691950  30.7337230
   5.0530440  62.1960870  31.3758300   5.5627740  62.0953830  29.9538900
  13.8994970  55.3837030  28.2013570  13.1950540  55.6721920  28.7816680
  14.2607130  56.1937140  27.8413130   3.8173540  53.6406730  30.5634180
   4.1590350  54.4848780  30.2688050   2.8789350  53.7890470  30.6799520
   4.5980160  63.5372750  32.5486410   5.2154160  64.2123830  32.2670860
   3.7373280  63.9460730  32.4573910  15.5157750  65.0012160  30.4641050
  14.8321270  65.6711270  30.4557720  16.0552040  65.1992810  29.6985910
  16.9681890  54.8291820  28.5922780  16.0206800  54.8630800  28.7238210
  17.2931880  55.6430770  28.9772140   7.5001430  51.1289000  26.8878770
   7.8076410  50.5735890  26.1714270   6.5702130  51.2633460  26.7051760
  13.0516490  66.8456290  29.1786230  13.0643650  66.4418580  28.3108490
  12.4991710  67.6203580  29.0747660  14.3461910  63.5672510  24.2676400
  14.2358240  62.6246840  24.3925820  14.3430160  63.9288150  25.1539160
  12.4501930  61.7486130  30.5068840  12.8670720  61.5346240  29.6722300
  13.1741750  62.0058920  31.0777460   9.8882190  59.1937830  23.6238890
   8.9611470  59.1275210  23.8527360  10.0407010  60.1317960  23.5094130
   9.8751270  55.4654830  20.6206050   8.9354940  55.6268790  20.7058510
  10.1934530  56.1840510  20.0742040  16.3964030  60.1473350  30.5985080
  15.5682660  60.2166440  30.1235210  16.9914510  60.7327660  30.1300910
  13.9179480  60.7558130  24.1274140  13.2991900  60.4177680  23.4800440
  13.9003930  60.1117890  24.8353330  13.3606040  56.9342670  31.5439950
  12.9477220  57.7596380  31.7979940  12.6281990  56.3487710  31.3516310
   5.4938830  59.7202570  26.4058620   5.0895830  59.0079820  25.9104520
   5.5801950  59.3755810  27.2946660   5.9620530  63.4070130  28.5697830
   5.6648820  62.8015600  27.8905610   6.9120350  63.4447440  28.4587190
   4.2067450  56.4945780  30.1857660   4.7582040  56.6041120  29.4110910
   4.7210960  56.8683380  30.9012890  14.0506140  66.9802000  32.2320930
  13.5736700  67.7874190  32.0393540  13.3667930  66.3280330  32.3847140
   5.0538960  63.1451820  35.2205630   4.1567490  63.3691790  35.4679030
   5.0791830  63.2686760  34.2717030  12.0944180  59.9944940  21.1346890
  12.5337460  59.1567370  20.9884710  12.8072600  60.6274340  21.2211030
   3.8810180  60.0165140  33.7963000   3.7417950  60.8887940  34.1650400
   2.9991540  59.6737950  33.6510940  10.2039560  64.9341010  25.1028130
  10.6435470  65.6765340  24.6883520  10.1426450  65.1767580  26.0267090
   5.6790530  65.9586840  36.0048150   5.6505960  66.3629790  35.1376580
   5.5155500  65.0297200  35.8419750  15.6761320  51.2487750  19.4487930
  15.3633980  51.3414580  20.3487000  16.4373790  51.8268780  19.3985360
   2.1943460  58.6147550  23.9065270   2.0741060  59.3409640  23.2946540
   1.8844350  57.8450460  23.4293180  17.6305350  66.7413940  37.3012320
  18.1065070  67.2196830  37.9801400  18.2512510  66.6731430  36.5757820
  17.0338600  63.9326790  34.4612330  17.1601660  63.6938670  33.5429510
  17.0759980  63.1011330  34.9334410  10.8955340  67.6354790  33.0307140
  11.4100010  67.5462800  33.8329570  10.0524420  67.9814490  33.3235050
  12.8709740  67.9210130  22.4591140  12.7110880  67.6313070  23.3572970
  12.7056450  67.1450260  21.9236370   5.3498120  67.7008660  24.2362760
   5.1740600  66.7844200  24.0230560   4.4953860  68.0595950  24.4760560
  12.5735870  65.4297690  21.0189140  11.8801030  65.4274980  20.3591420
  13.3158730  65.0057010  20.5883310  12.1385800  67.0560400  25.0937630
  12.5942750  66.2749780  25.4076250  12.4778320  67.7667220  25.6378810
  16.8862610  55.9859250  35.4262070  16.2706880  56.4938920  34.8977530
  16.5659030  55.0857580  35.3688010   4.6607120  51.9582620  27.2888940
   4.2175270  52.7392160  26.9573460   5.2192110  52.2812510  27.9959880
   8.9476930  54.8251140  32.8924260   8.4856300  55.0334160  33.7044200
   8.5455040  54.0110490  32.5894930  13.9481440  56.0460090  34.0220920
  13.0975030  55.7465840  34.3429990  13.7883230  56.2902100  33.1104740
  11.0431150  57.5461840  36.1219710  11.3684560  56.7125590  35.7821940
  11.8311480  58.0690360  36.2698040   7.7765940  51.5793320  22.1694770
   7.1520120  51.5753190  22.8948080   7.6896060  50.7124280  21.7730740
   6.6983020  52.5029950  29.1478540   6.9955350  53.4092780  29.0670560
   7.2468580  52.0148730  28.5338110   4.4521340  57.0816190  25.0170190
   4.2262260  56.8653360  25.9216810   3.6713870  57.5144650  24.6716160
  11.6819100  57.0879560  23.6160840  11.0827990  57.8115360  23.4324460
  12.2298710  57.0256340  22.8337290   6.8920550  57.9801770  35.6830460
   6.7964150  57.0396500  35.5330860   7.7352530  58.2016840  35.2878530
  10.2883970  55.7243100  25.6464120  10.6813540  56.0415300  24.8332810
  10.6500820  54.8454980  25.7608640   8.5976140  54.4750410  36.9060980
   7.9074460  54.2822610  37.5407070   9.3408440  54.7585050  37.4385280
  10.8739110  58.3148850  29.7414900  10.1420230  58.8235660  30.0905000
  10.4763450  57.4978830  29.4403680   7.3116500  54.9903050  28.1467390
   7.3152560  54.5493000  27.2971930   8.2067620  55.3120380  28.2539210
   3.1618880  54.8729540  27.1061600   2.8218930  55.3504770  27.8628650
   2.3996200  54.4194660  26.7462700   7.3736650  55.9915130  21.1374150
   7.4949470  55.9501610  22.0859970   6.9885160  56.8539280  20.9820880
  11.3365020  53.7682530  29.1537840  11.3537760  54.2191180  29.9979690
  11.0880600  52.8688170  29.3671280   6.3858150  58.3016270  20.5357450
   5.8175050  57.8534520  19.9093360   7.0947150  58.6609050  20.0022600
  14.7635770  51.1814710  34.9924220  15.0881540  50.4504370  35.5182200
  14.7992280  50.8628350  34.0905210   7.6124470  59.0504830  29.8932800
   7.9794600  58.5763400  30.6394140   7.4229530  59.9246400  30.2341140
   5.4023840  58.0913470  32.2117010   5.0980910  58.9705450  32.4367370
   6.3570300  58.1513260  32.2474450   3.9305630  62.2974460  22.8083860
   3.1567890  61.7572080  22.6482580   4.6600260  61.7781070  22.4701620
  14.6893610  61.2939820  28.6010250  15.4092730  61.7895110  28.2106360
  14.4875430  60.6157710  27.9564120  10.1503550  52.6877780  22.7439640
   9.3368160  52.1890950  22.6684950   9.9565500  53.5276030  22.3275990
  10.0712410  61.3648880  34.4879250  10.0049720  60.4444550  34.2336840
   9.4417550  61.4624320  35.2023890  12.8651940  57.0597430  21.0401800
  13.7531560  57.3714660  20.8653140  12.8357030  56.1869680  20.6482380
   3.9743030  61.9654840  26.4462670   4.4921700  61.1623100  26.3919560
   3.5227050  61.9033980  27.2879500   8.8612530  63.2321120  21.7189970
   9.2028230  63.9763350  21.2233290   8.0325240  63.5452240  22.0814800
   4.6600690  59.3900450  36.2427920   4.3600830  59.5357630  35.3455740
   5.4311930  58.8305740  36.1501310  10.0029140  64.1869450  34.2383050
  10.0173680  63.2550410  34.0201960   9.2954240  64.2729210  34.8772820
  15.1366210  58.3709270  20.5081660  15.0529930  58.8023490  19.6578100
  15.8560400  58.8307620  20.9408480  16.2140350  60.8276790  33.5851630
  15.4888540  61.4205570  33.3881020  16.7415810  60.8200330  32.7865000
  16.1653460  65.2251530  23.2363790  15.5229620  64.5707150  23.5107510
  15.7784120  65.6306620  22.4604460  11.7439940  62.5536960  27.0835480
  12.0963760  61.9565090  26.4236850  10.8602270  62.2281190  27.2543730
   7.8303220  63.3134650  24.4905890   8.5174350  63.8603860  24.8713480
   7.0435640  63.8575380  24.5255500   7.1330430  60.3180680  24.1031250
   7.5893210  61.1285930  24.3291440   6.7818640  60.0003820  24.9349740
   9.4363040  65.8287020  31.3323550  10.0805260  66.0346400  32.0096970
   9.7992480  65.0675420  30.8794400   3.0342210  50.6618330  24.5753770
   2.9056840  50.6536230  25.5238690   2.2104230  51.0001420  24.2244780
  10.7095120  63.8319370  30.0501000  11.3517350  63.1312530  30.1633170
  11.2344470  64.6117810  29.8697890  14.5550840  64.1167990  19.7740140
  14.3288420  63.3998430  20.3664780  14.1647040  63.8680430  18.9361890
  12.4832740  64.6314270  33.2537060  12.8188980  65.2180960  33.9314980
  11.5633080  64.5006980  33.4834850  14.1367090  62.0339930  21.4354300
  13.8488790  62.4952620  22.2232180  14.9319260  61.5737700  21.7038520
   8.3121320  64.6805600  36.4225120   7.9918190  63.9614840  36.9670810
   7.6379680  65.3560670  36.4961180   6.3535490  65.5266050  21.3658270
   6.3445590  66.2595740  20.7502780   5.4333850  65.2797630  21.4585230
  11.5274920  54.9131760  31.7861920  11.8955740  54.0926970  32.1141490
  10.6673120  54.9733650  32.2017570  14.8936950  53.8688700  22.5949480
  14.2650110  53.9734370  21.8807710  14.3988870  54.0885480  23.3843360
   9.3395090  65.5894290  20.0283460   9.4407070  65.3858280  19.0985440
   8.4396830  65.3352570  20.2331240   6.8620980  56.1474650  24.0107360
   6.1537130  56.6160990  24.4520970   7.1465460  55.4896660  24.6452550
   8.4876910  57.5671350  32.0099890   8.9862160  58.0417170  32.6751740
   8.6299860  56.6434870  32.2169920  10.8936410  52.8725310  25.4503150
  10.7704190  52.8911440  24.5012660  11.8420970  52.9204250  25.5701550
   7.9813200  68.1080610  24.7231130   8.2354700  68.0702000  23.8010500
   7.0325680  67.9813940  24.7159380   5.0656000  54.4559730  21.3858070
   5.9146530  54.8929880  21.3198260   4.6987270  54.7679990  22.2130130
  15.6943770  53.7839310  32.8528280  15.1917370  54.5244710  33.1922090
  16.5100430  54.1723310  32.5365070  13.9865780  59.0272490  26.2989640
  13.0455920  59.0422720  26.4737330  14.3009850  58.2408450  26.7449940
   3.9647420  60.7092090  19.8593600   4.7310690  60.5973450  20.4219030
   4.0422110  60.0130060  19.2070370   2.6594180  58.1417160  20.5426490
   2.7397770  57.1944670  20.6543890   3.5513930  58.4724040  20.6487150
  15.9891360  66.1981340  27.9743900  16.1138780  67.0212510  28.4467710
  16.8556920  65.9872070  27.6268050   3.4608890  68.2912550  27.6461030
   4.1971370  67.7428010  27.9169600   3.8449810  69.1568560  27.5067020
   2.4667170  67.4758620  36.8346610   3.2679900  67.7970670  37.2482010
   1.9518990  67.1154200  37.5566520   6.5711200  67.4642860  19.4686600
   7.3639810  67.7531690  19.0168390   6.0515550  67.0335030  18.7899080
  11.3031800  63.5838490  36.7822020  10.6969960  63.6070090  36.0417770
  10.9985910  62.8521530  37.3189270  12.7332170  67.3118780  35.3931430
  13.6853920  67.2276800  35.3431670  12.5860390  67.9760490  36.0665220
  15.6241370  66.6912990  20.8923340  15.3382880  66.2778130  20.0777520
  15.4260920  67.6200700  20.7723860   7.0888600  62.6846270  19.3328950
   6.9839240  62.0698620  20.0590330   6.9212820  62.1612160  18.5491960
   7.2402920  61.3703070  35.3118180   6.4748590  61.9388070  35.2272850
   7.4218880  61.0779280  34.4186410  10.3291330  61.7466300  19.9370940
   9.7801430  62.1935600  20.5813680  10.9510590  61.2415550  20.4608610
  14.3826270  63.1008400  35.8693200  15.1235740  63.4384160  35.3660660
  13.6198950  63.2700460  35.3162970   2.2188060  58.1061670  36.6732730
   2.2593400  57.8075540  37.5817960   3.0733560  58.5069280  36.5140250
   5.9966450  60.7057220  21.8336240   6.4182870  60.5397090  22.6767630
   6.1217290  59.8957450  21.3391380   4.1593870  56.6853770  34.6407220
   3.6290330  56.1944720  34.0130560   4.8281940  57.1137970  34.1065150
   8.5094090  59.7294830  19.0813340   9.0299750  59.0143850  18.7154490
   9.1562490  60.3680700  19.3813850  13.0571930  61.1523230  34.4048410
  13.4712950  61.3068310  35.2538830  12.1222930  61.2778450  34.5674190
  13.5294100  58.4919390  36.4087560  14.1114870  57.7371710  36.3208040
  13.7055870  59.0226830  35.6319040   4.6466170  53.6516140  34.7204510
   4.5523040  53.0336890  33.9955380   4.0663560  54.3782430  34.4934420
   7.4127610  52.2089380  31.7531900   6.9644910  52.2313640  30.9077450
   6.7792810  51.8108400  32.3502200   7.8187160  61.1043710  32.3744340
   8.2375270  61.9476440  32.2020580   6.8995790  61.2415750  32.1451120
  10.1551060  58.8359890  33.7582180  10.2747270  58.2401030  34.4977020
  11.0145060  58.8729580  33.3383480  12.4938960  59.3897080  32.3344690
  11.9674180  59.9139700  31.7309830  12.8370300  60.0224470  32.9654420
   4.8925350  56.7790450  18.7794400   4.6914410  55.9157810  19.1407740
   4.7217400  56.6923810  17.8416000   5.6694580  67.4096720  33.4902070
   5.1315670  68.1342780  33.1710770   5.9228540  66.9327060  32.6999410
   6.9219830  55.3781240  35.0158000   7.5119520  55.0697090  35.7035820
   6.1040070  54.9060990  35.1717900  11.7413260  54.9947050  35.2491020
  11.0528780  54.3328590  35.1841010  12.4619280  54.5485320  35.6939480
  12.3713660  51.5898680  21.3081280  12.6515950  50.7466580  21.6640700
  11.5979390  51.8221790  21.8220030   3.6908150  53.8791070  18.7672280
   3.9934050  53.8858500  17.8591430   4.4302740  53.5288930  19.2639940
   8.5256790  68.6447930  33.7488720   8.4515490  69.5483070  34.0561090
   7.6235630  68.3259830  33.7210790   6.9093080  52.8225690  19.7528480
   6.5615080  52.1449680  19.1730930   7.1105850  52.3615200  20.5671870
   9.0742120  67.8106440  21.3715080   9.9692910  68.1491410  21.3933840
   9.1059750  67.0885850  20.7439360   2.7138280  63.1833490  19.6002080
   3.1513150  63.7263160  20.2559660   3.1986010  62.3580440  19.6098420
   4.5246000  64.3031530  24.7124310   4.2241540  64.1796500  25.6128220
   4.4183490  63.4440120  24.3040040  16.0536470  66.3410110  34.0781280
  15.4538460  66.4002670  33.3345200  16.1830370  65.4015090  34.2078130
  17.2937920  64.0827930  19.4150990  16.4630880  64.1504580  19.8858220
  17.4709750  64.9732050  19.1117850  16.7494380  60.8275410  21.9185190
  17.5113290  61.3972060  22.0244880  16.7648750  60.2602610  22.6893500
  17.7554350  61.6825510  26.7627120  18.1263180  60.8992830  26.3563090
  18.3956280  62.3714610  26.5844420  14.7388110  63.0662090  32.1757440
  13.9247950  63.4959250  32.4383230  15.1462310  63.6780500  31.5626490
  16.8013550  61.1209780  19.0757710  17.0762390  62.0288660  18.9476930
  16.6124290  61.0572310  20.0119700  13.1989160  54.1454630  20.3711340
  13.6174040  53.9585610  19.5308000  12.8925220  53.2933680  20.6814270
  16.6978890  59.0578770  24.0687140  16.3222490  58.2906700  23.6368430
  15.9682010  59.4401470  24.5562070  16.0878510  58.2050290  33.7026660
  15.8564600  57.9763040  32.8024610  16.3483060  59.1249840  33.6571550
  14.5266580  53.4306720  36.4806360  15.4036760  53.4390120  36.8640360
  14.5387420  52.6937560  35.8698710  15.9729850  57.2836260  27.3694380
  16.4967330  56.7898910  26.7384550  16.5589270  57.4186620  28.1141950
  16.1519570  57.3676130  30.8913930  15.2022280  57.3339670  31.0058920
  16.3332580  58.2776240  30.6563700  15.4629820  56.5409610  23.3086790
  15.9588940  56.3080480  24.0935670  15.2645890  55.7021450  22.8924430
  16.8916980  55.1770560  25.8424470  16.7816260  55.0226600  26.7806740
  17.6524570  54.6491500  25.5999880  15.2382700  51.1164690  32.3007470
  15.8754920  51.7298830  32.6666660  15.3857590  51.1525350  31.3556700
  17.7807250  53.0078480  19.0830610  18.7056560  52.8759660  18.8748900
  17.7583040  53.0871300  20.0367060  17.8545740  53.7789140  21.7087320
  17.0597240  53.7134260  22.2380230  18.0589020  54.7139780  21.6972670
  14.7964160  67.8180690  25.7025710  15.3923230  67.4965260  25.0260130
  15.0542310  67.3452510  26.4938980   2.7026730  64.2498600  35.8516340
   2.6596360  63.8791510  36.7330800   2.8337740  65.1876170  35.9918160
   6.4032760  65.8058190  31.4526060   6.1624120  66.0732750  30.5656580
   7.3435400  65.9763920  31.5076920   8.6087180  52.2690880  35.2082570
   8.5476070  52.8612710  35.9577980   9.5487560  52.1616840  35.0632830
  11.2461740  51.9260940  34.8474860  11.8602150  52.2440230  34.1855940
  11.7911300  51.4409530  35.4670720  17.6636920  67.8252570  32.2536700
  17.1695200  68.2221440  31.5363830  17.0550210  67.2001780  32.6473980
   1.7683000  50.6055200  34.9613920   2.3165990  50.4243250  34.1980030
   1.8338310  49.8149310  35.4970230   2.5414760  67.1960850  32.9714120
   1.9475080  67.0645550  33.7104160   2.5338600  66.3598990  32.5056220
  11.9869780  50.4893080  31.1744150  11.1129620  50.8228190  30.9717080
  11.8780530  50.0166260  31.9996020  12.8941760  52.6963950  32.5585870
  12.5655120  51.8815710  32.1787600  13.8424060  52.6533760  32.4351560
  15.3476370  68.4675990  29.5323440  14.8879340  69.2191800  29.1581460
  14.7188830  67.7482460  29.4738240   5.7772090  66.7764230  28.7071570
   6.2937110  66.1651590  28.1819830   6.4269470  67.2793010  29.1982580
   8.5167590  67.6672720  29.5340550   8.8045400  67.4127020  28.6573560
   9.0290810  67.1150080  30.1246120   9.7344600  51.4062920  30.1137060
   8.9516390  51.8808420  30.3933820   9.4407530  50.5017750  30.0050240
  14.2865670  52.1086020  28.1586150  14.7273760  52.0531120  27.3107750
  14.0173260  53.0244030  28.2296330  16.1504240  51.7401260  26.1694970
  16.0892640  50.7962480  26.0225990  16.9296270  51.8481350  26.7148430
   7.6198820  53.8249670  25.6253090   6.8073330  53.4506560  25.2848970
   8.1240460  53.0694750  25.9274280  12.1223800  50.4892120  26.8636160
  12.7253170  51.0612330  27.3384680  11.3816790  51.0531560  26.6410060
  15.2658400  50.8913680  22.1376440  15.4609030  51.7897130  22.4043870
  14.4788270  50.6600760  22.6309390   3.4510160  52.2374450  21.1752750
   3.9802920  51.4504250  21.0460700   4.0838480  52.9165640  21.4088280
   5.6448000  51.9749590  24.2298140   5.0150740  51.2736900  24.3968270
   5.1053140  52.7353720  24.0131300   8.5839950  68.5888820  36.9008750
   9.5107260  68.3533090  36.9444710   8.5690380  69.4160820  36.4194780
  16.8185010  68.1314390  23.8983000  16.9937200  67.4452130  23.2543920
  16.1206580  68.6561440  23.5059670   5.7703560  51.2533570  36.6650630
   5.4887830  51.7567170  35.9011450   6.1523260  50.4555320  36.2992760
   4.6612660  68.5209230  21.4518310   5.3931480  68.2368510  20.9042200
   4.9206330  68.2822510  22.3417690   3.8227450  64.6373960  21.4564640
   3.1936330  65.1059060  22.0050470   3.9375280  63.7923180  21.8910830
  12.3719020  50.6687150  37.2431100  12.2584470  50.9881760  38.1382620
  13.1888760  51.0699660  36.9468380  15.1517510  67.8158680  36.7249790
  15.9442830  67.3207910  36.5175750  15.4450660  68.4948820  37.3325400
  11.2777170  58.6879620   7.6065840  11.1971220  57.7734230   7.3357550
  10.8641590  59.1846690   6.9005550   9.4095210  60.4658640   9.4875110
   8.6337310  59.9859080   9.7773680  10.0608140  59.7864290   9.3131270
   3.4261040  60.7778450  10.3650870   2.5945920  60.5227160  10.7647380
   4.0342020  60.8489220  11.1008790  13.4302640  64.8718830   8.2674240
  12.9684170  64.1006070   8.5961410  14.2428190  64.8984900   8.7726690
   3.4062300  64.8118540  10.5608890   3.7090340  63.9216280  10.3819110
   4.1505890  65.3688760  10.3331140   9.6565950  67.1576840   7.8878230
   9.0377390  67.6134340   7.3172670  10.5117730  67.3128300   7.4867930
   8.8504200  63.1415830   9.4945270   8.7812480  62.2005770   9.3334400
   9.6124060  63.2317240  10.0667840   9.8809370  55.9486210   9.7214200
  10.2574190  55.0758090   9.6087870   9.7828880  56.2844910   8.8304640
   4.0114380  54.3211840   5.1831640   4.1181130  55.2215570   5.4900400
   3.1006740  54.2729810   4.8926290  13.6633490  53.4436650   6.6542540
  14.4843110  52.9533220   6.6968020  13.6967570  54.0334310   7.4074380
   5.8522110  57.2898210   9.5156820   6.3600330  57.7879180  10.1561840
   6.3835350  56.5133410   9.3396180  17.9533040  55.4603400  13.2186170
  17.2485210  55.8485110  12.7001280  18.2190960  56.1553690  13.8207100
   4.1358210  51.9296770  13.7820240   4.1376650  52.4469160  12.9766140
   3.3062520  51.4526950  13.7590170  10.5229300  62.0416080   5.2810140
   9.9046570  62.5065530   4.7172860  11.0352550  62.7343560   5.6979650
   5.3861060  61.5691950  11.9593740   5.0530440  62.1960870  12.6014810
   5.5627740  62.0953830  11.1795410  13.8994970  55.3837030   9.4270080
  13.1950540  55.6721920  10.0073190  14.2607130  56.1937140   9.0669640
   3.8173540  53.6406730  11.7890690   4.1590350  54.4848780  11.4944560
   2.8789350  53.7890470  11.9056030   4.5980160  63.5372750  13.7742920
   5.2154160  64.2123830  13.4927370   3.7373280  63.9460730  13.6830420
  15.5157750  65.0012160  11.6897560  14.8321270  65.6711270  11.6814230
  16.0552040  65.1992810  10.9242420  16.9681890  54.8291820   9.8179290
  16.0206800  54.8630800   9.9494720  17.2931880  55.6430770  10.2028650
   7.5001430  51.1289000   8.1135280   7.8076410  50.5735890   7.3970780
   6.5702130  51.2633460   7.9308270  13.0516490  66.8456290  10.4042740
  13.0643650  66.4418580   9.5365000  12.4991710  67.6203580  10.3004170
  14.3461910  63.5672510   5.4932910  14.2358240  62.6246840   5.6182330
  14.3430160  63.9288150   6.3795670  12.4501930  61.7486130  11.7325350
  12.8670720  61.5346240  10.8978810  13.1741750  62.0058920  12.3033970
   9.8882190  59.1937830   4.8495400   8.9611470  59.1275210   5.0783870
  10.0407010  60.1317960   4.7350640  16.3964030  60.1473350  11.8241590
  15.5682660  60.2166440  11.3491720  16.9914510  60.7327660  11.3557420
  13.9179480  60.7558130   5.3530650  13.2991900  60.4177680   4.7056950
  13.9003930  60.1117890   6.0609840  13.3606040  56.9342670  12.7696460
  12.9477220  57.7596380  13.0236450  12.6281990  56.3487710  12.5772820
   5.4938830  59.7202570   7.6315130   5.0895830  59.0079820   7.1361030
   5.5801950  59.3755810   8.5203170   5.9620530  63.4070130   9.7954340
   5.6648820  62.8015600   9.1162120   6.9120350  63.4447440   9.6843700
   4.2067450  56.4945780  11.4114170   4.7582040  56.6041120  10.6367420
   4.7210960  56.8683380  12.1269400  14.0506140  66.9802000  13.4577440
  13.5736700  67.7874190  13.2650050  13.3667930  66.3280330  13.6103650
   5.0538960  63.1451820  16.4462140   4.1567490  63.3691790  16.6935540
   5.0791830  63.2686760  15.4973540  12.0944180  59.9944940   2.3603400
  12.5337460  59.1567370   2.2141220  12.8072600  60.6274340   2.4467540
   3.8810180  60.0165140  15.0219510   3.7417950  60.8887940  15.3906910
   2.9991540  59.6737950  14.8767450  10.2039560  64.9341010   6.3284640
  10.6435470  65.6765340   5.9140030  10.1426450  65.1767580   7.2523600
   5.6790530  65.9586840  17.2304660   5.6505960  66.3629790  16.3633090
   5.5155500  65.0297200  17.0676260   2.1943460  58.6147550   5.1321780
   2.0741060  59.3409640   4.5203050   1.8844350  57.8450460   4.6549690
  17.6305350  66.7413940  18.5268830  18.1065070  67.2196830  19.2057910
  18.2512510  66.6731430  17.8014330  17.0338600  63.9326790  15.6868840
  17.1601660  63.6938670  14.7686020  17.0759980  63.1011330  16.1590920
  10.8955340  67.6354790  14.2563650  11.4100010  67.5462800  15.0586080
  10.0524420  67.9814490  14.5491560  12.8709740  67.9210130   3.6847650
  12.7110880  67.6313070   4.5829480  12.7056450  67.1450260   3.1492880
   5.3498120  67.7008660   5.4619270   5.1740600  66.7844200   5.2487070
   4.4953860  68.0595950   5.7017070  12.1385800  67.0560400   6.3194140
  12.5942750  66.2749780   6.6332760  12.4778320  67.7667220   6.8635320
  16.8862610  55.9859250  16.6518580  16.2706880  56.4938920  16.1234040
  16.5659030  55.0857580  16.5944520   4.6607120  51.9582620   8.5145450
   4.2175270  52.7392160   8.1829970   5.2192110  52.2812510   9.2216390
   8.9476930  54.8251140  14.1180770   8.4856300  55.0334160  14.9300710
   8.5455040  54.0110490  13.8151440  13.9481440  56.0460090  15.2477430
  13.0975030  55.7465840  15.5686500  13.7883230  56.2902100  14.3361250
  11.0431150  57.5461840  17.3476220  11.3684560  56.7125590  17.0078450
  11.8311480  58.0690360  17.4954550   7.7765940  51.5793320   3.3951280
   7.1520120  51.5753190   4.1204590   7.6896060  50.7124280   2.9987250
   6.6983020  52.5029950  10.3735050   6.9955350  53.4092780  10.2927070
   7.2468580  52.0148730   9.7594620   4.4521340  57.0816190   6.2426700
   4.2262260  56.8653360   7.1473320   3.6713870  57.5144650   5.8972670
  11.6819100  57.0879560   4.8417350  11.0827990  57.8115360   4.6580970
  12.2298710  57.0256340   4.0593800   6.8920550  57.9801770  16.9086970
   6.7964150  57.0396500  16.7587370   7.7352530  58.2016840  16.5135040
  10.2883970  55.7243100   6.8720630  10.6813540  56.0415300   6.0589320
  10.6500820  54.8454980   6.9865150   8.5976140  54.4750410  18.1317490
   7.9074460  54.2822610  18.7663580   9.3408440  54.7585050  18.6641790
  10.8739110  58.3148850  10.9671410  10.1420230  58.8235660  11.3161510
  10.4763450  57.4978830  10.6660190   7.3116500  54.9903050   9.3723900
   7.3152560  54.5493000   8.5228440   8.2067620  55.3120380   9.4795720
   3.1618880  54.8729540   8.3318110   2.8218930  55.3504770   9.0885160
   2.3996200  54.4194660   7.9719210   7.3736650  55.9915130   2.3630660
   7.4949470  55.9501610   3.3116480   6.9885160  56.8539280   2.2077390
  11.3365020  53.7682530  10.3794350  11.3537760  54.2191180  11.2236200
  11.0880600  52.8688170  10.5927790  14.7635770  51.1814710  16.2180730
  15.0881540  50.4504370  16.7438710  14.7992280  50.8628350  15.3161720
   7.6124470  59.0504830  11.1189310   7.9794600  58.5763400  11.8650650
   7.4229530  59.9246400  11.4597650   5.4023840  58.0913470  13.4373520
   5.0980910  58.9705450  13.6623880   6.3570300  58.1513260  13.4730960
   3.9305630  62.2974460   4.0340370   3.1567890  61.7572080   3.8739090
   4.6600260  61.7781070   3.6958130  14.6893610  61.2939820   9.8266760
  15.4092730  61.7895110   9.4362870  14.4875430  60.6157710   9.1820630
  10.1503550  52.6877780   3.9696150   9.3368160  52.1890950   3.8941460
   9.9565500  53.5276030   3.5532500  10.0712410  61.3648880  15.7135760
  10.0049720  60.4444550  15.4593350   9.4417550  61.4624320  16.4280400
  12.8651940  57.0597430   2.2658310  13.7531560  57.3714660   2.0909650
  12.8357030  56.1869680   1.8738890   3.9743030  61.9654840   7.6719180
   4.4921700  61.1623100   7.6176070   3.5227050  61.9033980   8.5136010
   8.8612530  63.2321120   2.9446480   9.2028230  63.9763350   2.4489800
   8.0325240  63.5452240   3.3071310   4.6600690  59.3900450  17.4684430
   4.3600830  59.5357630  16.5712250   5.4311930  58.8305740  17.3757820
  10.0029140  64.1869450  15.4639560  10.0173680  63.2550410  15.2458470
   9.2954240  64.2729210  16.1029330  16.2140350  60.8276790  14.8108140
  15.4888540  61.4205570  14.6137530  16.7415810  60.8200330  14.0121510
  16.1653460  65.2251530   4.4620300  15.5229620  64.5707150   4.7364020
  15.7784120  65.6306620   3.6860970  11.7439940  62.5536960   8.3091990
  12.0963760  61.9565090   7.6493360  10.8602270  62.2281190   8.4800240
   7.8303220  63.3134650   5.7162400   8.5174350  63.8603860   6.0969990
   7.0435640  63.8575380   5.7512010   7.1330430  60.3180680   5.3287760
   7.5893210  61.1285930   5.5547950   6.7818640  60.0003820   6.1606250
   9.4363040  65.8287020  12.5580060  10.0805260  66.0346400  13.2353480
   9.7992480  65.0675420  12.1050910   3.0342210  50.6618330   5.8010280
   2.9056840  50.6536230   6.7495200   2.2104230  51.0001420   5.4501290
  10.7095120  63.8319370  11.2757510  11.3517350  63.1312530  11.3889680
  11.2344470  64.6117810  11.0954400  12.4832740  64.6314270  14.4793570
  12.8188980  65.2180960  15.1571490  11.5633080  64.5006980  14.7091360
  14.1367090  62.0339930   2.6610810  13.8488790  62.4952620   3.4488690
  14.9319260  61.5737700   2.9295030   8.3121320  64.6805600  17.6481630
   7.9918190  63.9614840  18.1927320   7.6379680  65.3560670  17.7217690
   6.3535490  65.5266050   2.5914780   6.3445590  66.2595740   1.9759290
   5.4333850  65.2797630   2.6841740  11.5274920  54.9131760  13.0118430
  11.8955740  54.0926970  13.3398000  10.6673120  54.9733650  13.4274080
  14.8936950  53.8688700   3.8205990  14.2650110  53.9734370   3.1064220
  14.3988870  54.0885480   4.6099870   6.8620980  56.1474650   5.2363870
   6.1537130  56.6160990   5.6777480   7.1465460  55.4896660   5.8709060
   8.4876910  57.5671350  13.2356400   8.9862160  58.0417170  13.9008250
   8.6299860  56.6434870  13.4426430  10.8936410  52.8725310   6.6759660
  10.7704190  52.8911440   5.7269170  11.8420970  52.9204250   6.7958060
   7.9813200  68.1080610   5.9487640   8.2354700  68.0702000   5.0267010
   7.0325680  67.9813940   5.9415890   5.0656000  54.4559730   2.6114580
   5.9146530  54.8929880   2.5454770   4.6987270  54.7679990   3.4386640
  15.6943770  53.7839310  14.0784790  15.1917370  54.5244710  14.4178600
  16.5100430  54.1723310  13.7621580  13.9865780  59.0272490   7.5246150
  13.0455920  59.0422720   7.6993840  14.3009850  58.2408450   7.9706450
   2.6594180  58.1417160   1.7683000   2.7397770  57.1944670   1.8800400
   3.5513930  58.4724040   1.8743660  15.9891360  66.1981340   9.2000410
  16.1138780  67.0212510   9.6724220  16.8556920  65.9872070   8.8524560
   3.4608890  68.2912550   8.8717540   4.1971370  67.7428010   9.1426110
   3.8449810  69.1568560   8.7323530   2.4667170  67.4758620  18.0603120
   3.2679900  67.7970670  18.4738520   1.9518990  67.1154200  18.7823030
  11.3031800  63.5838490  18.0078530  10.6969960  63.6070090  17.2674280
  10.9985910  62.8521530  18.5445780  12.7332170  67.3118780  16.6187940
  13.6853920  67.2276800  16.5688180  12.5860390  67.9760490  17.2921730
   7.2402920  61.3703070  16.5374690   6.4748590  61.9388070  16.4529360
   7.4218880  61.0779280  15.6442920  14.3826270  63.1008400  17.0949710
  15.1235740  63.4384160  16.5917170  13.6198950  63.2700460  16.5419480
   2.2188060  58.1061670  17.8989240   2.2593400  57.8075540  18.8074470
   3.0733560  58.5069280  17.7396760   5.9966450  60.7057220   3.0592750
   6.4182870  60.5397090   3.9024140   6.1217290  59.8957450   2.5647890
   4.1593870  56.6853770  15.8663730   3.6290330  56.1944720  15.2387070
   4.8281940  57.1137970  15.3321660  13.0571930  61.1523230  15.6304920
  13.4712950  61.3068310  16.4795340  12.1222930  61.2778450  15.7930700
  13.5294100  58.4919390  17.6344070  14.1114870  57.7371710  17.5464550
  13.7055870  59.0226830  16.8575550   4.6466170  53.6516140  15.9461020
   4.5523040  53.0336890  15.2211890   4.0663560  54.3782430  15.7190930
   7.4127610  52.2089380  12.9788410   6.9644910  52.2313640  12.1333960
   6.7792810  51.8108400  13.5758710   7.8187160  61.1043710  13.6000850
   8.2375270  61.9476440  13.4277090   6.8995790  61.2415750  13.3707630
  10.1551060  58.8359890  14.9838690  10.2747270  58.2401030  15.7233530
  11.0145060  58.8729580  14.5639990  12.4938960  59.3897080  13.5601200
  11.9674180  59.9139700  12.9566340  12.8370300  60.0224470  14.1910930
   5.6694580  67.4096720  14.7158580   5.1315670  68.1342780  14.3967280
   5.9228540  66.9327060  13.9255920   6.9219830  55.3781240  16.2414510
   7.5119520  55.0697090  16.9292330   6.1040070  54.9060990  16.3974410
  11.7413260  54.9947050  16.4747530  11.0528780  54.3328590  16.4097520
  12.4619280  54.5485320  16.9195990  12.3713660  51.5898680   2.5337790
  12.6515950  50.7466580   2.8897210  11.5979390  51.8221790   3.0476540
   8.5256790  68.6447930  14.9745230   8.4515490  69.5483070  15.2817600
   7.6235630  68.3259830  14.9467300   9.0742120  67.8106440   2.5971590
   9.9692910  68.1491410   2.6190350   9.1059750  67.0885850   1.9695870
   4.5246000  64.3031530   5.9380820   4.2241540  64.1796500   6.8384730
   4.4183490  63.4440120   5.5296550  16.0536470  66.3410110  15.3037790
  15.4538460  66.4002670  14.5601710  16.1830370  65.4015090  15.4334640
  16.7494380  60.8275410   3.1441700  17.5113290  61.3972060   3.2501390
  16.7648750  60.2602610   3.9150010  17.7554350  61.6825510   7.9883630
  18.1263180  60.8992830   7.5819600  18.3956280  62.3714610   7.8100930
  14.7388110  63.0662090  13.4013950  13.9247950  63.4959250  13.6639740
  15.1462310  63.6780500  12.7883000  16.6978890  59.0578770   5.2943650
  16.3222490  58.2906700   4.8624940  15.9682010  59.4401470   5.7818580
  16.0878510  58.2050290  14.9283170  15.8564600  57.9763040  14.0281120
  16.3483060  59.1249840  14.8828060  14.5266580  53.4306720  17.7062870
  15.4036760  53.4390120  18.0896870  14.5387420  52.6937560  17.0955220
  15.9729850  57.2836260   8.5950890  16.4967330  56.7898910   7.9641060
  16.5589270  57.4186620   9.3398460  16.1519570  57.3676130  12.1170440
  15.2022280  57.3339670  12.2315430  16.3332580  58.2776240  11.8820210
  15.4629820  56.5409610   4.5343300  15.9588940  56.3080480   5.3192180
  15.2645890  55.7021450   4.1180940  16.8916980  55.1770560   7.0680980
  16.7816260  55.0226600   8.0063250  17.6524570  54.6491500   6.8256390
  15.2382700  51.1164690  13.5263980  15.8754920  51.7298830  13.8923170
  15.3857590  51.1525350  12.5813210  17.8545740  53.7789140   2.9343830
  17.0597240  53.7134260   3.4636740  18.0589020  54.7139780   2.9229180
  14.7964160  67.8180690   6.9282220  15.3923230  67.4965260   6.2516640
  15.0542310  67.3452510   7.7195490   2.7026730  64.2498600  17.0772850
   2.6596360  63.8791510  17.9587310   2.8337740  65.1876170  17.2174670
   6.4032760  65.8058190  12.6782570   6.1624120  66.0732750  11.7913090
   7.3435400  65.9763920  12.7333430   8.6087180  52.2690880  16.4339080
   8.5476070  52.8612710  17.1834490   9.5487560  52.1616840  16.2889340
  11.2461740  51.9260940  16.0731370  11.8602150  52.2440230  15.4112450
  11.7911300  51.4409530  16.6927230  17.6636920  67.8252570  13.4793210
  17.1695200  68.2221440  12.7620340  17.0550210  67.2001780  13.8730490
   1.7683000  50.6055200  16.1870430   2.3165990  50.4243250  15.4236540
   1.8338310  49.8149310  16.7226740   2.5414760  67.1960850  14.1970630
   1.9475080  67.0645550  14.9360670   2.5338600  66.3598990  13.7312730
  11.9869780  50.4893080  12.4000660  11.1129620  50.8228190  12.1973590
  11.8780530  50.0166260  13.2252530  12.8941760  52.6963950  13.7842380
  12.5655120  51.8815710  13.4044110  13.8424060  52.6533760  13.6608070
  15.3476370  68.4675990  10.7579950  14.8879340  69.2191800  10.3837970
  14.7188830  67.7482460  10.6994750   5.7772090  66.7764230   9.9328080
   6.2937110  66.1651590   9.4076340   6.4269470  67.2793010  10.4239090
   8.5167590  67.6672720  10.7597060   8.8045400  67.4127020   9.8830070
   9.0290810  67.1150080  11.3502630   9.7344600  51.4062920  11.3393570
   8.9516390  51.8808420  11.6190330   9.4407530  50.5017750  11.2306750
  14.2865670  52.1086020   9.3842660  14.7273760  52.0531120   8.5364260
  14.0173260  53.0244030   9.4552840  16.1504240  51.7401260   7.3951480
  16.0892640  50.7962480   7.2482500  16.9296270  51.8481350   7.9404940
   7.6198820  53.8249670   6.8509600   6.8073330  53.4506560   6.5105480
   8.1240460  53.0694750   7.1530790  12.1223800  50.4892120   8.0892670
  12.7253170  51.0612330   8.5641190  11.3816790  51.0531560   7.8666570
  15.2658400  50.8913680   3.3632950  15.4609030  51.7897130   3.6300380
  14.4788270  50.6600760   3.8565900   3.4510160  52.2374450   2.4009260
   3.9802920  51.4504250   2.2717210   4.0838480  52.9165640   2.6344790
   5.6448000  51.9749590   5.4554650   5.0150740  51.2736900   5.6224780
   5.1053140  52.7353720   5.2387810   8.5839950  68.5888820  18.1265260
   9.5107260  68.3533090  18.1701220   8.5690380  69.4160820  17.6451290
  16.8185010  68.1314390   5.1239510  16.9937200  67.4452130   4.4800430
  16.1206580  68.6561440   4.7316180   5.7703560  51.2533570  17.8907140
   5.4887830  51.7567170  17.1267960   6.1523260  50.4555320  17.5249270
   4.6612660  68.5209230   2.6774820   5.3931480  68.2368510   2.1298710
   4.9206330  68.2822510   3.5674200   3.8227450  64.6373960   2.6821150
   3.1936330  65.1059060   3.2306980   3.9375280  63.7923180   3.1167340
  12.3719020  50.6687150  18.4687610  12.2584470  50.9881760  19.3639130
  13.1888760  51.0699660  18.1724890  15.1517510  67.8158680  17.9506300
  15.9442830  67.3207910  17.7432260  15.4450660  68.4948820  18.5581910
  11.2777170  39.9136130  45.1552820  11.1971220  38.9990740  44.8844530
  10.8641590  40.4103200  44.4492530   9.4095210  41.6915150  47.0362090
   8.6337310  41.2115590  47.3260660  10.0608140  41.0120800  46.8618250
   3.4261040  42.0034960  47.9137850   2.5945920  41.7483670  48.3134360
   4.0342020  42.0745730  48.6495770  13.4302640  46.0975340  45.8161220
  12.9684170  45.3262580  46.1448390  14.2428190  46.1241410  46.3213670
   3.4062300  46.0375050  48.1095870   3.7090340  45.1472790  47.9306090
   4.1505890  46.5945270  47.8818120   9.6565950  48.3833350  45.4365210
   9.0377390  48.8390850  44.8659650  10.5117730  48.5384810  45.0354910
   8.8504200  44.3672340  47.0432250   8.7812480  43.4262280  46.8821380
   9.6124060  44.4573750  47.6154820   9.8809370  37.1742720  47.2701180
  10.2574190  36.3014600  47.1574850   9.7828880  37.5101420  46.3791620
   4.0114380  35.5468350  42.7318620   4.1181130  36.4472080  43.0387380
   3.1006740  35.4986320  42.4413270  13.6633490  34.6693160  44.2029520
  14.4843110  34.1789730  44.2455000  13.6967570  35.2590820  44.9561360
   5.8522110  38.5154720  47.0643800   6.3600330  39.0135690  47.7048820
   6.3835350  37.7389920  46.8883160  17.9533040  36.6859910  50.7673150
  17.2485210  37.0741620  50.2488260  18.2190960  37.3810200  51.3694080
   4.1358210  33.1553280  51.3307220   4.1376650  33.6725670  50.5253120
   3.3062520  32.6783460  51.3077150  10.5229300  43.2672590  42.8297120
   9.9046570  43.7322040  42.2659840  11.0352550  43.9600070  43.2466630
   5.3861060  42.7948460  49.5080720   5.0530440  43.4217380  50.1501790
   5.5627740  43.3210340  48.7282390  13.8994970  36.6093540  46.9757060
  13.1950540  36.8978430  47.5560170  14.2607130  37.4193650  46.6156620
   3.8173540  34.8663240  49.3377670   4.1590350  35.7105290  49.0431540
   2.8789350  35.0146980  49.4543010   4.5980160  44.7629260  51.3229900
   5.2154160  45.4380340  51.0414350   3.7373280  45.1717240  51.2317400
  15.5157750  46.2268670  49.2384540  14.8321270  46.8967780  49.2301210
  16.0552040  46.4249320  48.4729400  16.9681890  36.0548330  47.3666270
  16.0206800  36.0887310  47.4981700  17.2931880  36.8687280  47.7515630
   7.5001430  32.3545510  45.6622260   7.8076410  31.7992400  44.9457760
   6.5702130  32.4889970  45.4795250  13.0516490  48.0712800  47.9529720
  13.0643650  47.6675090  47.0851980  12.4991710  48.8460090  47.8491150
  14.3461910  44.7929020  43.0419890  14.2358240  43.8503350  43.1669310
  14.3430160  45.1544660  43.9282650  12.4501930  42.9742640  49.2812330
  12.8670720  42.7602750  48.4465790  13.1741750  43.2315430  49.8520950
   9.8882190  40.4194340  42.3982380   8.9611470  40.3531720  42.6270850
  10.0407010  41.3574470  42.2837620   9.8751270  36.6911340  39.3949540
   8.9354940  36.8525300  39.4802000  10.1934530  37.4097020  38.8485530
  16.3964030  41.3729860  49.3728570  15.5682660  41.4422950  48.8978700
  16.9914510  41.9584170  48.9044400  13.9179480  41.9814640  42.9017630
  13.2991900  41.6434190  42.2543930  13.9003930  41.3374400  43.6096820
  13.3606040  38.1599180  50.3183440  12.9477220  38.9852890  50.5723430
  12.6281990  37.5744220  50.1259800   5.4938830  40.9459080  45.1802110
   5.0895830  40.2336330  44.6848010   5.5801950  40.6012320  46.0690150
   5.9620530  44.6326640  47.3441320   5.6648820  44.0272110  46.6649100
   6.9120350  44.6703950  47.2330680   4.2067450  37.7202290  48.9601150
   4.7582040  37.8297630  48.1854400   4.7210960  38.0939890  49.6756380
  14.0506140  48.2058510  51.0064420  13.5736700  49.0130700  50.8137030
  13.3667930  47.5536840  51.1590630  12.0944180  41.2201450  39.9090380
  12.5337460  40.3823880  39.7628200  12.8072600  41.8530850  39.9954520
   3.8810180  41.2421650  52.5706490   3.7417950  42.1144450  52.9393890
   2.9991540  40.8994460  52.4254430  10.2039560  46.1597520  43.8771620
  10.6435470  46.9021850  43.4627010  10.1426450  46.4024090  44.8010580
  15.6761320  32.4744260  38.2231420  15.3633980  32.5671090  39.1230490
  16.4373790  33.0525290  38.1728850   2.1943460  39.8404060  42.6808760
   2.0741060  40.5666150  42.0690030   1.8844350  39.0706970  42.2036670
  17.0338600  45.1583300  53.2355820  17.1601660  44.9195180  52.3173000
  17.0759980  44.3267840  53.7077900  10.8955340  48.8611300  51.8050630
  11.4100010  48.7719310  52.6073060  10.0524420  49.2071000  52.0978540
  12.8709740  49.1466640  41.2334630  12.7110880  48.8569580  42.1316460
  12.7056450  48.3706770  40.6979860   5.3498120  48.9265170  43.0106250
   5.1740600  48.0100710  42.7974050   4.4953860  49.2852460  43.2504050
  12.5735870  46.6554200  39.7932630  11.8801030  46.6531490  39.1334910
  13.3158730  46.2313520  39.3626800  12.1385800  48.2816910  43.8681120
  12.5942750  47.5006290  44.1819740  12.4778320  48.9923730  44.4122300
  16.8862610  37.2115760  54.2005560  16.2706880  37.7195430  53.6721020
  16.5659030  36.3114090  54.1431500   4.6607120  33.1839130  46.0632430
   4.2175270  33.9648670  45.7316950   5.2192110  33.5069020  46.7703370
   8.9476930  36.0507650  51.6667750   8.4856300  36.2590670  52.4787690
   8.5455040  35.2367000  51.3638420  13.9481440  37.2716600  52.7964410
  13.0975030  36.9722350  53.1173480  13.7883230  37.5158610  51.8848230
   7.7765940  32.8049830  40.9438260   7.1520120  32.8009700  41.6691570
   7.6896060  31.9380790  40.5474230   6.6983020  33.7286460  47.9222030
   6.9955350  34.6349290  47.8414050   7.2468580  33.2405240  47.3081600
   4.4521340  38.3072700  43.7913680   4.2262260  38.0909870  44.6960300
   3.6713870  38.7401160  43.4459650  11.6819100  38.3136070  42.3904330
  11.0827990  39.0371870  42.2067950  12.2298710  38.2512850  41.6080780
  10.2883970  36.9499610  44.4207610  10.6813540  37.2671810  43.6076300
  10.6500820  36.0711490  44.5352130  10.8739110  39.5405360  48.5158390
  10.1420230  40.0492170  48.8648490  10.4763450  38.7235340  48.2147170
   7.3116500  36.2159560  46.9210880   7.3152560  35.7749510  46.0715420
   8.2067620  36.5376890  47.0282700   3.1618880  36.0986050  45.8805090
   2.8218930  36.5761280  46.6372140   2.3996200  35.6451170  45.5206190
   7.3736650  37.2171640  39.9117640   7.4949470  37.1758120  40.8603460
   6.9885160  38.0795790  39.7564370  11.3365020  34.9939040  47.9281330
  11.3537760  35.4447690  48.7723180  11.0880600  34.0944680  48.1414770
   6.3858150  39.5272780  39.3100940   5.8175050  39.0791030  38.6836850
   7.0947150  39.8865560  38.7766090   7.6124470  40.2761340  48.6676290
   7.9794600  39.8019910  49.4137630   7.4229530  41.1502910  49.0084630
   5.4023840  39.3169980  50.9860500   5.0980910  40.1961960  51.2110860
   6.3570300  39.3769770  51.0217940   3.9305630  43.5230970  41.5827350
   3.1567890  42.9828590  41.4226070   4.6600260  43.0037580  41.2445110
  14.6893610  42.5196330  47.3753740  15.4092730  43.0151620  46.9849850
  14.4875430  41.8414220  46.7307610  10.1503550  33.9134290  41.5183130
   9.3368160  33.4147460  41.4428440   9.9565500  34.7532540  41.1019480
  10.0712410  42.5905390  53.2622740  10.0049720  41.6701060  53.0080330
   9.4417550  42.6880830  53.9767380  12.8651940  38.2853940  39.8145290
  13.7531560  38.5971170  39.6396630  12.8357030  37.4126190  39.4225870
   3.9743030  43.1911350  45.2206160   4.4921700  42.3879610  45.1663050
   3.5227050  43.1290490  46.0622990   8.8612530  44.4577630  40.4933460
   9.2028230  45.2019860  39.9976780   8.0325240  44.7708750  40.8558290
  10.0029140  45.4125960  53.0126540  10.0173680  44.4806920  52.7945450
   9.2954240  45.4985720  53.6516310  15.1366210  39.5965780  39.2825150
  15.0529930  40.0280000  38.4321590  15.8560400  40.0564130  39.7151970
  16.2140350  42.0533300  52.3595120  15.4888540  42.6462080  52.1624510
  16.7415810  42.0456840  51.5608490  16.1653460  46.4508040  42.0107280
  15.5229620  45.7963660  42.2851000  15.7784120  46.8563130  41.2347950
  11.7439940  43.7793470  45.8578970  12.0963760  43.1821600  45.1980340
  10.8602270  43.4537700  46.0287220   7.8303220  44.5391160  43.2649380
   8.5174350  45.0860370  43.6456970   7.0435640  45.0831890  43.2998990
   7.1330430  41.5437190  42.8774740   7.5893210  42.3542440  43.1034930
   6.7818640  41.2260330  43.7093230   9.4363040  47.0543530  50.1067040
  10.0805260  47.2602910  50.7840460   9.7992480  46.2931930  49.6537890
   3.0342210  31.8874840  43.3497260   2.9056840  31.8792740  44.2982180
   2.2104230  32.2257930  42.9988270  10.7095120  45.0575880  48.8244490
  11.3517350  44.3569040  48.9376660  11.2344470  45.8374320  48.6441380
  14.5550840  45.3424500  38.5483630  14.3288420  44.6254940  39.1408270
  14.1647040  45.0936940  37.7105380  12.4832740  45.8570780  52.0280550
  12.8188980  46.4437470  52.7058470  11.5633080  45.7263490  52.2578340
  14.1367090  43.2596440  40.2097790  13.8488790  43.7209130  40.9975670
  14.9319260  42.7994210  40.4782010   6.3535490  46.7522560  40.1401760
   6.3445590  47.4852250  39.5246270   5.4333850  46.5054140  40.2328720
  11.5274920  36.1388270  50.5605410  11.8955740  35.3183480  50.8884980
  10.6673120  36.1990160  50.9761060  14.8936950  35.0945210  41.3692970
  14.2650110  35.1990880  40.6551200  14.3988870  35.3141990  42.1586850
   9.3395090  46.8150800  38.8026950   9.4407070  46.6114790  37.8728930
   8.4396830  46.5609080  39.0074730   6.8620980  37.3731160  42.7850850
   6.1537130  37.8417500  43.2264460   7.1465460  36.7153170  43.4196040
   8.4876910  38.7927860  50.7843380   8.9862160  39.2673680  51.4495230
   8.6299860  37.8691380  50.9913410  10.8936410  34.0981820  44.2246640
  10.7704190  34.1167950  43.2756150  11.8420970  34.1460760  44.3445040
   7.9813200  49.3337120  43.4974620   8.2354700  49.2958510  42.5753990
   7.0325680  49.2070450  43.4902870   5.0656000  35.6816240  40.1601560
   5.9146530  36.1186390  40.0941750   4.6987270  35.9936500  40.9873620
  15.6943770  35.0095820  51.6271770  15.1917370  35.7501220  51.9665580
  16.5100430  35.3979820  51.3108560  13.9865780  40.2529000  45.0733130
  13.0455920  40.2679230  45.2480820  14.3009850  39.4664960  45.5193430
   3.9647420  41.9348600  38.6337090   4.7310690  41.8229960  39.1962520
   4.0422110  41.2386570  37.9813860   2.6594180  39.3673670  39.3169980
   2.7397770  38.4201180  39.4287380   3.5513930  39.6980550  39.4230640
  15.9891360  47.4237850  46.7487390  16.1138780  48.2469020  47.2211200
  16.8556920  47.2128580  46.4011540   3.4608890  49.5169060  46.4204520
   4.1971370  48.9684520  46.6913090   3.8449810  50.3825070  46.2810510
   6.5711200  48.6899370  38.2430090   7.3639810  48.9788200  37.7911880
   6.0515550  48.2591540  37.5642570  15.6241370  47.9169500  39.6666830
  15.3382880  47.5034640  38.8521010  15.4260920  48.8457210  39.5467350
   7.0888600  43.9102780  38.1072440   6.9839240  43.2955130  38.8333820
   6.9212820  43.3868670  37.3235450   7.2402920  42.5959580  54.0861670
   6.4748590  43.1644580  54.0016340   7.4218880  42.3035790  53.1929900
  10.3291330  42.9722810  38.7114430   9.7801430  43.4192110  39.3557170
  10.9510590  42.4672060  39.2352100   5.9966450  41.9313730  40.6079730
   6.4182870  41.7653600  41.4511120   6.1217290  41.1213960  40.1134870
   4.1593870  37.9110280  53.4150710   3.6290330  37.4201230  52.7874050
   4.8281940  38.3394480  52.8808640   8.5094090  40.9551340  37.8556830
   9.0299750  40.2400360  37.4897980   9.1562490  41.5937210  38.1557340
  13.0571930  42.3779740  53.1791900  13.4712950  42.5324820  54.0282320
  12.1222930  42.5034960  53.3417680   4.6466170  34.8772650  53.4948000
   4.5523040  34.2593400  52.7698870   4.0663560  35.6038940  53.2677910
   7.4127610  33.4345890  50.5275390   6.9644910  33.4570150  49.6820940
   6.7792810  33.0364910  51.1245690   7.8187160  42.3300220  51.1487830
   8.2375270  43.1732950  50.9764070   6.8995790  42.4672260  50.9194610
  10.1551060  40.0616400  52.5325670  10.2747270  39.4657540  53.2720510
  11.0145060  40.0986090  52.1126970  12.4938960  40.6153590  51.1088180
  11.9674180  41.1396210  50.5053320  12.8370300  41.2480980  51.7397910
   4.8925350  38.0046960  37.5537890   4.6914410  37.1414320  37.9151230
   4.7217400  37.9180320  36.6159490   5.6694580  48.6353230  52.2645560
   5.1315670  49.3599290  51.9454260   5.9228540  48.1583570  51.4742900
  12.3713660  32.8155190  40.0824770  12.6515950  31.9723090  40.4384190
  11.5979390  33.0478300  40.5963520   3.6908150  35.1047580  37.5415770
   3.9934050  35.1115010  36.6334920   4.4302740  34.7545440  38.0383430
   8.5256790  49.8704440  52.5232210   8.4515490  50.7739580  52.8304580
   7.6235630  49.5516340  52.4954280   6.9093080  34.0482200  38.5271970
   6.5615080  33.3706190  37.9474420   7.1105850  33.5871710  39.3415360
   9.0742120  49.0362950  40.1458570   9.9692910  49.3747920  40.1677330
   9.1059750  48.3142360  39.5182850   2.7138280  44.4090000  38.3745570
   3.1513150  44.9519670  39.0303150   3.1986010  43.5836950  38.3841910
   4.5246000  45.5288040  43.4867800   4.2241540  45.4053010  44.3871710
   4.4183490  44.6696630  43.0783530  16.0536470  47.5666620  52.8524770
  15.4538460  47.6259180  52.1088690  16.1830370  46.6271600  52.9821620
  17.2937920  45.3084440  38.1894480  16.4630880  45.3761090  38.6601710
  17.4709750  46.1988560  37.8861340  16.7494380  42.0531920  40.6928680
  17.5113290  42.6228570  40.7988370  16.7648750  41.4859120  41.4636990
  17.7554350  42.9082020  45.5370610  18.1263180  42.1249340  45.1306580
  18.3956280  43.5971120  45.3587910  14.7388110  44.2918600  50.9500930
  13.9247950  44.7215760  51.2126720  15.1462310  44.9037010  50.3369980
  16.8013550  42.3466290  37.8501200  17.0762390  43.2545170  37.7220420
  16.6124290  42.2828820  38.7863190  13.1989160  35.3711140  39.1454830
  13.6174040  35.1842120  38.3051490  12.8925220  34.5190190  39.4557760
  16.6978890  40.2835280  42.8430630  16.3222490  39.5163210  42.4111920
  15.9682010  40.6657980  43.3305560  16.0878510  39.4306800  52.4770150
  15.8564600  39.2019550  51.5768100  16.3483060  40.3506350  52.4315040
  15.9729850  38.5092770  46.1437870  16.4967330  38.0155420  45.5128040
  16.5589270  38.6443130  46.8885440  16.1519570  38.5932640  49.6657420
  15.2022280  38.5596180  49.7802410  16.3332580  39.5032750  49.4307190
  15.4629820  37.7666120  42.0830280  15.9588940  37.5336990  42.8679160
  15.2645890  36.9277960  41.6667920  16.8916980  36.4027070  44.6167960
  16.7816260  36.2483110  45.5550230  17.6524570  35.8748010  44.3743370
  15.2382700  32.3421200  51.0750960  15.8754920  32.9555340  51.4410150
  15.3857590  32.3781860  50.1300190  17.7807250  34.2334990  37.8574100
  18.7056560  34.1016170  37.6492390  17.7583040  34.3127810  38.8110550
  17.8545740  35.0045650  40.4830810  17.0597240  34.9390770  41.0123720
  18.0589020  35.9396290  40.4716160  14.7964160  49.0437200  44.4769200
  15.3923230  48.7221770  43.8003620  15.0542310  48.5709020  45.2682470
   6.4032760  47.0314700  50.2269550   6.1624120  47.2989260  49.3400070
   7.3435400  47.2020430  50.2820410  17.6636920  49.0509080  51.0280190
  17.1695200  49.4477950  50.3107320  17.0550210  48.4258290  51.4217470
   2.5414760  48.4217360  51.7457610   1.9475080  48.2902060  52.4847650
   2.5338600  47.5855500  51.2799710  11.9869780  31.7149590  49.9487640
  11.1129620  32.0484700  49.7460570  11.8780530  31.2422770  50.7739510
  12.8941760  33.9220460  51.3329360  12.5655120  33.1072220  50.9531090
  13.8424060  33.8790270  51.2095050  15.3476370  49.6932500  48.3066930
  14.8879340  50.4448310  47.9324950  14.7188830  48.9738970  48.2481730
   5.7772090  48.0020740  47.4815060   6.2937110  47.3908100  46.9563320
   6.4269470  48.5049520  47.9726070   8.5167590  48.8929230  48.3084040
   8.8045400  48.6383530  47.4317050   9.0290810  48.3406590  48.8989610
   9.7344600  32.6319430  48.8880550   8.9516390  33.1064930  49.1677310
   9.4407530  31.7274260  48.7793730  14.2865670  33.3342530  46.9329640
  14.7273760  33.2787630  46.0851240  14.0173260  34.2500540  47.0039820
  16.1504240  32.9657770  44.9438460  16.0892640  32.0218990  44.7969480
  16.9296270  33.0737860  45.4891920   7.6198820  35.0506180  44.3996580
   6.8073330  34.6763070  44.0592460   8.1240460  34.2951260  44.7017770
  12.1223800  31.7148630  45.6379650  12.7253170  32.2868840  46.1128170
  11.3816790  32.2788070  45.4153550  15.2658400  32.1170190  40.9119930
  15.4609030  33.0153640  41.1787360  14.4788270  31.8857270  41.4052880
   3.4510160  33.4630960  39.9496240   3.9802920  32.6760760  39.8204190
   4.0838480  34.1422150  40.1831770   5.6448000  33.2006100  43.0041630
   5.0150740  32.4993410  43.1711760   5.1053140  33.9610230  42.7874790
  16.8185010  49.3570900  42.6726490  16.9937200  48.6708640  42.0287410
  16.1206580  49.8817950  42.2803160   4.6612660  49.7465740  40.2261800
   5.3931480  49.4625020  39.6785690   4.9206330  49.5079020  41.1161180
   3.8227450  45.8630470  40.2308130   3.1936330  46.3315570  40.7793960
   3.9375280  45.0179690  40.6654320  11.2777170  39.9136130  26.3809330
  11.1971220  38.9990740  26.1101040  10.8641590  40.4103200  25.6749040
   9.4095210  41.6915150  28.2618600   8.6337310  41.2115590  28.5517170
  10.0608140  41.0120800  28.0874760   3.4261040  42.0034960  29.1394360
   2.5945920  41.7483670  29.5390870   4.0342020  42.0745730  29.8752280
  13.4302640  46.0975340  27.0417730  12.9684170  45.3262580  27.3704900
  14.2428190  46.1241410  27.5470180   3.4062300  46.0375050  29.3352380
   3.7090340  45.1472790  29.1562600   4.1505890  46.5945270  29.1074630
   9.6565950  48.3833350  26.6621720   9.0377390  48.8390850  26.0916160
  10.5117730  48.5384810  26.2611420   8.8504200  44.3672340  28.2688760
   8.7812480  43.4262280  28.1077890   9.6124060  44.4573750  28.8411330
   9.8809370  37.1742720  28.4957690  10.2574190  36.3014600  28.3831360
   9.7828880  37.5101420  27.6048130   4.0114380  35.5468350  23.9575130
   4.1181130  36.4472080  24.2643890   3.1006740  35.4986320  23.6669780
  13.6633490  34.6693160  25.4286030  14.4843110  34.1789730  25.4711510
  13.6967570  35.2590820  26.1817870   5.8522110  38.5154720  28.2900310
   6.3600330  39.0135690  28.9305330   6.3835350  37.7389920  28.1139670
  17.9533040  36.6859910  31.9929660  17.2485210  37.0741620  31.4744770
  18.2190960  37.3810200  32.5950590   4.1358210  33.1553280  32.5563730
   4.1376650  33.6725670  31.7509630   3.3062520  32.6783460  32.5333660
  10.5229300  43.2672590  24.0553630   9.9046570  43.7322040  23.4916350
  11.0352550  43.9600070  24.4723140   5.3861060  42.7948460  30.7337230
   5.0530440  43.4217380  31.3758300   5.5627740  43.3210340  29.9538900
  13.8994970  36.6093540  28.2013570  13.1950540  36.8978430  28.7816680
  14.2607130  37.4193650  27.8413130   3.8173540  34.8663240  30.5634180
   4.1590350  35.7105290  30.2688050   2.8789350  35.0146980  30.6799520
   4.5980160  44.7629260  32.5486410   5.2154160  45.4380340  32.2670860
   3.7373280  45.1717240  32.4573910  15.5157750  46.2268670  30.4641050
  14.8321270  46.8967780  30.4557720  16.0552040  46.4249320  29.6985910
  16.9681890  36.0548330  28.5922780  16.0206800  36.0887310  28.7238210
  17.2931880  36.8687280  28.9772140   7.5001430  32.3545510  26.8878770
   7.8076410  31.7992400  26.1714270   6.5702130  32.4889970  26.7051760
  13.0516490  48.0712800  29.1786230  13.0643650  47.6675090  28.3108490
  12.4991710  48.8460090  29.0747660  14.3461910  44.7929020  24.2676400
  14.2358240  43.8503350  24.3925820  14.3430160  45.1544660  25.1539160
  12.4501930  42.9742640  30.5068840  12.8670720  42.7602750  29.6722300
  13.1741750  43.2315430  31.0777460   9.8882190  40.4194340  23.6238890
   8.9611470  40.3531720  23.8527360  10.0407010  41.3574470  23.5094130
   9.8751270  36.6911340  20.6206050   8.9354940  36.8525300  20.7058510
  10.1934530  37.4097020  20.0742040  16.3964030  41.3729860  30.5985080
  15.5682660  41.4422950  30.1235210  16.9914510  41.9584170  30.1300910
  13.9179480  41.9814640  24.1274140  13.2991900  41.6434190  23.4800440
  13.9003930  41.3374400  24.8353330  13.3606040  38.1599180  31.5439950
  12.9477220  38.9852890  31.7979940  12.6281990  37.5744220  31.3516310
   5.4938830  40.9459080  26.4058620   5.0895830  40.2336330  25.9104520
   5.5801950  40.6012320  27.2946660   5.9620530  44.6326640  28.5697830
   5.6648820  44.0272110  27.8905610   6.9120350  44.6703950  28.4587190
   4.2067450  37.7202290  30.1857660   4.7582040  37.8297630  29.4110910
   4.7210960  38.0939890  30.9012890  14.0506140  48.2058510  32.2320930
  13.5736700  49.0130700  32.0393540  13.3667930  47.5536840  32.3847140
   5.0538960  44.3708330  35.2205630   4.1567490  44.5948300  35.4679030
   5.0791830  44.4943270  34.2717030  12.0944180  41.2201450  21.1346890
  12.5337460  40.3823880  20.9884710  12.8072600  41.8530850  21.2211030
   3.8810180  41.2421650  33.7963000   3.7417950  42.1144450  34.1650400
   2.9991540  40.8994460  33.6510940  10.2039560  46.1597520  25.1028130
  10.6435470  46.9021850  24.6883520  10.1426450  46.4024090  26.0267090
   5.6790530  47.1843350  36.0048150   5.6505960  47.5886300  35.1376580
   5.5155500  46.2553710  35.8419750  15.6761320  32.4744260  19.4487930
  15.3633980  32.5671090  20.3487000  16.4373790  33.0525290  19.3985360
   2.1943460  39.8404060  23.9065270   2.0741060  40.5666150  23.2946540
   1.8844350  39.0706970  23.4293180  17.6305350  47.9670450  37.3012320
  18.1065070  48.4453340  37.9801400  18.2512510  47.8987940  36.5757820
  17.0338600  45.1583300  34.4612330  17.1601660  44.9195180  33.5429510
  17.0759980  44.3267840  34.9334410  10.8955340  48.8611300  33.0307140
  11.4100010  48.7719310  33.8329570  10.0524420  49.2071000  33.3235050
  12.8709740  49.1466640  22.4591140  12.7110880  48.8569580  23.3572970
  12.7056450  48.3706770  21.9236370   5.3498120  48.9265170  24.2362760
   5.1740600  48.0100710  24.0230560   4.4953860  49.2852460  24.4760560
  12.5735870  46.6554200  21.0189140  11.8801030  46.6531490  20.3591420
  13.3158730  46.2313520  20.5883310  12.1385800  48.2816910  25.0937630
  12.5942750  47.5006290  25.4076250  12.4778320  48.9923730  25.6378810
  16.8862610  37.2115760  35.4262070  16.2706880  37.7195430  34.8977530
  16.5659030  36.3114090  35.3688010   4.6607120  33.1839130  27.2888940
   4.2175270  33.9648670  26.9573460   5.2192110  33.5069020  27.9959880
   8.9476930  36.0507650  32.8924260   8.4856300  36.2590670  33.7044200
   8.5455040  35.2367000  32.5894930  13.9481440  37.2716600  34.0220920
  13.0975030  36.9722350  34.3429990  13.7883230  37.5158610  33.1104740
  11.0431150  38.7718350  36.1219710  11.3684560  37.9382100  35.7821940
  11.8311480  39.2946870  36.2698040   7.7765940  32.8049830  22.1694770
   7.1520120  32.8009700  22.8948080   7.6896060  31.9380790  21.7730740
   6.6983020  33.7286460  29.1478540   6.9955350  34.6349290  29.0670560
   7.2468580  33.2405240  28.5338110   4.4521340  38.3072700  25.0170190
   4.2262260  38.0909870  25.9216810   3.6713870  38.7401160  24.6716160
  11.6819100  38.3136070  23.6160840  11.0827990  39.0371870  23.4324460
  12.2298710  38.2512850  22.8337290   6.8920550  39.2058280  35.6830460
   6.7964150  38.2653010  35.5330860   7.7352530  39.4273350  35.2878530
  10.2883970  36.9499610  25.6464120  10.6813540  37.2671810  24.8332810
  10.6500820  36.0711490  25.7608640   8.5976140  35.7006920  36.9060980
   7.9074460  35.5079120  37.5407070   9.3408440  35.9841560  37.4385280
  10.8739110  39.5405360  29.7414900  10.1420230  40.0492170  30.0905000
  10.4763450  38.7235340  29.4403680   7.3116500  36.2159560  28.1467390
   7.3152560  35.7749510  27.2971930   8.2067620  36.5376890  28.2539210
   3.1618880  36.0986050  27.1061600   2.8218930  36.5761280  27.8628650
   2.3996200  35.6451170  26.7462700   7.3736650  37.2171640  21.1374150
   7.4949470  37.1758120  22.0859970   6.9885160  38.0795790  20.9820880
  11.3365020  34.9939040  29.1537840  11.3537760  35.4447690  29.9979690
  11.0880600  34.0944680  29.3671280   6.3858150  39.5272780  20.5357450
   5.8175050  39.0791030  19.9093360   7.0947150  39.8865560  20.0022600
  14.7635770  32.4071220  34.9924220  15.0881540  31.6760880  35.5182200
  14.7992280  32.0884860  34.0905210   7.6124470  40.2761340  29.8932800
   7.9794600  39.8019910  30.6394140   7.4229530  41.1502910  30.2341140
   5.4023840  39.3169980  32.2117010   5.0980910  40.1961960  32.4367370
   6.3570300  39.3769770  32.2474450   3.9305630  43.5230970  22.8083860
   3.1567890  42.9828590  22.6482580   4.6600260  43.0037580  22.4701620
  14.6893610  42.5196330  28.6010250  15.4092730  43.0151620  28.2106360
  14.4875430  41.8414220  27.9564120  10.1503550  33.9134290  22.7439640
   9.3368160  33.4147460  22.6684950   9.9565500  34.7532540  22.3275990
  10.0712410  42.5905390  34.4879250  10.0049720  41.6701060  34.2336840
   9.4417550  42.6880830  35.2023890  12.8651940  38.2853940  21.0401800
  13.7531560  38.5971170  20.8653140  12.8357030  37.4126190  20.6482380
   3.9743030  43.1911350  26.4462670   4.4921700  42.3879610  26.3919560
   3.5227050  43.1290490  27.2879500   8.8612530  44.4577630  21.7189970
   9.2028230  45.2019860  21.2233290   8.0325240  44.7708750  22.0814800
   4.6600690  40.6156960  36.2427920   4.3600830  40.7614140  35.3455740
   5.4311930  40.0562250  36.1501310  10.0029140  45.4125960  34.2383050
  10.0173680  44.4806920  34.0201960   9.2954240  45.4985720  34.8772820
  15.1366210  39.5965780  20.5081660  15.0529930  40.0280000  19.6578100
  15.8560400  40.0564130  20.9408480  16.2140350  42.0533300  33.5851630
  15.4888540  42.6462080  33.3881020  16.7415810  42.0456840  32.7865000
  16.1653460  46.4508040  23.2363790  15.5229620  45.7963660  23.5107510
  15.7784120  46.8563130  22.4604460  11.7439940  43.7793470  27.0835480
  12.0963760  43.1821600  26.4236850  10.8602270  43.4537700  27.2543730
   7.8303220  44.5391160  24.4905890   8.5174350  45.0860370  24.8713480
   7.0435640  45.0831890  24.5255500   7.1330430  41.5437190  24.1031250
   7.5893210  42.3542440  24.3291440   6.7818640  41.2260330  24.9349740
   9.4363040  47.0543530  31.3323550  10.0805260  47.2602910  32.0096970
   9.7992480  46.2931930  30.8794400   3.0342210  31.8874840  24.5753770
   2.9056840  31.8792740  25.5238690   2.2104230  32.2257930  24.2244780
  10.7095120  45.0575880  30.0501000  11.3517350  44.3569040  30.1633170
  11.2344470  45.8374320  29.8697890  14.5550840  45.3424500  19.7740140
  14.3288420  44.6254940  20.3664780  14.1647040  45.0936940  18.9361890
  12.4832740  45.8570780  33.2537060  12.8188980  46.4437470  33.9314980
  11.5633080  45.7263490  33.4834850  14.1367090  43.2596440  21.4354300
  13.8488790  43.7209130  22.2232180  14.9319260  42.7994210  21.7038520
   8.3121320  45.9062110  36.4225120   7.9918190  45.1871350  36.9670810
   7.6379680  46.5817180  36.4961180   6.3535490  46.7522560  21.3658270
   6.3445590  47.4852250  20.7502780   5.4333850  46.5054140  21.4585230
  11.5274920  36.1388270  31.7861920  11.8955740  35.3183480  32.1141490
  10.6673120  36.1990160  32.2017570  14.8936950  35.0945210  22.5949480
  14.2650110  35.1990880  21.8807710  14.3988870  35.3141990  23.3843360
   9.3395090  46.8150800  20.0283460   9.4407070  46.6114790  19.0985440
   8.4396830  46.5609080  20.2331240   6.8620980  37.3731160  24.0107360
   6.1537130  37.8417500  24.4520970   7.1465460  36.7153170  24.6452550
   8.4876910  38.7927860  32.0099890   8.9862160  39.2673680  32.6751740
   8.6299860  37.8691380  32.2169920  10.8936410  34.0981820  25.4503150
  10.7704190  34.1167950  24.5012660  11.8420970  34.1460760  25.5701550
   7.9813200  49.3337120  24.7231130   8.2354700  49.2958510  23.8010500
   7.0325680  49.2070450  24.7159380   5.0656000  35.6816240  21.3858070
   5.9146530  36.1186390  21.3198260   4.6987270  35.9936500  22.2130130
  15.6943770  35.0095820  32.8528280  15.1917370  35.7501220  33.1922090
  16.5100430  35.3979820  32.5365070  13.9865780  40.2529000  26.2989640
  13.0455920  40.2679230  26.4737330  14.3009850  39.4664960  26.7449940
   3.9647420  41.9348600  19.8593600   4.7310690  41.8229960  20.4219030
   4.0422110  41.2386570  19.2070370   2.6594180  39.3673670  20.5426490
   2.7397770  38.4201180  20.6543890   3.5513930  39.6980550  20.6487150
  15.9891360  47.4237850  27.9743900  16.1138780  48.2469020  28.4467710
  16.8556920  47.2128580  27.6268050   3.4608890  49.5169060  27.6461030
   4.1971370  48.9684520  27.9169600   3.8449810  50.3825070  27.5067020
   2.4667170  48.7015130  36.8346610   3.2679900  49.0227180  37.2482010
   1.9518990  48.3410710  37.5566520   6.5711200  48.6899370  19.4686600
   7.3639810  48.9788200  19.0168390   6.0515550  48.2591540  18.7899080
  11.3031800  44.8095000  36.7822020  10.6969960  44.8326600  36.0417770
  10.9985910  44.0778040  37.3189270  12.7332170  48.5375290  35.3931430
  13.6853920  48.4533310  35.3431670  12.5860390  49.2017000  36.0665220
  15.6241370  47.9169500  20.8923340  15.3382880  47.5034640  20.0777520
  15.4260920  48.8457210  20.7723860   7.0888600  43.9102780  19.3328950
   6.9839240  43.2955130  20.0590330   6.9212820  43.3868670  18.5491960
   7.2402920  42.5959580  35.3118180   6.4748590  43.1644580  35.2272850
   7.4218880  42.3035790  34.4186410  10.3291330  42.9722810  19.9370940
   9.7801430  43.4192110  20.5813680  10.9510590  42.4672060  20.4608610
  14.3826270  44.3264910  35.8693200  15.1235740  44.6640670  35.3660660
  13.6198950  44.4956970  35.3162970   2.2188060  39.3318180  36.6732730
   2.2593400  39.0332050  37.5817960   3.0733560  39.7325790  36.5140250
   5.9966450  41.9313730  21.8336240   6.4182870  41.7653600  22.6767630
   6.1217290  41.1213960  21.3391380   4.1593870  37.9110280  34.6407220
   3.6290330  37.4201230  34.0130560   4.8281940  38.3394480  34.1065150
   8.5094090  40.9551340  19.0813340   9.0299750  40.2400360  18.7154490
   9.1562490  41.5937210  19.3813850  13.0571930  42.3779740  34.4048410
  13.4712950  42.5324820  35.2538830  12.1222930  42.5034960  34.5674190
  13.5294100  39.7175900  36.4087560  14.1114870  38.9628220  36.3208040
  13.7055870  40.2483340  35.6319040   4.6466170  34.8772650  34.7204510
   4.5523040  34.2593400  33.9955380   4.0663560  35.6038940  34.4934420
   7.4127610  33.4345890  31.7531900   6.9644910  33.4570150  30.9077450
   6.7792810  33.0364910  32.3502200   7.8187160  42.3300220  32.3744340
   8.2375270  43.1732950  32.2020580   6.8995790  42.4672260  32.1451120
  10.1551060  40.0616400  33.7582180  10.2747270  39.4657540  34.4977020
  11.0145060  40.0986090  33.3383480  12.4938960  40.6153590  32.3344690
  11.9674180  41.1396210  31.7309830  12.8370300  41.2480980  32.9654420
   4.8925350  38.0046960  18.7794400   4.6914410  37.1414320  19.1407740
   4.7217400  37.9180320  17.8416000   5.6694580  48.6353230  33.4902070
   5.1315670  49.3599290  33.1710770   5.9228540  48.1583570  32.6999410
   6.9219830  36.6037750  35.0158000   7.5119520  36.2953600  35.7035820
   6.1040070  36.1317500  35.1717900  11.7413260  36.2203560  35.2491020
  11.0528780  35.5585100  35.1841010  12.4619280  35.7741830  35.6939480
  12.3713660  32.8155190  21.3081280  12.6515950  31.9723090  21.6640700
  11.5979390  33.0478300  21.8220030   3.6908150  35.1047580  18.7672280
   3.9934050  35.1115010  17.8591430   4.4302740  34.7545440  19.2639940
   8.5256790  49.8704440  33.7488720   8.4515490  50.7739580  34.0561090
   7.6235630  49.5516340  33.7210790   6.9093080  34.0482200  19.7528480
   6.5615080  33.3706190  19.1730930   7.1105850  33.5871710  20.5671870
   9.0742120  49.0362950  21.3715080   9.9692910  49.3747920  21.3933840
   9.1059750  48.3142360  20.7439360   2.7138280  44.4090000  19.6002080
   3.1513150  44.9519670  20.2559660   3.1986010  43.5836950  19.6098420
   4.5246000  45.5288040  24.7124310   4.2241540  45.4053010  25.6128220
   4.4183490  44.6696630  24.3040040  16.0536470  47.5666620  34.0781280
  15.4538460  47.6259180  33.3345200  16.1830370  46.6271600  34.2078130
  17.2937920  45.3084440  19.4150990  16.4630880  45.3761090  19.8858220
  17.4709750  46.1988560  19.1117850  16.7494380  42.0531920  21.9185190
  17.5113290  42.6228570  22.0244880  16.7648750  41.4859120  22.6893500
  17.7554350  42.9082020  26.7627120  18.1263180  42.1249340  26.3563090
  18.3956280  43.5971120  26.5844420  14.7388110  44.2918600  32.1757440
  13.9247950  44.7215760  32.4383230  15.1462310  44.9037010  31.5626490
  16.8013550  42.3466290  19.0757710  17.0762390  43.2545170  18.9476930
  16.6124290  42.2828820  20.0119700  13.1989160  35.3711140  20.3711340
  13.6174040  35.1842120  19.5308000  12.8925220  34.5190190  20.6814270
  16.6978890  40.2835280  24.0687140  16.3222490  39.5163210  23.6368430
  15.9682010  40.6657980  24.5562070  16.0878510  39.4306800  33.7026660
  15.8564600  39.2019550  32.8024610  16.3483060  40.3506350  33.6571550
  14.5266580  34.6563230  36.4806360  15.4036760  34.6646630  36.8640360
  14.5387420  33.9194070  35.8698710  15.9729850  38.5092770  27.3694380
  16.4967330  38.0155420  26.7384550  16.5589270  38.6443130  28.1141950
  16.1519570  38.5932640  30.8913930  15.2022280  38.5596180  31.0058920
  16.3332580  39.5032750  30.6563700  15.4629820  37.7666120  23.3086790
  15.9588940  37.5336990  24.0935670  15.2645890  36.9277960  22.8924430
  16.8916980  36.4027070  25.8424470  16.7816260  36.2483110  26.7806740
  17.6524570  35.8748010  25.5999880  15.2382700  32.3421200  32.3007470
  15.8754920  32.9555340  32.6666660  15.3857590  32.3781860  31.3556700
  17.7807250  34.2334990  19.0830610  18.7056560  34.1016170  18.8748900
  17.7583040  34.3127810  20.0367060  17.8545740  35.0045650  21.7087320
  17.0597240  34.9390770  22.2380230  18.0589020  35.9396290  21.6972670
  14.7964160  49.0437200  25.7025710  15.3923230  48.7221770  25.0260130
  15.0542310  48.5709020  26.4938980   2.7026730  45.4755110  35.8516340
   2.6596360  45.1048020  36.7330800   2.8337740  46.4132680  35.9918160
   6.4032760  47.0314700  31.4526060   6.1624120  47.2989260  30.5656580
   7.3435400  47.2020430  31.5076920   8.6087180  33.4947390  35.2082570
   8.5476070  34.0869220  35.9577980   9.5487560  33.3873350  35.0632830
  11.2461740  33.1517450  34.8474860  11.8602150  33.4696740  34.1855940
  11.7911300  32.6666040  35.4670720  17.6636920  49.0509080  32.2536700
  17.1695200  49.4477950  31.5363830  17.0550210  48.4258290  32.6473980
   1.7683000  31.8311710  34.9613920   2.3165990  31.6499760  34.1980030
   1.8338310  31.0405820  35.4970230   2.5414760  48.4217360  32.9714120
   1.9475080  48.2902060  33.7104160   2.5338600  47.5855500  32.5056220
  11.9869780  31.7149590  31.1744150  11.1129620  32.0484700  30.9717080
  11.8780530  31.2422770  31.9996020  12.8941760  33.9220460  32.5585870
  12.5655120  33.1072220  32.1787600  13.8424060  33.8790270  32.4351560
  15.3476370  49.6932500  29.5323440  14.8879340  50.4448310  29.1581460
  14.7188830  48.9738970  29.4738240   5.7772090  48.0020740  28.7071570
   6.2937110  47.3908100  28.1819830   6.4269470  48.5049520  29.1982580
   8.5167590  48.8929230  29.5340550   8.8045400  48.6383530  28.6573560
   9.0290810  48.3406590  30.1246120   9.7344600  32.6319430  30.1137060
   8.9516390  33.1064930  30.3933820   9.4407530  31.7274260  30.0050240
  14.2865670  33.3342530  28.1586150  14.7273760  33.2787630  27.3107750
  14.0173260  34.2500540  28.2296330  16.1504240  32.9657770  26.1694970
  16.0892640  32.0218990  26.0225990  16.9296270  33.0737860  26.7148430
   7.6198820  35.0506180  25.6253090   6.8073330  34.6763070  25.2848970
   8.1240460  34.2951260  25.9274280  12.1223800  31.7148630  26.8636160
  12.7253170  32.2868840  27.3384680  11.3816790  32.2788070  26.6410060
  15.2658400  32.1170190  22.1376440  15.4609030  33.0153640  22.4043870
  14.4788270  31.8857270  22.6309390   3.4510160  33.4630960  21.1752750
   3.9802920  32.6760760  21.0460700   4.0838480  34.1422150  21.4088280
   5.6448000  33.2006100  24.2298140   5.0150740  32.4993410  24.3968270
   5.1053140  33.9610230  24.0131300   8.5839950  49.8145330  36.9008750
   9.5107260  49.5789600  36.9444710   8.5690380  50.6417330  36.4194780
  16.8185010  49.3570900  23.8983000  16.9937200  48.6708640  23.2543920
  16.1206580  49.8817950  23.5059670   5.7703560  32.4790080  36.6650630
   5.4887830  32.9823680  35.9011450   6.1523260  31.6811830  36.2992760
   4.6612660  49.7465740  21.4518310   5.3931480  49.4625020  20.9042200
   4.9206330  49.5079020  22.3417690   3.8227450  45.8630470  21.4564640
   3.1936330  46.3315570  22.0050470   3.9375280  45.0179690  21.8910830
  12.3719020  31.8943660  37.2431100  12.2584470  32.2138270  38.1382620
  13.1888760  32.2956170  36.9468380  15.1517510  49.0415190  36.7249790
  15.9442830  48.5464420  36.5175750  15.4450660  49.7205330  37.3325400
  11.2777170  39.9136130   7.6065840  11.1971220  38.9990740   7.3357550
  10.8641590  40.4103200   6.9005550   9.4095210  41.6915150   9.4875110
   8.6337310  41.2115590   9.7773680  10.0608140  41.0120800   9.3131270
   3.4261040  42.0034960  10.3650870   2.5945920  41.7483670  10.7647380
   4.0342020  42.0745730  11.1008790  13.4302640  46.0975340   8.2674240
  12.9684170  45.3262580   8.5961410  14.2428190  46.1241410   8.7726690
   3.4062300  46.0375050  10.5608890   3.7090340  45.1472790  10.3819110
   4.1505890  46.5945270  10.3331140   9.6565950  48.3833350   7.8878230
   9.0377390  48.8390850   7.3172670  10.5117730  48.5384810   7.4867930
   8.8504200  44.3672340   9.4945270   8.7812480  43.4262280   9.3334400
   9.6124060  44.4573750  10.0667840   9.8809370  37.1742720   9.7214200
  10.2574190  36.3014600   9.6087870   9.7828880  37.5101420   8.8304640
   4.0114380  35.5468350   5.1831640   4.1181130  36.4472080   5.4900400
   3.1006740  35.4986320   4.8926290  13.6633490  34.6693160   6.6542540
  14.4843110  34.1789730   6.6968020  13.6967570  35.2590820   7.4074380
   5.8522110  38.5154720   9.5156820   6.3600330  39.0135690  10.1561840
   6.3835350  37.7389920   9.3396180  17.9533040  36.6859910  13.2186170
  17.2485210  37.0741620  12.7001280  18.2190960  37.3810200  13.8207100
   4.1358210  33.1553280  13.7820240   4.1376650  33.6725670  12.9766140
   3.3062520  32.6783460  13.7590170  10.5229300  43.2672590   5.2810140
   9.9046570  43.7322040   4.7172860  11.0352550  43.9600070   5.6979650
   5.3861060  42.7948460  11.9593740   5.0530440  43.4217380  12.6014810
   5.5627740  43.3210340  11.1795410  13.8994970  36.6093540   9.4270080
  13.1950540  36.8978430  10.0073190  14.2607130  37.4193650   9.0669640
   3.8173540  34.8663240  11.7890690   4.1590350  35.7105290  11.4944560
   2.8789350  35.0146980  11.9056030   4.5980160  44.7629260  13.7742920
   5.2154160  45.4380340  13.4927370   3.7373280  45.1717240  13.6830420
  15.5157750  46.2268670  11.6897560  14.8321270  46.8967780  11.6814230
  16.0552040  46.4249320  10.9242420  16.9681890  36.0548330   9.8179290
  16.0206800  36.0887310   9.9494720  17.2931880  36.8687280  10.2028650
   7.5001430  32.3545510   8.1135280   7.8076410  31.7992400   7.3970780
   6.5702130  32.4889970   7.9308270  13.0516490  48.0712800  10.4042740
  13.0643650  47.6675090   9.5365000  12.4991710  48.8460090  10.3004170
  14.3461910  44.7929020   5.4932910  14.2358240  43.8503350   5.6182330
  14.3430160  45.1544660   6.3795670  12.4501930  42.9742640  11.7325350
  12.8670720  42.7602750  10.8978810  13.1741750  43.2315430  12.3033970
   9.8882190  40.4194340   4.8495400   8.9611470  40.3531720   5.0783870
  10.0407010  41.3574470   4.7350640  16.3964030  41.3729860  11.8241590
  15.5682660  41.4422950  11.3491720  16.9914510  41.9584170  11.3557420
  13.9179480  41.9814640   5.3530650  13.2991900  41.6434190   4.7056950
  13.9003930  41.3374400   6.0609840  13.3606040  38.1599180  12.7696460
  12.9477220  38.9852890  13.0236450  12.6281990  37.5744220  12.5772820
   5.4938830  40.9459080   7.6315130   5.0895830  40.2336330   7.1361030
   5.5801950  40.6012320   8.5203170   5.9620530  44.6326640   9.7954340
   5.6648820  44.0272110   9.1162120   6.9120350  44.6703950   9.6843700
   4.2067450  37.7202290  11.4114170   4.7582040  37.8297630  10.6367420
   4.7210960  38.0939890  12.1269400  14.0506140  48.2058510  13.4577440
  13.5736700  49.0130700  13.2650050  13.3667930  47.5536840  13.6103650
   5.0538960  44.3708330  16.4462140   4.1567490  44.5948300  16.6935540
   5.0791830  44.4943270  15.4973540  12.0944180  41.2201450   2.3603400
  12.5337460  40.3823880   2.2141220  12.8072600  41.8530850   2.4467540
   3.8810180  41.2421650  15.0219510   3.7417950  42.1144450  15.3906910
   2.9991540  40.8994460  14.8767450  10.2039560  46.1597520   6.3284640
  10.6435470  46.9021850   5.9140030  10.1426450  46.4024090   7.2523600
   5.6790530  47.1843350  17.2304660   5.6505960  47.5886300  16.3633090
   5.5155500  46.2553710  17.0676260   2.1943460  39.8404060   5.1321780
   2.0741060  40.5666150   4.5203050   1.8844350  39.0706970   4.6549690
  17.6305350  47.9670450  18.5268830  18.1065070  48.4453340  19.2057910
  18.2512510  47.8987940  17.8014330  17.0338600  45.1583300  15.6868840
  17.1601660  44.9195180  14.7686020  17.0759980  44.3267840  16.1590920
  10.8955340  48.8611300  14.2563650  11.4100010  48.7719310  15.0586080
  10.0524420  49.2071000  14.5491560  12.8709740  49.1466640   3.6847650
  12.7110880  48.8569580   4.5829480  12.7056450  48.3706770   3.1492880
   5.3498120  48.9265170   5.4619270   5.1740600  48.0100710   5.2487070
   4.4953860  49.2852460   5.7017070  12.1385800  48.2816910   6.3194140
  12.5942750  47.5006290   6.6332760  12.4778320  48.9923730   6.8635320
  16.8862610  37.2115760  16.6518580  16.2706880  37.7195430  16.1234040
  16.5659030  36.3114090  16.5944520   4.6607120  33.1839130   8.5145450
   4.2175270  33.9648670   8.1829970   5.2192110  33.5069020   9.2216390
   8.9476930  36.0507650  14.1180770   8.4856300  36.2590670  14.9300710
   8.5455040  35.2367000  13.8151440  13.9481440  37.2716600  15.2477430
  13.0975030  36.9722350  15.5686500  13.7883230  37.5158610  14.3361250
  11.0431150  38.7718350  17.3476220  11.3684560  37.9382100  17.0078450
  11.8311480  39.2946870  17.4954550   7.7765940  32.8049830   3.3951280
   7.1520120  32.8009700   4.1204590   7.6896060  31.9380790   2.9987250
   6.6983020  33.7286460  10.3735050   6.9955350  34.6349290  10.2927070
   7.2468580  33.2405240   9.7594620   4.4521340  38.3072700   6.2426700
   4.2262260  38.0909870   7.1473320   3.6713870  38.7401160   5.8972670
  11.6819100  38.3136070   4.8417350  11.0827990  39.0371870   4.6580970
  12.2298710  38.2512850   4.0593800   6.8920550  39.2058280  16.9086970
   6.7964150  38.2653010  16.7587370   7.7352530  39.4273350  16.5135040
  10.2883970  36.9499610   6.8720630  10.6813540  37.2671810   6.0589320
  10.6500820  36.0711490   6.9865150   8.5976140  35.7006920  18.1317490
   7.9074460  35.5079120  18.7663580   9.3408440  35.9841560  18.6641790
  10.8739110  39.5405360  10.9671410  10.1420230  40.0492170  11.3161510
  10.4763450  38.7235340  10.6660190   7.3116500  36.2159560   9.3723900
   7.3152560  35.7749510   8.5228440   8.2067620  36.5376890   9.4795720
   3.1618880  36.0986050   8.3318110   2.8218930  36.5761280   9.0885160
   2.3996200  35.6451170   7.9719210   7.3736650  37.2171640   2.3630660
   7.4949470  37.1758120   3.3116480   6.9885160  38.0795790   2.2077390
  11.3365020  34.9939040  10.3794350  11.3537760  35.4447690  11.2236200
  11.0880600  34.0944680  10.5927790  14.7635770  32.4071220  16.2180730
  15.0881540  31.6760880  16.7438710  14.7992280  32.0884860  15.3161720
   7.6124470  40.2761340  11.1189310   7.9794600  39.8019910  11.8650650
   7.4229530  41.1502910  11.4597650   5.4023840  39.3169980  13.4373520
   5.0980910  40.1961960  13.6623880   6.3570300  39.3769770  13.4730960
   3.9305630  43.5230970   4.0340370   3.1567890  42.9828590   3.8739090
   4.6600260  43.0037580   3.6958130  14.6893610  42.5196330   9.8266760
  15.4092730  43.0151620   9.4362870  14.4875430  41.8414220   9.1820630
  10.1503550  33.9134290   3.9696150   9.3368160  33.4147460   3.8941460
   9.9565500  34.7532540   3.5532500  10.0712410  42.5905390  15.7135760
  10.0049720  41.6701060  15.4593350   9.4417550  42.6880830  16.4280400
  12.8651940  38.2853940   2.2658310  13.7531560  38.5971170   2.0909650
  12.8357030  37.4126190   1.8738890   3.9743030  43.1911350   7.6719180
   4.4921700  42.3879610   7.6176070   3.5227050  43.1290490   8.5136010
   8.8612530  44.4577630   2.9446480   9.2028230  45.2019860   2.4489800
   8.0325240  44.7708750   3.3071310   4.6600690  40.6156960  17.4684430
   4.3600830  40.7614140  16.5712250   5.4311930  40.0562250  17.3757820
  10.0029140  45.4125960  15.4639560  10.0173680  44.4806920  15.2458470
   9.2954240  45.4985720  16.1029330  16.2140350  42.0533300  14.8108140
  15.4888540  42.6462080  14.6137530  16.7415810  42.0456840  14.0121510
  16.1653460  46.4508040   4.4620300  15.5229620  45.7963660   4.7364020
  15.7784120  46.8563130   3.6860970  11.7439940  43.7793470   8.3091990
  12.0963760  43.1821600   7.6493360  10.8602270  43.4537700   8.4800240
   7.8303220  44.5391160   5.7162400   8.5174350  45.0860370   6.0969990
   7.0435640  45.0831890   5.7512010   7.1330430  41.5437190   5.3287760
   7.5893210  42.3542440   5.5547950   6.7818640  41.2260330   6.1606250
   9.4363040  47.0543530  12.5580060  10.0805260  47.2602910  13.2353480
   9.7992480  46.2931930  12.1050910   3.0342210  31.8874840   5.8010280
   2.9056840  31.8792740   6.7495200   2.2104230  32.2257930   5.4501290
  10.7095120  45.0575880  11.2757510  11.3517350  44.3569040  11.3889680
  11.2344470  45.8374320  11.0954400  12.4832740  45.8570780  14.4793570
  12.8188980  46.4437470  15.1571490  11.5633080  45.7263490  14.7091360
  14.1367090  43.2596440   2.6610810  13.8488790  43.7209130   3.4488690
  14.9319260  42.7994210   2.9295030   8.3121320  45.9062110  17.6481630
   7.9918190  45.1871350  18.1927320   7.6379680  46.5817180  17.7217690
   6.3535490  46.7522560   2.5914780   6.3445590  47.4852250   1.9759290
   5.4333850  46.5054140   2.6841740  11.5274920  36.1388270  13.0118430
  11.8955740  35.3183480  13.3398000  10.6673120  36.1990160  13.4274080
  14.8936950  35.0945210   3.8205990  14.2650110  35.1990880   3.1064220
  14.3988870  35.3141990   4.6099870   6.8620980  37.3731160   5.2363870
   6.1537130  37.8417500   5.6777480   7.1465460  36.7153170   5.8709060
   8.4876910  38.7927860  13.2356400   8.9862160  39.2673680  13.9008250
   8.6299860  37.8691380  13.4426430  10.8936410  34.0981820   6.6759660
  10.7704190  34.1167950   5.7269170  11.8420970  34.1460760   6.7958060
   7.9813200  49.3337120   5.9487640   8.2354700  49.2958510   5.0267010
   7.0325680  49.2070450   5.9415890   5.0656000  35.6816240   2.6114580
   5.9146530  36.1186390   2.5454770   4.6987270  35.9936500   3.4386640
  15.6943770  35.0095820  14.0784790  15.1917370  35.7501220  14.4178600
  16.5100430  35.3979820  13.7621580  13.9865780  40.2529000   7.5246150
  13.0455920  40.2679230   7.6993840  14.3009850  39.4664960   7.9706450
   2.6594180  39.3673670   1.7683000   2.7397770  38.4201180   1.8800400
   3.5513930  39.6980550   1.8743660  15.9891360  47.4237850   9.2000410
  16.1138780  48.2469020   9.6724220  16.8556920  47.2128580   8.8524560
   3.4608890  49.5169060   8.8717540   4.1971370  48.9684520   9.1426110
   3.8449810  50.3825070   8.7323530   2.4667170  48.7015130  18.0603120
   3.2679900  49.0227180  18.4738520   1.9518990  48.3410710  18.7823030
  11.3031800  44.8095000  18.0078530  10.6969960  44.8326600  17.2674280
  10.9985910  44.0778040  18.5445780  12.7332170  48.5375290  16.6187940
  13.6853920  48.4533310  16.5688180  12.5860390  49.2017000  17.2921730
   7.2402920  42.5959580  16.5374690   6.4748590  43.1644580  16.4529360
   7.4218880  42.3035790  15.6442920  14.3826270  44.3264910  17.0949710
  15.1235740  44.6640670  16.5917170  13.6198950  44.4956970  16.5419480
   2.2188060  39.3318180  17.8989240   2.2593400  39.0332050  18.8074470
   3.0733560  39.7325790  17.7396760   5.9966450  41.9313730   3.0592750
   6.4182870  41.7653600   3.9024140   6.1217290  41.1213960   2.5647890
   4.1593870  37.9110280  15.8663730   3.6290330  37.4201230  15.2387070
   4.8281940  38.3394480  15.3321660  13.0571930  42.3779740  15.6304920
  13.4712950  42.5324820  16.4795340  12.1222930  42.5034960  15.7930700
  13.5294100  39.7175900  17.6344070  14.1114870  38.9628220  17.5464550
  13.7055870  40.2483340  16.8575550   4.6466170  34.8772650  15.9461020
   4.5523040  34.2593400  15.2211890   4.0663560  35.6038940  15.7190930
   7.4127610  33.4345890  12.9788410   6.9644910  33.4570150  12.1333960
   6.7792810  33.0364910  13.5758710   7.8187160  42.3300220  13.6000850
   8.2375270  43.1732950  13.4277090   6.8995790  42.4672260  13.3707630
  10.1551060  40.0616400  14.9838690  10.2747270  39.4657540  15.7233530
  11.0145060  40.0986090  14.5639990  12.4938960  40.6153590  13.5601200
  11.9674180  41.1396210  12.9566340  12.8370300  41.2480980  14.1910930
   5.6694580  48.6353230  14.7158580   5.1315670  49.3599290  14.3967280
   5.9228540  48.1583570  13.9255920   6.9219830  36.6037750  16.2414510
   7.5119520  36.2953600  16.9292330   6.1040070  36.1317500  16.3974410
  11.7413260  36.2203560  16.4747530  11.0528780  35.5585100  16.4097520
  12.4619280  35.7741830  16.9195990  12.3713660  32.8155190   2.5337790
  12.6515950  31.9723090   2.8897210  11.5979390  33.0478300   3.0476540
   8.5256790  49.8704440  14.9745230   8.4515490  50.7739580  15.2817600
   7.6235630  49.5516340  14.9467300   9.0742120  49.0362950   2.5971590
   9.9692910  49.3747920   2.6190350   9.1059750  48.3142360   1.9695870
   4.5246000  45.5288040   5.9380820   4.2241540  45.4053010   6.8384730
   4.4183490  44.6696630   5.5296550  16.0536470  47.5666620  15.3037790
  15.4538460  47.6259180  14.5601710  16.1830370  46.6271600  15.4334640
  16.7494380  42.0531920   3.1441700  17.5113290  42.6228570   3.2501390
  16.7648750  41.4859120   3.9150010  17.7554350  42.9082020   7.9883630
  18.1263180  42.1249340   7.5819600  18.3956280  43.5971120   7.8100930
  14.7388110  44.2918600  13.4013950  13.9247950  44.7215760  13.6639740
  15.1462310  44.9037010  12.7883000  16.6978890  40.2835280   5.2943650
  16.3222490  39.5163210   4.8624940  15.9682010  40.6657980   5.7818580
  16.0878510  39.4306800  14.9283170  15.8564600  39.2019550  14.0281120
  16.3483060  40.3506350  14.8828060  14.5266580  34.6563230  17.7062870
  15.4036760  34.6646630  18.0896870  14.5387420  33.9194070  17.0955220
  15.9729850  38.5092770   8.5950890  16.4967330  38.0155420   7.9641060
  16.5589270  38.6443130   9.3398460  16.1519570  38.5932640  12.1170440
  15.2022280  38.5596180  12.2315430  16.3332580  39.5032750  11.8820210
  15.4629820  37.7666120   4.5343300  15.9588940  37.5336990   5.3192180
  15.2645890  36.9277960   4.1180940  16.8916980  36.4027070   7.0680980
  16.7816260  36.2483110   8.0063250  17.6524570  35.8748010   6.8256390
  15.2382700  32.3421200  13.5263980  15.8754920  32.9555340  13.8923170
  15.3857590  32.3781860  12.5813210  17.8545740  35.0045650   2.9343830
  17.0597240  34.9390770   3.4636740  18.0589020  35.9396290   2.9229180
  14.7964160  49.0437200   6.9282220  15.3923230  48.7221770   6.2516640
  15.0542310  48.5709020   7.7195490   2.7026730  45.4755110  17.0772850
   2.6596360  45.1048020  17.9587310   2.8337740  46.4132680  17.2174670
   6.4032760  47.0314700  12.6782570   6.1624120  47.2989260  11.7913090
   7.3435400  47.2020430  12.7333430   8.6087180  33.4947390  16.4339080
   8.5476070  34.0869220  17.1834490   9.5487560  33.3873350  16.2889340
  11.2461740  33.1517450  16.0731370  11.8602150  33.4696740  15.4112450
  11.7911300  32.6666040  16.6927230  17.6636920  49.0509080  13.4793210
  17.1695200  49.4477950  12.7620340  17.0550210  48.4258290  13.8730490
   1.7683000  31.8311710  16.1870430   2.3165990  31.6499760  15.4236540
   1.8338310  31.0405820  16.7226740   2.5414760  48.4217360  14.1970630
   1.9475080  48.2902060  14.9360670   2.5338600  47.5855500  13.7312730
  11.9869780  31.7149590  12.4000660  11.1129620  32.0484700  12.1973590
  11.8780530  31.2422770  13.2252530  12.8941760  33.9220460  13.7842380
  12.5655120  33.1072220  13.4044110  13.8424060  33.8790270  13.6608070
  15.3476370  49.6932500  10.7579950  14.8879340  50.4448310  10.3837970
  14.7188830  48.9738970  10.6994750   5.7772090  48.0020740   9.9328080
   6.2937110  47.3908100   9.4076340   6.4269470  48.5049520  10.4239090
   8.5167590  48.8929230  10.7597060   8.8045400  48.6383530   9.8830070
   9.0290810  48.3406590  11.3502630   9.7344600  32.6319430  11.3393570
   8.9516390  33.1064930  11.6190330   9.4407530  31.7274260  11.2306750
  14.2865670  33.3342530   9.3842660  14.7273760  33.2787630   8.5364260
  14.0173260  34.2500540   9.4552840  16.1504240  32.9657770   7.3951480
  16.0892640  32.0218990   7.2482500  16.9296270  33.0737860   7.9404940
   7.6198820  35.0506180   6.8509600   6.8073330  34.6763070   6.5105480
   8.1240460  34.2951260   7.1530790  12.1223800  31.7148630   8.0892670
  12.7253170  32.2868840   8.5641190  11.3816790  32.2788070   7.8666570
  15.2658400  32.1170190   3.3632950  15.4609030  33.0153640   3.6300380
  14.4788270  31.8857270   3.8565900   3.4510160  33.4630960   2.4009260
   3.9802920  32.6760760   2.2717210   4.0838480  34.1422150   2.6344790
   5.6448000  33.2006100   5.4554650   5.0150740  32.4993410   5.6224780
   5.1053140  33.9610230   5.2387810   8.5839950  49.8145330  18.1265260
   9.5107260  49.5789600  18.1701220   8.5690380  50.6417330  17.6451290
  16.8185010  49.3570900   5.1239510  16.9937200  48.6708640   4.4800430
  16.1206580  49.8817950   4.7316180   5.7703560  32.4790080  17.8907140
   5.4887830  32.9823680  17.1267960   6.1523260  31.6811830  17.5249270
   4.6612660  49.7465740   2.6774820   5.3931480  49.4625020   2.1298710
   4.9206330  49.5079020   3.5674200   3.8227450  45.8630470   2.6821150
   3.1936330  46.3315570   3.2306980   3.9375280  45.0179690   3.1167340
  12.3719020  31.8943660  18.4687610  12.2584470  32.2138270  19.3639130
  13.1888760  32.2956170  18.1724890  15.1517510  49.0415190  17.9506300
  15.9442830  48.5464420  17.7432260  15.4450660  49.7205330  18.5581910
  11.2777170  21.1392640  45.1552820  11.1971220  20.2247250  44.8844530
  10.8641590  21.6359710  44.4492530   9.4095210  22.9171660  47.0362090
   8.6337310  22.4372100  47.3260660  10.0608140  22.2377310  46.8618250
   3.4261040  23.2291470  47.9137850   2.5945920  22.9740180  48.3134360
   4.0342020  23.3002240  48.6495770  13.4302640  27.3231850  45.8161220
  12.9684170  26.5519090  46.1448390  14.2428190  27.3497920  46.3213670
   3.4062300  27.2631560  48.1095870   3.7090340  26.3729300  47.9306090
   4.1505890  27.8201780  47.8818120   9.6565950  29.6089860  45.4365210
   9.0377390  30.0647360  44.8659650  10.5117730  29.7641320  45.0354910
   8.8504200  25.5928850  47.0432250   8.7812480  24.6518790  46.8821380
   9.6124060  25.6830260  47.6154820   9.8809370  18.3999230  47.2701180
  10.2574190  17.5271110  47.1574850   9.7828880  18.7357930  46.3791620
   4.0114380  16.7724860  42.7318620   4.1181130  17.6728590  43.0387380
   3.1006740  16.7242830  42.4413270  13.6633490  15.8949670  44.2029520
  14.4843110  15.4046240  44.2455000  13.6967570  16.4847330  44.9561360
   5.8522110  19.7411230  47.0643800   6.3600330  20.2392200  47.7048820
   6.3835350  18.9646430  46.8883160  17.9533040  17.9116420  50.7673150
  17.2485210  18.2998130  50.2488260  18.2190960  18.6066710  51.3694080
   4.1358210  14.3809790  51.3307220   4.1376650  14.8982180  50.5253120
   3.3062520  13.9039970  51.3077150  10.5229300  24.4929100  42.8297120
   9.9046570  24.9578550  42.2659840  11.0352550  25.1856580  43.2466630
   5.3861060  24.0204970  49.5080720   5.0530440  24.6473890  50.1501790
   5.5627740  24.5466850  48.7282390  13.8994970  17.8350050  46.9757060
  13.1950540  18.1234940  47.5560170  14.2607130  18.6450160  46.6156620
   3.8173540  16.0919750  49.3377670   4.1590350  16.9361800  49.0431540
   2.8789350  16.2403490  49.4543010   4.5980160  25.9885770  51.3229900
   5.2154160  26.6636850  51.0414350   3.7373280  26.3973750  51.2317400
  15.5157750  27.4525180  49.2384540  14.8321270  28.1224290  49.2301210
  16.0552040  27.6505830  48.4729400  16.9681890  17.2804840  47.3666270
  16.0206800  17.3143820  47.4981700  17.2931880  18.0943790  47.7515630
   7.5001430  13.5802020  45.6622260   7.8076410  13.0248910  44.9457760
   6.5702130  13.7146480  45.4795250  13.0516490  29.2969310  47.9529720
  13.0643650  28.8931600  47.0851980  12.4991710  30.0716600  47.8491150
  14.3461910  26.0185530  43.0419890  14.2358240  25.0759860  43.1669310
  14.3430160  26.3801170  43.9282650  12.4501930  24.1999150  49.2812330
  12.8670720  23.9859260  48.4465790  13.1741750  24.4571940  49.8520950
   9.8882190  21.6450850  42.3982380   8.9611470  21.5788230  42.6270850
  10.0407010  22.5830980  42.2837620   9.8751270  17.9167850  39.3949540
   8.9354940  18.0781810  39.4802000  10.1934530  18.6353530  38.8485530
  16.3964030  22.5986370  49.3728570  15.5682660  22.6679460  48.8978700
  16.9914510  23.1840680  48.9044400  13.9179480  23.2071150  42.9017630
  13.2991900  22.8690700  42.2543930  13.9003930  22.5630910  43.6096820
  13.3606040  19.3855690  50.3183440  12.9477220  20.2109400  50.5723430
  12.6281990  18.8000730  50.1259800   5.4938830  22.1715590  45.1802110
   5.0895830  21.4592840  44.6848010   5.5801950  21.8268830  46.0690150
   5.9620530  25.8583150  47.3441320   5.6648820  25.2528620  46.6649100
   6.9120350  25.8960460  47.2330680   4.2067450  18.9458800  48.9601150
   4.7582040  19.0554140  48.1854400   4.7210960  19.3196400  49.6756380
  14.0506140  29.4315020  51.0064420  13.5736700  30.2387210  50.8137030
  13.3667930  28.7793350  51.1590630  12.0944180  22.4457960  39.9090380
  12.5337460  21.6080390  39.7628200  12.8072600  23.0787360  39.9954520
   3.8810180  22.4678160  52.5706490   3.7417950  23.3400960  52.9393890
   2.9991540  22.1250970  52.4254430  10.2039560  27.3854030  43.8771620
  10.6435470  28.1278360  43.4627010  10.1426450  27.6280600  44.8010580
  15.6761320  13.7000770  38.2231420  15.3633980  13.7927600  39.1230490
  16.4373790  14.2781800  38.1728850   2.1943460  21.0660570  42.6808760
   2.0741060  21.7922660  42.0690030   1.8844350  20.2963480  42.2036670
  17.0338600  26.3839810  53.2355820  17.1601660  26.1451690  52.3173000
  17.0759980  25.5524350  53.7077900  10.8955340  30.0867810  51.8050630
  11.4100010  29.9975820  52.6073060  10.0524420  30.4327510  52.0978540
  12.8709740  30.3723150  41.2334630  12.7110880  30.0826090  42.1316460
  12.7056450  29.5963280  40.6979860   5.3498120  30.1521680  43.0106250
   5.1740600  29.2357220  42.7974050   4.4953860  30.5108970  43.2504050
  12.5735870  27.8810710  39.7932630  11.8801030  27.8788000  39.1334910
  13.3158730  27.4570030  39.3626800  12.1385800  29.5073420  43.8681120
  12.5942750  28.7262800  44.1819740  12.4778320  30.2180240  44.4122300
  16.8862610  18.4372270  54.2005560  16.2706880  18.9451940  53.6721020
  16.5659030  17.5370600  54.1431500   4.6607120  14.4095640  46.0632430
   4.2175270  15.1905180  45.7316950   5.2192110  14.7325530  46.7703370
   8.9476930  17.2764160  51.6667750   8.4856300  17.4847180  52.4787690
   8.5455040  16.4623510  51.3638420  13.9481440  18.4973110  52.7964410
  13.0975030  18.1978860  53.1173480  13.7883230  18.7415120  51.8848230
   7.7765940  14.0306340  40.9438260   7.1520120  14.0266210  41.6691570
   7.6896060  13.1637300  40.5474230   6.6983020  14.9542970  47.9222030
   6.9955350  15.8605800  47.8414050   7.2468580  14.4661750  47.3081600
   4.4521340  19.5329210  43.7913680   4.2262260  19.3166380  44.6960300
   3.6713870  19.9657670  43.4459650  11.6819100  19.5392580  42.3904330
  11.0827990  20.2628380  42.2067950  12.2298710  19.4769360  41.6080780
  10.2883970  18.1756120  44.4207610  10.6813540  18.4928320  43.6076300
  10.6500820  17.2968000  44.5352130  10.8739110  20.7661870  48.5158390
  10.1420230  21.2748680  48.8648490  10.4763450  19.9491850  48.2147170
   7.3116500  17.4416070  46.9210880   7.3152560  17.0006020  46.0715420
   8.2067620  17.7633400  47.0282700   3.1618880  17.3242560  45.8805090
   2.8218930  17.8017790  46.6372140   2.3996200  16.8707680  45.5206190
   7.3736650  18.4428150  39.9117640   7.4949470  18.4014630  40.8603460
   6.9885160  19.3052300  39.7564370  11.3365020  16.2195550  47.9281330
  11.3537760  16.6704200  48.7723180  11.0880600  15.3201190  48.1414770
   6.3858150  20.7529290  39.3100940   5.8175050  20.3047540  38.6836850
   7.0947150  21.1122070  38.7766090   7.6124470  21.5017850  48.6676290
   7.9794600  21.0276420  49.4137630   7.4229530  22.3759420  49.0084630
   5.4023840  20.5426490  50.9860500   5.0980910  21.4218470  51.2110860
   6.3570300  20.6026280  51.0217940   3.9305630  24.7487480  41.5827350
   3.1567890  24.2085100  41.4226070   4.6600260  24.2294090  41.2445110
  14.6893610  23.7452840  47.3753740  15.4092730  24.2408130  46.9849850
  14.4875430  23.0670730  46.7307610  10.1503550  15.1390800  41.5183130
   9.3368160  14.6403970  41.4428440   9.9565500  15.9789050  41.1019480
  10.0712410  23.8161900  53.2622740  10.0049720  22.8957570  53.0080330
   9.4417550  23.9137340  53.9767380  12.8651940  19.5110450  39.8145290
  13.7531560  19.8227680  39.6396630  12.8357030  18.6382700  39.4225870
   3.9743030  24.4167860  45.2206160   4.4921700  23.6136120  45.1663050
   3.5227050  24.3547000  46.0622990   8.8612530  25.6834140  40.4933460
   9.2028230  26.4276370  39.9976780   8.0325240  25.9965260  40.8558290
  10.0029140  26.6382470  53.0126540  10.0173680  25.7063430  52.7945450
   9.2954240  26.7242230  53.6516310  15.1366210  20.8222290  39.2825150
  15.0529930  21.2536510  38.4321590  15.8560400  21.2820640  39.7151970
  16.2140350  23.2789810  52.3595120  15.4888540  23.8718590  52.1624510
  16.7415810  23.2713350  51.5608490  16.1653460  27.6764550  42.0107280
  15.5229620  27.0220170  42.2851000  15.7784120  28.0819640  41.2347950
  11.7439940  25.0049980  45.8578970  12.0963760  24.4078110  45.1980340
  10.8602270  24.6794210  46.0287220   7.8303220  25.7647670  43.2649380
   8.5174350  26.3116880  43.6456970   7.0435640  26.3088400  43.2998990
   7.1330430  22.7693700  42.8774740   7.5893210  23.5798950  43.1034930
   6.7818640  22.4516840  43.7093230   9.4363040  28.2800040  50.1067040
  10.0805260  28.4859420  50.7840460   9.7992480  27.5188440  49.6537890
   3.0342210  13.1131350  43.3497260   2.9056840  13.1049250  44.2982180
   2.2104230  13.4514440  42.9988270  10.7095120  26.2832390  48.8244490
  11.3517350  25.5825550  48.9376660  11.2344470  27.0630830  48.6441380
  14.5550840  26.5681010  38.5483630  14.3288420  25.8511450  39.1408270
  14.1647040  26.3193450  37.7105380  12.4832740  27.0827290  52.0280550
  12.8188980  27.6693980  52.7058470  11.5633080  26.9520000  52.2578340
  14.1367090  24.4852950  40.2097790  13.8488790  24.9465640  40.9975670
  14.9319260  24.0250720  40.4782010   6.3535490  27.9779070  40.1401760
   6.3445590  28.7108760  39.5246270   5.4333850  27.7310650  40.2328720
  11.5274920  17.3644780  50.5605410  11.8955740  16.5439990  50.8884980
  10.6673120  17.4246670  50.9761060  14.8936950  16.3201720  41.3692970
  14.2650110  16.4247390  40.6551200  14.3988870  16.5398500  42.1586850
   9.3395090  28.0407310  38.8026950   9.4407070  27.8371300  37.8728930
   8.4396830  27.7865590  39.0074730   6.8620980  18.5987670  42.7850850
   6.1537130  19.0674010  43.2264460   7.1465460  17.9409680  43.4196040
   8.4876910  20.0184370  50.7843380   8.9862160  20.4930190  51.4495230
   8.6299860  19.0947890  50.9913410  10.8936410  15.3238330  44.2246640
  10.7704190  15.3424460  43.2756150  11.8420970  15.3717270  44.3445040
   7.9813200  30.5593630  43.4974620   8.2354700  30.5215020  42.5753990
   7.0325680  30.4326960  43.4902870   5.0656000  16.9072750  40.1601560
   5.9146530  17.3442900  40.0941750   4.6987270  17.2193010  40.9873620
  15.6943770  16.2352330  51.6271770  15.1917370  16.9757730  51.9665580
  16.5100430  16.6236330  51.3108560  13.9865780  21.4785510  45.0733130
  13.0455920  21.4935740  45.2480820  14.3009850  20.6921470  45.5193430
   3.9647420  23.1605110  38.6337090   4.7310690  23.0486470  39.1962520
   4.0422110  22.4643080  37.9813860   2.6594180  20.5930180  39.3169980
   2.7397770  19.6457690  39.4287380   3.5513930  20.9237060  39.4230640
  15.9891360  28.6494360  46.7487390  16.1138780  29.4725530  47.2211200
  16.8556920  28.4385090  46.4011540   3.4608890  30.7425570  46.4204520
   4.1971370  30.1941030  46.6913090   3.8449810  31.6081580  46.2810510
   6.5711200  29.9155880  38.2430090   7.3639810  30.2044710  37.7911880
   6.0515550  29.4848050  37.5642570  15.6241370  29.1426010  39.6666830
  15.3382880  28.7291150  38.8521010  15.4260920  30.0713720  39.5467350
   7.0888600  25.1359290  38.1072440   6.9839240  24.5211640  38.8333820
   6.9212820  24.6125180  37.3235450   7.2402920  23.8216090  54.0861670
   6.4748590  24.3901090  54.0016340   7.4218880  23.5292300  53.1929900
  10.3291330  24.1979320  38.7114430   9.7801430  24.6448620  39.3557170
  10.9510590  23.6928570  39.2352100   5.9966450  23.1570240  40.6079730
   6.4182870  22.9910110  41.4511120   6.1217290  22.3470470  40.1134870
   4.1593870  19.1366790  53.4150710   3.6290330  18.6457740  52.7874050
   4.8281940  19.5650990  52.8808640   8.5094090  22.1807850  37.8556830
   9.0299750  21.4656870  37.4897980   9.1562490  22.8193720  38.1557340
  13.0571930  23.6036250  53.1791900  13.4712950  23.7581330  54.0282320
  12.1222930  23.7291470  53.3417680   4.6466170  16.1029160  53.4948000
   4.5523040  15.4849910  52.7698870   4.0663560  16.8295450  53.2677910
   7.4127610  14.6602400  50.5275390   6.9644910  14.6826660  49.6820940
   6.7792810  14.2621420  51.1245690   7.8187160  23.5556730  51.1487830
   8.2375270  24.3989460  50.9764070   6.8995790  23.6928770  50.9194610
  10.1551060  21.2872910  52.5325670  10.2747270  20.6914050  53.2720510
  11.0145060  21.3242600  52.1126970  12.4938960  21.8410100  51.1088180
  11.9674180  22.3652720  50.5053320  12.8370300  22.4737490  51.7397910
   4.8925350  19.2303470  37.5537890   4.6914410  18.3670830  37.9151230
   4.7217400  19.1436830  36.6159490   5.6694580  29.8609740  52.2645560
   5.1315670  30.5855800  51.9454260   5.9228540  29.3840080  51.4742900
  12.3713660  14.0411700  40.0824770  12.6515950  13.1979600  40.4384190
  11.5979390  14.2734810  40.5963520   3.6908150  16.3304090  37.5415770
   3.9934050  16.3371520  36.6334920   4.4302740  15.9801950  38.0383430
   8.5256790  31.0960950  52.5232210   8.4515490  31.9996090  52.8304580
   7.6235630  30.7772850  52.4954280   6.9093080  15.2738710  38.5271970
   6.5615080  14.5962700  37.9474420   7.1105850  14.8128220  39.3415360
   9.0742120  30.2619460  40.1458570   9.9692910  30.6004430  40.1677330
   9.1059750  29.5398870  39.5182850   2.7138280  25.6346510  38.3745570
   3.1513150  26.1776180  39.0303150   3.1986010  24.8093460  38.3841910
   4.5246000  26.7544550  43.4867800   4.2241540  26.6309520  44.3871710
   4.4183490  25.8953140  43.0783530  16.0536470  28.7923130  52.8524770
  15.4538460  28.8515690  52.1088690  16.1830370  27.8528110  52.9821620
  17.2937920  26.5340950  38.1894480  16.4630880  26.6017600  38.6601710
  17.4709750  27.4245070  37.8861340  16.7494380  23.2788430  40.6928680
  17.5113290  23.8485080  40.7988370  16.7648750  22.7115630  41.4636990
  17.7554350  24.1338530  45.5370610  18.1263180  23.3505850  45.1306580
  18.3956280  24.8227630  45.3587910  14.7388110  25.5175110  50.9500930
  13.9247950  25.9472270  51.2126720  15.1462310  26.1293520  50.3369980
  16.8013550  23.5722800  37.8501200  17.0762390  24.4801680  37.7220420
  16.6124290  23.5085330  38.7863190  13.1989160  16.5967650  39.1454830
  13.6174040  16.4098630  38.3051490  12.8925220  15.7446700  39.4557760
  16.6978890  21.5091790  42.8430630  16.3222490  20.7419720  42.4111920
  15.9682010  21.8914490  43.3305560  16.0878510  20.6563310  52.4770150
  15.8564600  20.4276060  51.5768100  16.3483060  21.5762860  52.4315040
  15.9729850  19.7349280  46.1437870  16.4967330  19.2411930  45.5128040
  16.5589270  19.8699640  46.8885440  16.1519570  19.8189150  49.6657420
  15.2022280  19.7852690  49.7802410  16.3332580  20.7289260  49.4307190
  15.4629820  18.9922630  42.0830280  15.9588940  18.7593500  42.8679160
  15.2645890  18.1534470  41.6667920  16.8916980  17.6283580  44.6167960
  16.7816260  17.4739620  45.5550230  17.6524570  17.1004520  44.3743370
  15.2382700  13.5677710  51.0750960  15.8754920  14.1811850  51.4410150
  15.3857590  13.6038370  50.1300190  17.7807250  15.4591500  37.8574100
  18.7056560  15.3272680  37.6492390  17.7583040  15.5384320  38.8110550
  17.8545740  16.2302160  40.4830810  17.0597240  16.1647280  41.0123720
  18.0589020  17.1652800  40.4716160  14.7964160  30.2693710  44.4769200
  15.3923230  29.9478280  43.8003620  15.0542310  29.7965530  45.2682470
   6.4032760  28.2571210  50.2269550   6.1624120  28.5245770  49.3400070
   7.3435400  28.4276940  50.2820410  17.6636920  30.2765590  51.0280190
  17.1695200  30.6734460  50.3107320  17.0550210  29.6514800  51.4217470
   2.5414760  29.6473870  51.7457610   1.9475080  29.5158570  52.4847650
   2.5338600  28.8112010  51.2799710  11.9869780  12.9406100  49.9487640
  11.1129620  13.2741210  49.7460570  11.8780530  12.4679280  50.7739510
  12.8941760  15.1476970  51.3329360  12.5655120  14.3328730  50.9531090
  13.8424060  15.1046780  51.2095050  15.3476370  30.9189010  48.3066930
  14.8879340  31.6704820  47.9324950  14.7188830  30.1995480  48.2481730
   5.7772090  29.2277250  47.4815060   6.2937110  28.6164610  46.9563320
   6.4269470  29.7306030  47.9726070   8.5167590  30.1185740  48.3084040
   8.8045400  29.8640040  47.4317050   9.0290810  29.5663100  48.8989610
   9.7344600  13.8575940  48.8880550   8.9516390  14.3321440  49.1677310
   9.4407530  12.9530770  48.7793730  14.2865670  14.5599040  46.9329640
  14.7273760  14.5044140  46.0851240  14.0173260  15.4757050  47.0039820
  16.1504240  14.1914280  44.9438460  16.0892640  13.2475500  44.7969480
  16.9296270  14.2994370  45.4891920   7.6198820  16.2762690  44.3996580
   6.8073330  15.9019580  44.0592460   8.1240460  15.5207770  44.7017770
  12.1223800  12.9405140  45.6379650  12.7253170  13.5125350  46.1128170
  11.3816790  13.5044580  45.4153550  15.2658400  13.3426700  40.9119930
  15.4609030  14.2410150  41.1787360  14.4788270  13.1113780  41.4052880
   3.4510160  14.6887470  39.9496240   3.9802920  13.9017270  39.8204190
   4.0838480  15.3678660  40.1831770   5.6448000  14.4262610  43.0041630
   5.0150740  13.7249920  43.1711760   5.1053140  15.1866740  42.7874790
  16.8185010  30.5827410  42.6726490  16.9937200  29.8965150  42.0287410
  16.1206580  31.1074460  42.2803160   4.6612660  30.9722250  40.2261800
   5.3931480  30.6881530  39.6785690   4.9206330  30.7335530  41.1161180
   3.8227450  27.0886980  40.2308130   3.1936330  27.5572080  40.7793960
   3.9375280  26.2436200  40.6654320  11.2777170  21.1392640  26.3809330
  11.1971220  20.2247250  26.1101040  10.8641590  21.6359710  25.6749040
   9.4095210  22.9171660  28.2618600   8.6337310  22.4372100  28.5517170
  10.0608140  22.2377310  28.0874760   3.4261040  23.2291470  29.1394360
   2.5945920  22.9740180  29.5390870   4.0342020  23.3002240  29.8752280
  13.4302640  27.3231850  27.0417730  12.9684170  26.5519090  27.3704900
  14.2428190  27.3497920  27.5470180   3.4062300  27.2631560  29.3352380
   3.7090340  26.3729300  29.1562600   4.1505890  27.8201780  29.1074630
   9.6565950  29.6089860  26.6621720   9.0377390  30.0647360  26.0916160
  10.5117730  29.7641320  26.2611420   8.8504200  25.5928850  28.2688760
   8.7812480  24.6518790  28.1077890   9.6124060  25.6830260  28.8411330
   9.8809370  18.3999230  28.4957690  10.2574190  17.5271110  28.3831360
   9.7828880  18.7357930  27.6048130   4.0114380  16.7724860  23.9575130
   4.1181130  17.6728590  24.2643890   3.1006740  16.7242830  23.6669780
  13.6633490  15.8949670  25.4286030  14.4843110  15.4046240  25.4711510
  13.6967570  16.4847330  26.1817870   5.8522110  19.7411230  28.2900310
   6.3600330  20.2392200  28.9305330   6.3835350  18.9646430  28.1139670
  17.9533040  17.9116420  31.9929660  17.2485210  18.2998130  31.4744770
  18.2190960  18.6066710  32.5950590   4.1358210  14.3809790  32.5563730
   4.1376650  14.8982180  31.7509630   3.3062520  13.9039970  32.5333660
  10.5229300  24.4929100  24.0553630   9.9046570  24.9578550  23.4916350
  11.0352550  25.1856580  24.4723140   5.3861060  24.0204970  30.7337230
   5.0530440  24.6473890  31.3758300   5.5627740  24.5466850  29.9538900
  13.8994970  17.8350050  28.2013570  13.1950540  18.1234940  28.7816680
  14.2607130  18.6450160  27.8413130   3.8173540  16.0919750  30.5634180
   4.1590350  16.9361800  30.2688050   2.8789350  16.2403490  30.6799520
   4.5980160  25.9885770  32.5486410   5.2154160  26.6636850  32.2670860
   3.7373280  26.3973750  32.4573910  15.5157750  27.4525180  30.4641050
  14.8321270  28.1224290  30.4557720  16.0552040  27.6505830  29.6985910
  16.9681890  17.2804840  28.5922780  16.0206800  17.3143820  28.7238210
  17.2931880  18.0943790  28.9772140   7.5001430  13.5802020  26.8878770
   7.8076410  13.0248910  26.1714270   6.5702130  13.7146480  26.7051760
  13.0516490  29.2969310  29.1786230  13.0643650  28.8931600  28.3108490
  12.4991710  30.0716600  29.0747660  14.3461910  26.0185530  24.2676400
  14.2358240  25.0759860  24.3925820  14.3430160  26.3801170  25.1539160
  12.4501930  24.1999150  30.5068840  12.8670720  23.9859260  29.6722300
  13.1741750  24.4571940  31.0777460   9.8882190  21.6450850  23.6238890
   8.9611470  21.5788230  23.8527360  10.0407010  22.5830980  23.5094130
   9.8751270  17.9167850  20.6206050   8.9354940  18.0781810  20.7058510
  10.1934530  18.6353530  20.0742040  16.3964030  22.5986370  30.5985080
  15.5682660  22.6679460  30.1235210  16.9914510  23.1840680  30.1300910
  13.9179480  23.2071150  24.1274140  13.2991900  22.8690700  23.4800440
  13.9003930  22.5630910  24.8353330  13.3606040  19.3855690  31.5439950
  12.9477220  20.2109400  31.7979940  12.6281990  18.8000730  31.3516310
   5.4938830  22.1715590  26.4058620   5.0895830  21.4592840  25.9104520
   5.5801950  21.8268830  27.2946660   5.9620530  25.8583150  28.5697830
   5.6648820  25.2528620  27.8905610   6.9120350  25.8960460  28.4587190
   4.2067450  18.9458800  30.1857660   4.7582040  19.0554140  29.4110910
   4.7210960  19.3196400  30.9012890  14.0506140  29.4315020  32.2320930
  13.5736700  30.2387210  32.0393540  13.3667930  28.7793350  32.3847140
   5.0538960  25.5964840  35.2205630   4.1567490  25.8204810  35.4679030
   5.0791830  25.7199780  34.2717030  12.0944180  22.4457960  21.1346890
  12.5337460  21.6080390  20.9884710  12.8072600  23.0787360  21.2211030
   3.8810180  22.4678160  33.7963000   3.7417950  23.3400960  34.1650400
   2.9991540  22.1250970  33.6510940  10.2039560  27.3854030  25.1028130
  10.6435470  28.1278360  24.6883520  10.1426450  27.6280600  26.0267090
   5.6790530  28.4099860  36.0048150   5.6505960  28.8142810  35.1376580
   5.5155500  27.4810220  35.8419750  15.6761320  13.7000770  19.4487930
  15.3633980  13.7927600  20.3487000  16.4373790  14.2781800  19.3985360
   2.1943460  21.0660570  23.9065270   2.0741060  21.7922660  23.2946540
   1.8844350  20.2963480  23.4293180  17.6305350  29.1926960  37.3012320
  18.1065070  29.6709850  37.9801400  18.2512510  29.1244450  36.5757820
  17.0338600  26.3839810  34.4612330  17.1601660  26.1451690  33.5429510
  17.0759980  25.5524350  34.9334410  10.8955340  30.0867810  33.0307140
  11.4100010  29.9975820  33.8329570  10.0524420  30.4327510  33.3235050
  12.8709740  30.3723150  22.4591140  12.7110880  30.0826090  23.3572970
  12.7056450  29.5963280  21.9236370   5.3498120  30.1521680  24.2362760
   5.1740600  29.2357220  24.0230560   4.4953860  30.5108970  24.4760560
  12.5735870  27.8810710  21.0189140  11.8801030  27.8788000  20.3591420
  13.3158730  27.4570030  20.5883310  12.1385800  29.5073420  25.0937630
  12.5942750  28.7262800  25.4076250  12.4778320  30.2180240  25.6378810
  16.8862610  18.4372270  35.4262070  16.2706880  18.9451940  34.8977530
  16.5659030  17.5370600  35.3688010   4.6607120  14.4095640  27.2888940
   4.2175270  15.1905180  26.9573460   5.2192110  14.7325530  27.9959880
   8.9476930  17.2764160  32.8924260   8.4856300  17.4847180  33.7044200
   8.5455040  16.4623510  32.5894930  13.9481440  18.4973110  34.0220920
  13.0975030  18.1978860  34.3429990  13.7883230  18.7415120  33.1104740
  11.0431150  19.9974860  36.1219710  11.3684560  19.1638610  35.7821940
  11.8311480  20.5203380  36.2698040   7.7765940  14.0306340  22.1694770
   7.1520120  14.0266210  22.8948080   7.6896060  13.1637300  21.7730740
   6.6983020  14.9542970  29.1478540   6.9955350  15.8605800  29.0670560
   7.2468580  14.4661750  28.5338110   4.4521340  19.5329210  25.0170190
   4.2262260  19.3166380  25.9216810   3.6713870  19.9657670  24.6716160
  11.6819100  19.5392580  23.6160840  11.0827990  20.2628380  23.4324460
  12.2298710  19.4769360  22.8337290   6.8920550  20.4314790  35.6830460
   6.7964150  19.4909520  35.5330860   7.7352530  20.6529860  35.2878530
  10.2883970  18.1756120  25.6464120  10.6813540  18.4928320  24.8332810
  10.6500820  17.2968000  25.7608640   8.5976140  16.9263430  36.9060980
   7.9074460  16.7335630  37.5407070   9.3408440  17.2098070  37.4385280
  10.8739110  20.7661870  29.7414900  10.1420230  21.2748680  30.0905000
  10.4763450  19.9491850  29.4403680   7.3116500  17.4416070  28.1467390
   7.3152560  17.0006020  27.2971930   8.2067620  17.7633400  28.2539210
   3.1618880  17.3242560  27.1061600   2.8218930  17.8017790  27.8628650
   2.3996200  16.8707680  26.7462700   7.3736650  18.4428150  21.1374150
   7.4949470  18.4014630  22.0859970   6.9885160  19.3052300  20.9820880
  11.3365020  16.2195550  29.1537840  11.3537760  16.6704200  29.9979690
  11.0880600  15.3201190  29.3671280   6.3858150  20.7529290  20.5357450
   5.8175050  20.3047540  19.9093360   7.0947150  21.1122070  20.0022600
  14.7635770  13.6327730  34.9924220  15.0881540  12.9017390  35.5182200
  14.7992280  13.3141370  34.0905210   7.6124470  21.5017850  29.8932800
   7.9794600  21.0276420  30.6394140   7.4229530  22.3759420  30.2341140
   5.4023840  20.5426490  32.2117010   5.0980910  21.4218470  32.4367370
   6.3570300  20.6026280  32.2474450   3.9305630  24.7487480  22.8083860
   3.1567890  24.2085100  22.6482580   4.6600260  24.2294090  22.4701620
  14.6893610  23.7452840  28.6010250  15.4092730  24.2408130  28.2106360
  14.4875430  23.0670730  27.9564120  10.1503550  15.1390800  22.7439640
   9.3368160  14.6403970  22.6684950   9.9565500  15.9789050  22.3275990
  10.0712410  23.8161900  34.4879250  10.0049720  22.8957570  34.2336840
   9.4417550  23.9137340  35.2023890  12.8651940  19.5110450  21.0401800
  13.7531560  19.8227680  20.8653140  12.8357030  18.6382700  20.6482380
   3.9743030  24.4167860  26.4462670   4.4921700  23.6136120  26.3919560
   3.5227050  24.3547000  27.2879500   8.8612530  25.6834140  21.7189970
   9.2028230  26.4276370  21.2233290   8.0325240  25.9965260  22.0814800
   4.6600690  21.8413470  36.2427920   4.3600830  21.9870650  35.3455740
   5.4311930  21.2818760  36.1501310  10.0029140  26.6382470  34.2383050
  10.0173680  25.7063430  34.0201960   9.2954240  26.7242230  34.8772820
  15.1366210  20.8222290  20.5081660  15.0529930  21.2536510  19.6578100
  15.8560400  21.2820640  20.9408480  16.2140350  23.2789810  33.5851630
  15.4888540  23.8718590  33.3881020  16.7415810  23.2713350  32.7865000
  16.1653460  27.6764550  23.2363790  15.5229620  27.0220170  23.5107510
  15.7784120  28.0819640  22.4604460  11.7439940  25.0049980  27.0835480
  12.0963760  24.4078110  26.4236850  10.8602270  24.6794210  27.2543730
   7.8303220  25.7647670  24.4905890   8.5174350  26.3116880  24.8713480
   7.0435640  26.3088400  24.5255500   7.1330430  22.7693700  24.1031250
   7.5893210  23.5798950  24.3291440   6.7818640  22.4516840  24.9349740
   9.4363040  28.2800040  31.3323550  10.0805260  28.4859420  32.0096970
   9.7992480  27.5188440  30.8794400   3.0342210  13.1131350  24.5753770
   2.9056840  13.1049250  25.5238690   2.2104230  13.4514440  24.2244780
  10.7095120  26.2832390  30.0501000  11.3517350  25.5825550  30.1633170
  11.2344470  27.0630830  29.8697890  14.5550840  26.5681010  19.7740140
  14.3288420  25.8511450  20.3664780  14.1647040  26.3193450  18.9361890
  12.4832740  27.0827290  33.2537060  12.8188980  27.6693980  33.9314980
  11.5633080  26.9520000  33.4834850  14.1367090  24.4852950  21.4354300
  13.8488790  24.9465640  22.2232180  14.9319260  24.0250720  21.7038520
   8.3121320  27.1318620  36.4225120   7.9918190  26.4127860  36.9670810
   7.6379680  27.8073690  36.4961180   6.3535490  27.9779070  21.3658270
   6.3445590  28.7108760  20.7502780   5.4333850  27.7310650  21.4585230
  11.5274920  17.3644780  31.7861920  11.8955740  16.5439990  32.1141490
  10.6673120  17.4246670  32.2017570  14.8936950  16.3201720  22.5949480
  14.2650110  16.4247390  21.8807710  14.3988870  16.5398500  23.3843360
   9.3395090  28.0407310  20.0283460   9.4407070  27.8371300  19.0985440
   8.4396830  27.7865590  20.2331240   6.8620980  18.5987670  24.0107360
   6.1537130  19.0674010  24.4520970   7.1465460  17.9409680  24.6452550
   8.4876910  20.0184370  32.0099890   8.9862160  20.4930190  32.6751740
   8.6299860  19.0947890  32.2169920  10.8936410  15.3238330  25.4503150
  10.7704190  15.3424460  24.5012660  11.8420970  15.3717270  25.5701550
   7.9813200  30.5593630  24.7231130   8.2354700  30.5215020  23.8010500
   7.0325680  30.4326960  24.7159380   5.0656000  16.9072750  21.3858070
   5.9146530  17.3442900  21.3198260   4.6987270  17.2193010  22.2130130
  15.6943770  16.2352330  32.8528280  15.1917370  16.9757730  33.1922090
  16.5100430  16.6236330  32.5365070  13.9865780  21.4785510  26.2989640
  13.0455920  21.4935740  26.4737330  14.3009850  20.6921470  26.7449940
   3.9647420  23.1605110  19.8593600   4.7310690  23.0486470  20.4219030
   4.0422110  22.4643080  19.2070370   2.6594180  20.5930180  20.5426490
   2.7397770  19.6457690  20.6543890   3.5513930  20.9237060  20.6487150
  15.9891360  28.6494360  27.9743900  16.1138780  29.4725530  28.4467710
  16.8556920  28.4385090  27.6268050   3.4608890  30.7425570  27.6461030
   4.1971370  30.1941030  27.9169600   3.8449810  31.6081580  27.5067020
   2.4667170  29.9271640  36.8346610   3.2679900  30.2483690  37.2482010
   1.9518990  29.5667220  37.5566520   6.5711200  29.9155880  19.4686600
   7.3639810  30.2044710  19.0168390   6.0515550  29.4848050  18.7899080
  11.3031800  26.0351510  36.7822020  10.6969960  26.0583110  36.0417770
  10.9985910  25.3034550  37.3189270  12.7332170  29.7631800  35.3931430
  13.6853920  29.6789820  35.3431670  12.5860390  30.4273510  36.0665220
  15.6241370  29.1426010  20.8923340  15.3382880  28.7291150  20.0777520
  15.4260920  30.0713720  20.7723860   7.0888600  25.1359290  19.3328950
   6.9839240  24.5211640  20.0590330   6.9212820  24.6125180  18.5491960
   7.2402920  23.8216090  35.3118180   6.4748590  24.3901090  35.2272850
   7.4218880  23.5292300  34.4186410  10.3291330  24.1979320  19.9370940
   9.7801430  24.6448620  20.5813680  10.9510590  23.6928570  20.4608610
  14.3826270  25.5521420  35.8693200  15.1235740  25.8897180  35.3660660
  13.6198950  25.7213480  35.3162970   2.2188060  20.5574690  36.6732730
   2.2593400  20.2588560  37.5817960   3.0733560  20.9582300  36.5140250
   5.9966450  23.1570240  21.8336240   6.4182870  22.9910110  22.6767630
   6.1217290  22.3470470  21.3391380   4.1593870  19.1366790  34.6407220
   3.6290330  18.6457740  34.0130560   4.8281940  19.5650990  34.1065150
   8.5094090  22.1807850  19.0813340   9.0299750  21.4656870  18.7154490
   9.1562490  22.8193720  19.3813850  13.0571930  23.6036250  34.4048410
  13.4712950  23.7581330  35.2538830  12.1222930  23.7291470  34.5674190
  13.5294100  20.9432410  36.4087560  14.1114870  20.1884730  36.3208040
  13.7055870  21.4739850  35.6319040   4.6466170  16.1029160  34.7204510
   4.5523040  15.4849910  33.9955380   4.0663560  16.8295450  34.4934420
   7.4127610  14.6602400  31.7531900   6.9644910  14.6826660  30.9077450
   6.7792810  14.2621420  32.3502200   7.8187160  23.5556730  32.3744340
   8.2375270  24.3989460  32.2020580   6.8995790  23.6928770  32.1451120
  10.1551060  21.2872910  33.7582180  10.2747270  20.6914050  34.4977020
  11.0145060  21.3242600  33.3383480  12.4938960  21.8410100  32.3344690
  11.9674180  22.3652720  31.7309830  12.8370300  22.4737490  32.9654420
   4.8925350  19.2303470  18.7794400   4.6914410  18.3670830  19.1407740
   4.7217400  19.1436830  17.8416000   5.6694580  29.8609740  33.4902070
   5.1315670  30.5855800  33.1710770   5.9228540  29.3840080  32.6999410
   6.9219830  17.8294260  35.0158000   7.5119520  17.5210110  35.7035820
   6.1040070  17.3574010  35.1717900  11.7413260  17.4460070  35.2491020
  11.0528780  16.7841610  35.1841010  12.4619280  16.9998340  35.6939480
  12.3713660  14.0411700  21.3081280  12.6515950  13.1979600  21.6640700
  11.5979390  14.2734810  21.8220030   3.6908150  16.3304090  18.7672280
   3.9934050  16.3371520  17.8591430   4.4302740  15.9801950  19.2639940
   8.5256790  31.0960950  33.7488720   8.4515490  31.9996090  34.0561090
   7.6235630  30.7772850  33.7210790   6.9093080  15.2738710  19.7528480
   6.5615080  14.5962700  19.1730930   7.1105850  14.8128220  20.5671870
   9.0742120  30.2619460  21.3715080   9.9692910  30.6004430  21.3933840
   9.1059750  29.5398870  20.7439360   2.7138280  25.6346510  19.6002080
   3.1513150  26.1776180  20.2559660   3.1986010  24.8093460  19.6098420
   4.5246000  26.7544550  24.7124310   4.2241540  26.6309520  25.6128220
   4.4183490  25.8953140  24.3040040  16.0536470  28.7923130  34.0781280
  15.4538460  28.8515690  33.3345200  16.1830370  27.8528110  34.2078130
  17.2937920  26.5340950  19.4150990  16.4630880  26.6017600  19.8858220
  17.4709750  27.4245070  19.1117850  16.7494380  23.2788430  21.9185190
  17.5113290  23.8485080  22.0244880  16.7648750  22.7115630  22.6893500
  17.7554350  24.1338530  26.7627120  18.1263180  23.3505850  26.3563090
  18.3956280  24.8227630  26.5844420  14.7388110  25.5175110  32.1757440
  13.9247950  25.9472270  32.4383230  15.1462310  26.1293520  31.5626490
  16.8013550  23.5722800  19.0757710  17.0762390  24.4801680  18.9476930
  16.6124290  23.5085330  20.0119700  13.1989160  16.5967650  20.3711340
  13.6174040  16.4098630  19.5308000  12.8925220  15.7446700  20.6814270
  16.6978890  21.5091790  24.0687140  16.3222490  20.7419720  23.6368430
  15.9682010  21.8914490  24.5562070  16.0878510  20.6563310  33.7026660
  15.8564600  20.4276060  32.8024610  16.3483060  21.5762860  33.6571550
  14.5266580  15.8819740  36.4806360  15.4036760  15.8903140  36.8640360
  14.5387420  15.1450580  35.8698710  15.9729850  19.7349280  27.3694380
  16.4967330  19.2411930  26.7384550  16.5589270  19.8699640  28.1141950
  16.1519570  19.8189150  30.8913930  15.2022280  19.7852690  31.0058920
  16.3332580  20.7289260  30.6563700  15.4629820  18.9922630  23.3086790
  15.9588940  18.7593500  24.0935670  15.2645890  18.1534470  22.8924430
  16.8916980  17.6283580  25.8424470  16.7816260  17.4739620  26.7806740
  17.6524570  17.1004520  25.5999880  15.2382700  13.5677710  32.3007470
  15.8754920  14.1811850  32.6666660  15.3857590  13.6038370  31.3556700
  17.7807250  15.4591500  19.0830610  18.7056560  15.3272680  18.8748900
  17.7583040  15.5384320  20.0367060  17.8545740  16.2302160  21.7087320
  17.0597240  16.1647280  22.2380230  18.0589020  17.1652800  21.6972670
  14.7964160  30.2693710  25.7025710  15.3923230  29.9478280  25.0260130
  15.0542310  29.7965530  26.4938980   2.7026730  26.7011620  35.8516340
   2.6596360  26.3304530  36.7330800   2.8337740  27.6389190  35.9918160
   6.4032760  28.2571210  31.4526060   6.1624120  28.5245770  30.5656580
   7.3435400  28.4276940  31.5076920   8.6087180  14.7203900  35.2082570
   8.5476070  15.3125730  35.9577980   9.5487560  14.6129860  35.0632830
  11.2461740  14.3773960  34.8474860  11.8602150  14.6953250  34.1855940
  11.7911300  13.8922550  35.4670720  17.6636920  30.2765590  32.2536700
  17.1695200  30.6734460  31.5363830  17.0550210  29.6514800  32.6473980
   1.7683000  13.0568220  34.9613920   2.3165990  12.8756270  34.1980030
   1.8338310  12.2662330  35.4970230   2.5414760  29.6473870  32.9714120
   1.9475080  29.5158570  33.7104160   2.5338600  28.8112010  32.5056220
  11.9869780  12.9406100  31.1744150  11.1129620  13.2741210  30.9717080
  11.8780530  12.4679280  31.9996020  12.8941760  15.1476970  32.5585870
  12.5655120  14.3328730  32.1787600  13.8424060  15.1046780  32.4351560
  15.3476370  30.9189010  29.5323440  14.8879340  31.6704820  29.1581460
  14.7188830  30.1995480  29.4738240   5.7772090  29.2277250  28.7071570
   6.2937110  28.6164610  28.1819830   6.4269470  29.7306030  29.1982580
   8.5167590  30.1185740  29.5340550   8.8045400  29.8640040  28.6573560
   9.0290810  29.5663100  30.1246120   9.7344600  13.8575940  30.1137060
   8.9516390  14.3321440  30.3933820   9.4407530  12.9530770  30.0050240
  14.2865670  14.5599040  28.1586150  14.7273760  14.5044140  27.3107750
  14.0173260  15.4757050  28.2296330  16.1504240  14.1914280  26.1694970
  16.0892640  13.2475500  26.0225990  16.9296270  14.2994370  26.7148430
   7.6198820  16.2762690  25.6253090   6.8073330  15.9019580  25.2848970
   8.1240460  15.5207770  25.9274280  12.1223800  12.9405140  26.8636160
  12.7253170  13.5125350  27.3384680  11.3816790  13.5044580  26.6410060
  15.2658400  13.3426700  22.1376440  15.4609030  14.2410150  22.4043870
  14.4788270  13.1113780  22.6309390   3.4510160  14.6887470  21.1752750
   3.9802920  13.9017270  21.0460700   4.0838480  15.3678660  21.4088280
   5.6448000  14.4262610  24.2298140   5.0150740  13.7249920  24.3968270
   5.1053140  15.1866740  24.0131300   8.5839950  31.0401840  36.9008750
   9.5107260  30.8046110  36.9444710   8.5690380  31.8673840  36.4194780
  16.8185010  30.5827410  23.8983000  16.9937200  29.8965150  23.2543920
  16.1206580  31.1074460  23.5059670   5.7703560  13.7046590  36.6650630
   5.4887830  14.2080190  35.9011450   6.1523260  12.9068340  36.2992760
   4.6612660  30.9722250  21.4518310   5.3931480  30.6881530  20.9042200
   4.9206330  30.7335530  22.3417690   3.8227450  27.0886980  21.4564640
   3.1936330  27.5572080  22.0050470   3.9375280  26.2436200  21.8910830
  12.3719020  13.1200170  37.2431100  12.2584470  13.4394780  38.1382620
  13.1888760  13.5212680  36.9468380  15.1517510  30.2671700  36.7249790
  15.9442830  29.7720930  36.5175750  15.4450660  30.9461840  37.3325400
  11.2777170  21.1392640   7.6065840  11.1971220  20.2247250   7.3357550
  10.8641590  21.6359710   6.9005550   9.4095210  22.9171660   9.4875110
   8.6337310  22.4372100   9.7773680  10.0608140  22.2377310   9.3131270
   3.4261040  23.2291470  10.3650870   2.5945920  22.9740180  10.7647380
   4.0342020  23.3002240  11.1008790  13.4302640  27.3231850   8.2674240
  12.9684170  26.5519090   8.5961410  14.2428190  27.3497920   8.7726690
   3.4062300  27.2631560  10.5608890   3.7090340  26.3729300  10.3819110
   4.1505890  27.8201780  10.3331140   9.6565950  29.6089860   7.8878230
   9.0377390  30.0647360   7.3172670  10.5117730  29.7641320   7.4867930
   8.8504200  25.5928850   9.4945270   8.7812480  24.6518790   9.3334400
   9.6124060  25.6830260  10.0667840   9.8809370  18.3999230   9.7214200
  10.2574190  17.5271110   9.6087870   9.7828880  18.7357930   8.8304640
   4.0114380  16.7724860   5.1831640   4.1181130  17.6728590   5.4900400
   3.1006740  16.7242830   4.8926290  13.6633490  15.8949670   6.6542540
  14.4843110  15.4046240   6.6968020  13.6967570  16.4847330   7.4074380
   5.8522110  19.7411230   9.5156820   6.3600330  20.2392200  10.1561840
   6.3835350  18.9646430   9.3396180  17.9533040  17.9116420  13.2186170
  17.2485210  18.2998130  12.7001280  18.2190960  18.6066710  13.8207100
   4.1358210  14.3809790  13.7820240   4.1376650  14.8982180  12.9766140
   3.3062520  13.9039970  13.7590170  10.5229300  24.4929100   5.2810140
   9.9046570  24.9578550   4.7172860  11.0352550  25.1856580   5.6979650
   5.3861060  24.0204970  11.9593740   5.0530440  24.6473890  12.6014810
   5.5627740  24.5466850  11.1795410  13.8994970  17.8350050   9.4270080
  13.1950540  18.1234940  10.0073190  14.2607130  18.6450160   9.0669640
   3.8173540  16.0919750  11.7890690   4.1590350  16.9361800  11.4944560
   2.8789350  16.2403490  11.9056030   4.5980160  25.9885770  13.7742920
   5.2154160  26.6636850  13.4927370   3.7373280  26.3973750  13.6830420
  15.5157750  27.4525180  11.6897560  14.8321270  28.1224290  11.6814230
  16.0552040  27.6505830  10.9242420  16.9681890  17.2804840   9.8179290
  16.0206800  17.3143820   9.9494720  17.2931880  18.0943790  10.2028650
   7.5001430  13.5802020   8.1135280   7.8076410  13.0248910   7.3970780
   6.5702130  13.7146480   7.9308270  13.0516490  29.2969310  10.4042740
  13.0643650  28.8931600   9.5365000  12.4991710  30.0716600  10.3004170
  14.3461910  26.0185530   5.4932910  14.2358240  25.0759860   5.6182330
  14.3430160  26.3801170   6.3795670  12.4501930  24.1999150  11.7325350
  12.8670720  23.9859260  10.8978810  13.1741750  24.4571940  12.3033970
   9.8882190  21.6450850   4.8495400   8.9611470  21.5788230   5.0783870
  10.0407010  22.5830980   4.7350640  16.3964030  22.5986370  11.8241590
  15.5682660  22.6679460  11.3491720  16.9914510  23.1840680  11.3557420
  13.9179480  23.2071150   5.3530650  13.2991900  22.8690700   4.7056950
  13.9003930  22.5630910   6.0609840  13.3606040  19.3855690  12.7696460
  12.9477220  20.2109400  13.0236450  12.6281990  18.8000730  12.5772820
   5.4938830  22.1715590   7.6315130   5.0895830  21.4592840   7.1361030
   5.5801950  21.8268830   8.5203170   5.9620530  25.8583150   9.7954340
   5.6648820  25.2528620   9.1162120   6.9120350  25.8960460   9.6843700
   4.2067450  18.9458800  11.4114170   4.7582040  19.0554140  10.6367420
   4.7210960  19.3196400  12.1269400  14.0506140  29.4315020  13.4577440
  13.5736700  30.2387210  13.2650050  13.3667930  28.7793350  13.6103650
   5.0538960  25.5964840  16.4462140   4.1567490  25.8204810  16.6935540
   5.0791830  25.7199780  15.4973540  12.0944180  22.4457960   2.3603400
  12.5337460  21.6080390   2.2141220  12.8072600  23.0787360   2.4467540
   3.8810180  22.4678160  15.0219510   3.7417950  23.3400960  15.3906910
   2.9991540  22.1250970  14.8767450  10.2039560  27.3854030   6.3284640
  10.6435470  28.1278360   5.9140030  10.1426450  27.6280600   7.2523600
   5.6790530  28.4099860  17.2304660   5.6505960  28.8142810  16.3633090
   5.5155500  27.4810220  17.0676260   2.1943460  21.0660570   5.1321780
   2.0741060  21.7922660   4.5203050   1.8844350  20.2963480   4.6549690
  17.6305350  29.1926960  18.5268830  18.1065070  29.6709850  19.2057910
  18.2512510  29.1244450  17.8014330  17.0338600  26.3839810  15.6868840
  17.1601660  26.1451690  14.7686020  17.0759980  25.5524350  16.1590920
  10.8955340  30.0867810  14.2563650  11.4100010  29.9975820  15.0586080
  10.0524420  30.4327510  14.5491560  12.8709740  30.3723150   3.6847650
  12.7110880  30.0826090   4.5829480  12.7056450  29.5963280   3.1492880
   5.3498120  30.1521680   5.4619270   5.1740600  29.2357220   5.2487070
   4.4953860  30.5108970   5.7017070  12.1385800  29.5073420   6.3194140
  12.5942750  28.7262800   6.6332760  12.4778320  30.2180240   6.8635320
  16.8862610  18.4372270  16.6518580  16.2706880  18.9451940  16.1234040
  16.5659030  17.5370600  16.5944520   4.6607120  14.4095640   8.5145450
   4.2175270  15.1905180   8.1829970   5.2192110  14.7325530   9.2216390
   8.9476930  17.2764160  14.1180770   8.4856300  17.4847180  14.9300710
   8.5455040  16.4623510  13.8151440  13.9481440  18.4973110  15.2477430
  13.0975030  18.1978860  15.5686500  13.7883230  18.7415120  14.3361250
  11.0431150  19.9974860  17.3476220  11.3684560  19.1638610  17.0078450
  11.8311480  20.5203380  17.4954550   7.7765940  14.0306340   3.3951280
   7.1520120  14.0266210   4.1204590   7.6896060  13.1637300   2.9987250
   6.6983020  14.9542970  10.3735050   6.9955350  15.8605800  10.2927070
   7.2468580  14.4661750   9.7594620   4.4521340  19.5329210   6.2426700
   4.2262260  19.3166380   7.1473320   3.6713870  19.9657670   5.8972670
  11.6819100  19.5392580   4.8417350  11.0827990  20.2628380   4.6580970
  12.2298710  19.4769360   4.0593800   6.8920550  20.4314790  16.9086970
   6.7964150  19.4909520  16.7587370   7.7352530  20.6529860  16.5135040
  10.2883970  18.1756120   6.8720630  10.6813540  18.4928320   6.0589320
  10.6500820  17.2968000   6.9865150   8.5976140  16.9263430  18.1317490
   7.9074460  16.7335630  18.7663580   9.3408440  17.2098070  18.6641790
  10.8739110  20.7661870  10.9671410  10.1420230  21.2748680  11.3161510
  10.4763450  19.9491850  10.6660190   7.3116500  17.4416070   9.3723900
   7.3152560  17.0006020   8.5228440   8.2067620  17.7633400   9.4795720
   3.1618880  17.3242560   8.3318110   2.8218930  17.8017790   9.0885160
   2.3996200  16.8707680   7.9719210   7.3736650  18.4428150   2.3630660
   7.4949470  18.4014630   3.3116480   6.9885160  19.3052300   2.2077390
  11.3365020  16.2195550  10.3794350  11.3537760  16.6704200  11.2236200
  11.0880600  15.3201190  10.5927790  14.7635770  13.6327730  16.2180730
  15.0881540  12.9017390  16.7438710  14.7992280  13.3141370  15.3161720
   7.6124470  21.5017850  11.1189310   7.9794600  21.0276420  11.8650650
   7.4229530  22.3759420  11.4597650   5.4023840  20.5426490  13.4373520
   5.0980910  21.4218470  13.6623880   6.3570300  20.6026280  13.4730960
   3.9305630  24.7487480   4.0340370   3.1567890  24.2085100   3.8739090
   4.6600260  24.2294090   3.6958130  14.6893610  23.7452840   9.8266760
  15.4092730  24.2408130   9.4362870  14.4875430  23.0670730   9.1820630
  10.1503550  15.1390800   3.9696150   9.3368160  14.6403970   3.8941460
   9.9565500  15.9789050   3.5532500  10.0712410  23.8161900  15.7135760
  10.0049720  22.8957570  15.4593350   9.4417550  23.9137340  16.4280400
  12.8651940  19.5110450   2.2658310  13.7531560  19.8227680   2.0909650
  12.8357030  18.6382700   1.8738890   3.9743030  24.4167860   7.6719180
   4.4921700  23.6136120   7.6176070   3.5227050  24.3547000   8.5136010
   8.8612530  25.6834140   2.9446480   9.2028230  26.4276370   2.4489800
   8.0325240  25.9965260   3.3071310   4.6600690  21.8413470  17.4684430
   4.3600830  21.9870650  16.5712250   5.4311930  21.2818760  17.3757820
  10.0029140  26.6382470  15.4639560  10.0173680  25.7063430  15.2458470
   9.2954240  26.7242230  16.1029330  16.2140350  23.2789810  14.8108140
  15.4888540  23.8718590  14.6137530  16.7415810  23.2713350  14.0121510
  16.1653460  27.6764550   4.4620300  15.5229620  27.0220170   4.7364020
  15.7784120  28.0819640   3.6860970  11.7439940  25.0049980   8.3091990
  12.0963760  24.4078110   7.6493360  10.8602270  24.6794210   8.4800240
   7.8303220  25.7647670   5.7162400   8.5174350  26.3116880   6.0969990
   7.0435640  26.3088400   5.7512010   7.1330430  22.7693700   5.3287760
   7.5893210  23.5798950   5.5547950   6.7818640  22.4516840   6.1606250
   9.4363040  28.2800040  12.5580060  10.0805260  28.4859420  13.2353480
   9.7992480  27.5188440  12.1050910   3.0342210  13.1131350   5.8010280
   2.9056840  13.1049250   6.7495200   2.2104230  13.4514440   5.4501290
  10.7095120  26.2832390  11.2757510  11.3517350  25.5825550  11.3889680
  11.2344470  27.0630830  11.0954400  12.4832740  27.0827290  14.4793570
  12.8188980  27.6693980  15.1571490  11.5633080  26.9520000  14.7091360
  14.1367090  24.4852950   2.6610810  13.8488790  24.9465640   3.4488690
  14.9319260  24.0250720   2.9295030   8.3121320  27.1318620  17.6481630
   7.9918190  26.4127860  18.1927320   7.6379680  27.8073690  17.7217690
   6.3535490  27.9779070   2.5914780   6.3445590  28.7108760   1.9759290
   5.4333850  27.7310650   2.6841740  11.5274920  17.3644780  13.0118430
  11.8955740  16.5439990  13.3398000  10.6673120  17.4246670  13.4274080
  14.8936950  16.3201720   3.8205990  14.2650110  16.4247390   3.1064220
  14.3988870  16.5398500   4.6099870   6.8620980  18.5987670   5.2363870
   6.1537130  19.0674010   5.6777480   7.1465460  17.9409680   5.8709060
   8.4876910  20.0184370  13.2356400   8.9862160  20.4930190  13.9008250
   8.6299860  19.0947890  13.4426430  10.8936410  15.3238330   6.6759660
  10.7704190  15.3424460   5.7269170  11.8420970  15.3717270   6.7958060
   7.9813200  30.5593630   5.9487640   8.2354700  30.5215020   5.0267010
   7.0325680  30.4326960   5.9415890   5.0656000  16.9072750   2.6114580
   5.9146530  17.3442900   2.5454770   4.6987270  17.2193010   3.4386640
  15.6943770  16.2352330  14.0784790  15.1917370  16.9757730  14.4178600
  16.5100430  16.6236330  13.7621580  13.9865780  21.4785510   7.5246150
  13.0455920  21.4935740   7.6993840  14.3009850  20.6921470   7.9706450
   2.6594180  20.5930180   1.7683000   2.7397770  19.6457690   1.8800400
   3.5513930  20.9237060   1.8743660  15.9891360  28.6494360   9.2000410
  16.1138780  29.4725530   9.6724220  16.8556920  28.4385090   8.8524560
   3.4608890  30.7425570   8.8717540   4.1971370  30.1941030   9.1426110
   3.8449810  31.6081580   8.7323530   2.4667170  29.9271640  18.0603120
   3.2679900  30.2483690  18.4738520   1.9518990  29.5667220  18.7823030
  11.3031800  26.0351510  18.0078530  10.6969960  26.0583110  17.2674280
  10.9985910  25.3034550  18.5445780  12.7332170  29.7631800  16.6187940
  13.6853920  29.6789820  16.5688180  12.5860390  30.4273510  17.2921730
   7.2402920  23.8216090  16.5374690   6.4748590  24.3901090  16.4529360
   7.4218880  23.5292300  15.6442920  14.3826270  25.5521420  17.0949710
  15.1235740  25.8897180  16.5917170  13.6198950  25.7213480  16.5419480
   2.2188060  20.5574690  17.8989240   2.2593400  20.2588560  18.8074470
   3.0733560  20.9582300  17.7396760   5.9966450  23.1570240   3.0592750
   6.4182870  22.9910110   3.9024140   6.1217290  22.3470470   2.5647890
   4.1593870  19.1366790  15.8663730   3.6290330  18.6457740  15.2387070
   4.8281940  19.5650990  15.3321660  13.0571930  23.6036250  15.6304920
  13.4712950  23.7581330  16.4795340  12.1222930  23.7291470  15.7930700
  13.5294100  20.9432410  17.6344070  14.1114870  20.1884730  17.5464550
  13.7055870  21.4739850  16.8575550   4.6466170  16.1029160  15.9461020
   4.5523040  15.4849910  15.2211890   4.0663560  16.8295450  15.7190930
   7.4127610  14.6602400  12.9788410   6.9644910  14.6826660  12.1333960
   6.7792810  14.2621420  13.5758710   7.8187160  23.5556730  13.6000850
   8.2375270  24.3989460  13.4277090   6.8995790  23.6928770  13.3707630
  10.1551060  21.2872910  14.9838690  10.2747270  20.6914050  15.7233530
  11.0145060  21.3242600  14.5639990  12.4938960  21.8410100  13.5601200
  11.9674180  22.3652720  12.9566340  12.8370300  22.4737490  14.1910930
   5.6694580  29.8609740  14.7158580   5.1315670  30.5855800  14.3967280
   5.9228540  29.3840080  13.9255920   6.9219830  17.8294260  16.2414510
   7.5119520  17.5210110  16.9292330   6.1040070  17.3574010  16.3974410
  11.7413260  17.4460070  16.4747530  11.0528780  16.7841610  16.4097520
  12.4619280  16.9998340  16.9195990  12.3713660  14.0411700   2.5337790
  12.6515950  13.1979600   2.8897210  11.5979390  14.2734810   3.0476540
   8.5256790  31.0960950  14.9745230   8.4515490  31.9996090  15.2817600
   7.6235630  30.7772850  14.9467300   9.0742120  30.2619460   2.5971590
   9.9692910  30.6004430   2.6190350   9.1059750  29.5398870   1.9695870
   4.5246000  26.7544550   5.9380820   4.2241540  26.6309520   6.8384730
   4.4183490  25.8953140   5.5296550  16.0536470  28.7923130  15.3037790
  15.4538460  28.8515690  14.5601710  16.1830370  27.8528110  15.4334640
  16.7494380  23.2788430   3.1441700  17.5113290  23.8485080   3.2501390
  16.7648750  22.7115630   3.9150010  17.7554350  24.1338530   7.9883630
  18.1263180  23.3505850   7.5819600  18.3956280  24.8227630   7.8100930
  14.7388110  25.5175110  13.4013950  13.9247950  25.9472270  13.6639740
  15.1462310  26.1293520  12.7883000  16.6978890  21.5091790   5.2943650
  16.3222490  20.7419720   4.8624940  15.9682010  21.8914490   5.7818580
  16.0878510  20.6563310  14.9283170  15.8564600  20.4276060  14.0281120
  16.3483060  21.5762860  14.8828060  14.5266580  15.8819740  17.7062870
  15.4036760  15.8903140  18.0896870  14.5387420  15.1450580  17.0955220
  15.9729850  19.7349280   8.5950890  16.4967330  19.2411930   7.9641060
  16.5589270  19.8699640   9.3398460  16.1519570  19.8189150  12.1170440
  15.2022280  19.7852690  12.2315430  16.3332580  20.7289260  11.8820210
  15.4629820  18.9922630   4.5343300  15.9588940  18.7593500   5.3192180
  15.2645890  18.1534470   4.1180940  16.8916980  17.6283580   7.0680980
  16.7816260  17.4739620   8.0063250  17.6524570  17.1004520   6.8256390
  15.2382700  13.5677710  13.5263980  15.8754920  14.1811850  13.8923170
  15.3857590  13.6038370  12.5813210  17.8545740  16.2302160   2.9343830
  17.0597240  16.1647280   3.4636740  18.0589020  17.1652800   2.9229180
  14.7964160  30.2693710   6.9282220  15.3923230  29.9478280   6.2516640
  15.0542310  29.7965530   7.7195490   2.7026730  26.7011620  17.0772850
   2.6596360  26.3304530  17.9587310   2.8337740  27.6389190  17.2174670
   6.4032760  28.2571210  12.6782570   6.1624120  28.5245770  11.7913090
   7.3435400  28.4276940  12.7333430   8.6087180  14.7203900  16.4339080
   8.5476070  15.3125730  17.1834490   9.5487560  14.6129860  16.2889340
  11.2461740  14.3773960  16.0731370  11.8602150  14.6953250  15.4112450
  11.7911300  13.8922550  16.6927230  17.6636920  30.2765590  13.4793210
  17.1695200  30.6734460  12.7620340  17.0550210  29.6514800  13.8730490
   1.7683000  13.0568220  16.1870430   2.3165990  12.8756270  15.4236540
   1.8338310  12.2662330  16.7226740   2.5414760  29.6473870  14.1970630
   1.9475080  29.5158570  14.9360670   2.5338600  28.8112010  13.7312730
  11.9869780  12.9406100  12.4000660  11.1129620  13.2741210  12.1973590
  11.8780530  12.4679280  13.2252530  12.8941760  15.1476970  13.7842380
  12.5655120  14.3328730  13.4044110  13.8424060  15.1046780  13.6608070
  15.3476370  30.9189010  10.7579950  14.8879340  31.6704820  10.3837970
  14.7188830  30.1995480  10.6994750   5.7772090  29.2277250   9.9328080
   6.2937110  28.6164610   9.4076340   6.4269470  29.7306030  10.4239090
   8.5167590  30.1185740  10.7597060   8.8045400  29.8640040   9.8830070
   9.0290810  29.5663100  11.3502630   9.7344600  13.8575940  11.3393570
   8.9516390  14.3321440  11.6190330   9.4407530  12.9530770  11.2306750
  14.2865670  14.5599040   9.3842660  14.7273760  14.5044140   8.5364260
  14.0173260  15.4757050   9.4552840  16.1504240  14.1914280   7.3951480
  16.0892640  13.2475500   7.2482500  16.9296270  14.2994370   7.9404940
   7.6198820  16.2762690   6.8509600   6.8073330  15.9019580   6.5105480
   8.1240460  15.5207770   7.1530790  12.1223800  12.9405140   8.0892670
  12.7253170  13.5125350   8.5641190  11.3816790  13.5044580   7.8666570
  15.2658400  13.3426700   3.3632950  15.4609030  14.2410150   3.6300380
  14.4788270  13.1113780   3.8565900   3.4510160  14.6887470   2.4009260
   3.9802920  13.9017270   2.2717210   4.0838480  15.3678660   2.6344790
   5.6448000  14.4262610   5.4554650   5.0150740  13.7249920   5.6224780
   5.1053140  15.1866740   5.2387810   8.5839950  31.0401840  18.1265260
   9.5107260  30.8046110  18.1701220   8.5690380  31.8673840  17.6451290
  16.8185010  30.5827410   5.1239510  16.9937200  29.8965150   4.4800430
  16.1206580  31.1074460   4.7316180   5.7703560  13.7046590  17.8907140
   5.4887830  14.2080190  17.1267960   6.1523260  12.9068340  17.5249270
   4.6612660  30.9722250   2.6774820   5.3931480  30.6881530   2.1298710
   4.9206330  30.7335530   3.5674200   3.8227450  27.0886980   2.6821150
   3.1936330  27.5572080   3.2306980   3.9375280  26.2436200   3.1167340
  12.3719020  13.1200170  18.4687610  12.2584470  13.4394780  19.3639130
  13.1888760  13.5212680  18.1724890  15.1517510  30.2671700  17.9506300
  15.9442830  29.7720930  17.7432260  15.4450660  30.9461840  18.5581910
   9.4095210   4.1428170  47.0362090   8.6337310   3.6628610  47.3260660
  10.0608140   3.4633820  46.8618250   3.4261040   4.4547980  47.9137850
   2.5945920   4.1996690  48.3134360   4.0342020   4.5258750  48.6495770
  13.4302640   8.5488360  45.8161220  12.9684170   7.7775600  46.1448390
  14.2428190   8.5754430  46.3213670   3.4062300   8.4888070  48.1095870
   3.7090340   7.5985810  47.9306090   4.1505890   9.0458290  47.8818120
   9.6565950  10.8346370  45.4365210   9.0377390  11.2903870  44.8659650
  10.5117730  10.9897830  45.0354910   8.8504200   6.8185360  47.0432250
   8.7812480   5.8775300  46.8821380   9.6124060   6.9086770  47.6154820
  10.5229300   5.7185610  42.8297120   9.9046570   6.1835060  42.2659840
  11.0352550   6.4113090  43.2466630   5.3861060   5.2461480  49.5080720
   5.0530440   5.8730400  50.1501790   5.5627740   5.7723360  48.7282390
   4.5980160   7.2142280  51.3229900   5.2154160   7.8893360  51.0414350
   3.7373280   7.6230260  51.2317400  15.5157750   8.6781690  49.2384540
  14.8321270   9.3480800  49.2301210  16.0552040   8.8762340  48.4729400
  13.0516490  10.5225820  47.9529720  13.0643650  10.1188110  47.0851980
  12.4991710  11.2973110  47.8491150  14.3461910   7.2442040  43.0419890
  14.2358240   6.3016370  43.1669310  14.3430160   7.6057680  43.9282650
  12.4501930   5.4255660  49.2812330  12.8670720   5.2115770  48.4465790
  13.1741750   5.6828450  49.8520950   9.8882190   2.8707360  42.3982380
   8.9611470   2.8044740  42.6270850  10.0407010   3.8087490  42.2837620
  16.3964030   3.8242880  49.3728570  15.5682660   3.8935970  48.8978700
  16.9914510   4.4097190  48.9044400  13.9179480   4.4327660  42.9017630
  13.2991900   4.0947210  42.2543930  13.9003930   3.7887420  43.6096820
   5.4938830   3.3972100  45.1802110   5.0895830   2.6849350  44.6848010
   5.5801950   3.0525340  46.0690150   5.9620530   7.0839660  47.3441320
   5.6648820   6.4785130  46.6649100   6.9120350   7.1216970  47.2330680
  14.0506140  10.6571530  51.0064420  13.5736700  11.4643720  50.8137030
  13.3667930  10.0049860  51.1590630  12.0944180   3.6714470  39.9090380
  12.5337460   2.8336900  39.7628200  12.8072600   4.3043870  39.9954520
   3.8810180   3.6934670  52.5706490   3.7417950   4.5657470  52.9393890
   2.9991540   3.3507480  52.4254430  10.2039560   8.6110540  43.8771620
  10.6435470   9.3534870  43.4627010  10.1426450   8.8537110  44.8010580
  17.0338600   7.6096320  53.2355820  17.1601660   7.3708200  52.3173000
  17.0759980   6.7780860  53.7077900  10.8955340  11.3124320  51.8050630
  11.4100010  11.2232330  52.6073060  10.0524420  11.6584020  52.0978540
  12.8709740  11.5979660  41.2334630  12.7110880  11.3082600  42.1316460
  12.7056450  10.8219790  40.6979860   5.3498120  11.3778190  43.0106250
   5.1740600  10.4613730  42.7974050   4.4953860  11.7365480  43.2504050
  12.5735870   9.1067220  39.7932630  11.8801030   9.1044510  39.1334910
  13.3158730   8.6826540  39.3626800  12.1385800  10.7329930  43.8681120
  12.5942750   9.9519310  44.1819740  12.4778320  11.4436750  44.4122300
   7.6124470   2.7274360  48.6676290   7.9794600   2.2532930  49.4137630
   7.4229530   3.6015930  49.0084630   5.4023840   1.7683000  50.9860500
   5.0980910   2.6474980  51.2110860   6.3570300   1.8282790  51.0217940
   3.9305630   5.9743990  41.5827350   3.1567890   5.4341610  41.4226070
   4.6600260   5.4550600  41.2445110  14.6893610   4.9709350  47.3753740
  15.4092730   5.4664640  46.9849850  14.4875430   4.2927240  46.7307610
  10.0712410   5.0418410  53.2622740  10.0049720   4.1214080  53.0080330
   9.4417550   5.1393850  53.9767380   3.9743030   5.6424370  45.2206160
   4.4921700   4.8392630  45.1663050   3.5227050   5.5803510  46.0622990
   8.8612530   6.9090650  40.4933460   9.2028230   7.6532880  39.9976780
   8.0325240   7.2221770  40.8558290  10.0029140   7.8638980  53.0126540
  10.0173680   6.9319940  52.7945450   9.2954240   7.9498740  53.6516310
  15.1366210   2.0478800  39.2825150  15.0529930   2.4793020  38.4321590
  15.8560400   2.5077150  39.7151970  16.2140350   4.5046320  52.3595120
  15.4888540   5.0975100  52.1624510  16.7415810   4.4969860  51.5608490
  16.1653460   8.9021060  42.0107280  15.5229620   8.2476680  42.2851000
  15.7784120   9.3076150  41.2347950  11.7439940   6.2306490  45.8578970
  12.0963760   5.6334620  45.1980340  10.8602270   5.9050720  46.0287220
   7.8303220   6.9904180  43.2649380   8.5174350   7.5373390  43.6456970
   7.0435640   7.5344910  43.2998990   7.1330430   3.9950210  42.8774740
   7.5893210   4.8055460  43.1034930   6.7818640   3.6773350  43.7093230
   9.4363040   9.5056550  50.1067040  10.0805260   9.7115930  50.7840460
   9.7992480   8.7444950  49.6537890  10.7095120   7.5088900  48.8244490
  11.3517350   6.8082060  48.9376660  11.2344470   8.2887340  48.6441380
  14.5550840   7.7937520  38.5483630  14.3288420   7.0767960  39.1408270
  14.1647040   7.5449960  37.7105380  12.4832740   8.3083800  52.0280550
  12.8188980   8.8950490  52.7058470  11.5633080   8.1776510  52.2578340
  14.1367090   5.7109460  40.2097790  13.8488790   6.1722150  40.9975670
  14.9319260   5.2507230  40.4782010   6.3535490   9.2035580  40.1401760
   6.3445590   9.9365270  39.5246270   5.4333850   8.9567160  40.2328720
   9.3395090   9.2663820  38.8026950   9.4407070   9.0627810  37.8728930
   8.4396830   9.0122100  39.0074730   7.9813200  11.7850140  43.4974620
   8.2354700  11.7471530  42.5753990   7.0325680  11.6583470  43.4902870
  13.9865780   2.7042020  45.0733130  13.0455920   2.7192250  45.2480820
  14.3009850   1.9177980  45.5193430   3.9647420   4.3861620  38.6337090
   4.7310690   4.2742980  39.1962520   4.0422110   3.6899590  37.9813860
  15.9891360   9.8750870  46.7487390  16.1138780  10.6982040  47.2211200
  16.8556920   9.6641600  46.4011540   3.4608890  11.9682080  46.4204520
   4.1971370  11.4197540  46.6913090   3.8449810  12.8338090  46.2810510
   6.5711200  11.1412390  38.2430090   7.3639810  11.4301220  37.7911880
   6.0515550  10.7104560  37.5642570  15.6241370  10.3682520  39.6666830
  15.3382880   9.9547660  38.8521010  15.4260920  11.2970230  39.5467350
   7.0888600   6.3615800  38.1072440   6.9839240   5.7468150  38.8333820
   6.9212820   5.8381690  37.3235450   7.2402920   5.0472600  54.0861670
   6.4748590   5.6157600  54.0016340   7.4218880   4.7548810  53.1929900
  10.3291330   5.4235830  38.7114430   9.7801430   5.8705130  39.3557170
  10.9510590   4.9185080  39.2352100   5.9966450   4.3826750  40.6079730
   6.4182870   4.2166620  41.4511120   6.1217290   3.5726980  40.1134870
   8.5094090   3.4064360  37.8556830   9.0299750   2.6913380  37.4897980
   9.1562490   4.0450230  38.1557340  13.0571930   4.8292760  53.1791900
  13.4712950   4.9837840  54.0282320  12.1222930   4.9547980  53.3417680
   7.8187160   4.7813240  51.1487830   8.2375270   5.6245970  50.9764070
   6.8995790   4.9185280  50.9194610  10.1551060   2.5129420  52.5325670
  10.2747270   1.9170560  53.2720510  11.0145060   2.5499110  52.1126970
  12.4938960   3.0666610  51.1088180  11.9674180   3.5909230  50.5053320
  12.8370300   3.6994000  51.7397910   5.6694580  11.0866250  52.2645560
   5.1315670  11.8112310  51.9454260   5.9228540  10.6096590  51.4742900
   8.5256790  12.3217460  52.5232210   8.4515490  13.2252600  52.8304580
   7.6235630  12.0029360  52.4954280   9.0742120  11.4875970  40.1458570
   9.9692910  11.8260940  40.1677330   9.1059750  10.7655380  39.5182850
   2.7138280   6.8603020  38.3745570   3.1513150   7.4032690  39.0303150
   3.1986010   6.0349970  38.3841910   4.5246000   7.9801060  43.4867800
   4.2241540   7.8566030  44.3871710   4.4183490   7.1209650  43.0783530
  16.0536470  10.0179640  52.8524770  15.4538460  10.0772200  52.1088690
  16.1830370   9.0784620  52.9821620  17.2937920   7.7597460  38.1894480
  16.4630880   7.8274110  38.6601710  17.4709750   8.6501580  37.8861340
  16.7494380   4.5044940  40.6928680  17.5113290   5.0741590  40.7988370
  16.7648750   3.9372140  41.4636990  17.7554350   5.3595040  45.5370610
  18.1263180   4.5762360  45.1306580  18.3956280   6.0484140  45.3587910
  14.7388110   6.7431620  50.9500930  13.9247950   7.1728780  51.2126720
  15.1462310   7.3550030  50.3369980  16.8013550   4.7979310  37.8501200
  17.0762390   5.7058190  37.7220420  16.6124290   4.7341840  38.7863190
  16.6978890   2.7348300  42.8430630  16.3222490   1.9676230  42.4111920
  15.9682010   3.1171000  43.3305560  14.7964160  11.4950220  44.4769200
  15.3923230  11.1734790  43.8003620  15.0542310  11.0222040  45.2682470
   6.4032760   9.4827720  50.2269550   6.1624120   9.7502280  49.3400070
   7.3435400   9.6533450  50.2820410  17.6636920  11.5022100  51.0280190
  17.1695200  11.8990970  50.3107320  17.0550210  10.8771310  51.4217470
   2.5414760  10.8730380  51.7457610   1.9475080  10.7415080  52.4847650
   2.5338600  10.0368520  51.2799710  15.3476370  12.1445520  48.3066930
  14.8879340  12.8961330  47.9324950  14.7188830  11.4251990  48.2481730
   5.7772090  10.4533760  47.4815060   6.2937110   9.8421120  46.9563320
   6.4269470  10.9562540  47.9726070   8.5167590  11.3442250  48.3084040
   8.8045400  11.0896550  47.4317050   9.0290810  10.7919610  48.8989610
  16.8185010  11.8083920  42.6726490  16.9937200  11.1221660  42.0287410
  16.1206580  12.3330970  42.2803160   4.6612660  12.1978760  40.2261800
   5.3931480  11.9138040  39.6785690   4.9206330  11.9592040  41.1161180
   3.8227450   8.3143490  40.2308130   3.1936330   8.7828590  40.7793960
   3.9375280   7.4692710  40.6654320   9.4095210   4.1428170  28.2618600
   8.6337310   3.6628610  28.5517170  10.0608140   3.4633820  28.0874760
   3.4261040   4.4547980  29.1394360   2.5945920   4.1996690  29.5390870
   4.0342020   4.5258750  29.8752280  13.4302640   8.5488360  27.0417730
  12.9684170   7.7775600  27.3704900  14.2428190   8.5754430  27.5470180
   3.4062300   8.4888070  29.3352380   3.7090340   7.5985810  29.1562600
   4.1505890   9.0458290  29.1074630   9.6565950  10.8346370  26.6621720
   9.0377390  11.2903870  26.0916160  10.5117730  10.9897830  26.2611420
   8.8504200   6.8185360  28.2688760   8.7812480   5.8775300  28.1077890
   9.6124060   6.9086770  28.8411330  10.5229300   5.7185610  24.0553630
   9.9046570   6.1835060  23.4916350  11.0352550   6.4113090  24.4723140
   5.3861060   5.2461480  30.7337230   5.0530440   5.8730400  31.3758300
   5.5627740   5.7723360  29.9538900   4.5980160   7.2142280  32.5486410
   5.2154160   7.8893360  32.2670860   3.7373280   7.6230260  32.4573910
  15.5157750   8.6781690  30.4641050  14.8321270   9.3480800  30.4557720
  16.0552040   8.8762340  29.6985910  13.0516490  10.5225820  29.1786230
  13.0643650  10.1188110  28.3108490  12.4991710  11.2973110  29.0747660
  14.3461910   7.2442040  24.2676400  14.2358240   6.3016370  24.3925820
  14.3430160   7.6057680  25.1539160  12.4501930   5.4255660  30.5068840
  12.8670720   5.2115770  29.6722300  13.1741750   5.6828450  31.0777460
   9.8882190   2.8707360  23.6238890   8.9611470   2.8044740  23.8527360
  10.0407010   3.8087490  23.5094130  16.3964030   3.8242880  30.5985080
  15.5682660   3.8935970  30.1235210  16.9914510   4.4097190  30.1300910
  13.9179480   4.4327660  24.1274140  13.2991900   4.0947210  23.4800440
  13.9003930   3.7887420  24.8353330   5.4938830   3.3972100  26.4058620
   5.0895830   2.6849350  25.9104520   5.5801950   3.0525340  27.2946660
   5.9620530   7.0839660  28.5697830   5.6648820   6.4785130  27.8905610
   6.9120350   7.1216970  28.4587190  14.0506140  10.6571530  32.2320930
  13.5736700  11.4643720  32.0393540  13.3667930  10.0049860  32.3847140
   5.0538960   6.8221350  35.2205630   4.1567490   7.0461320  35.4679030
   5.0791830   6.9456290  34.2717030  12.0944180   3.6714470  21.1346890
  12.5337460   2.8336900  20.9884710  12.8072600   4.3043870  21.2211030
   3.8810180   3.6934670  33.7963000   3.7417950   4.5657470  34.1650400
   2.9991540   3.3507480  33.6510940  10.2039560   8.6110540  25.1028130
  10.6435470   9.3534870  24.6883520  10.1426450   8.8537110  26.0267090
   5.6790530   9.6356370  36.0048150   5.6505960  10.0399320  35.1376580
   5.5155500   8.7066730  35.8419750  17.6305350  10.4183470  37.3012320
  18.1065070  10.8966360  37.9801400  18.2512510  10.3500960  36.5757820
  17.0338600   7.6096320  34.4612330  17.1601660   7.3708200  33.5429510
  17.0759980   6.7780860  34.9334410  10.8955340  11.3124320  33.0307140
  11.4100010  11.2232330  33.8329570  10.0524420  11.6584020  33.3235050
  12.8709740  11.5979660  22.4591140  12.7110880  11.3082600  23.3572970
  12.7056450  10.8219790  21.9236370   5.3498120  11.3778190  24.2362760
   5.1740600  10.4613730  24.0230560   4.4953860  11.7365480  24.4760560
  12.5735870   9.1067220  21.0189140  11.8801030   9.1044510  20.3591420
  13.3158730   8.6826540  20.5883310  12.1385800  10.7329930  25.0937630
  12.5942750   9.9519310  25.4076250  12.4778320  11.4436750  25.6378810
   7.6124470   2.7274360  29.8932800   7.9794600   2.2532930  30.6394140
   7.4229530   3.6015930  30.2341140   5.4023840   1.7683000  32.2117010
   5.0980910   2.6474980  32.4367370   6.3570300   1.8282790  32.2474450
   3.9305630   5.9743990  22.8083860   3.1567890   5.4341610  22.6482580
   4.6600260   5.4550600  22.4701620  14.6893610   4.9709350  28.6010250
  15.4092730   5.4664640  28.2106360  14.4875430   4.2927240  27.9564120
  10.0712410   5.0418410  34.4879250  10.0049720   4.1214080  34.2336840
   9.4417550   5.1393850  35.2023890   3.9743030   5.6424370  26.4462670
   4.4921700   4.8392630  26.3919560   3.5227050   5.5803510  27.2879500
   8.8612530   6.9090650  21.7189970   9.2028230   7.6532880  21.2233290
   8.0325240   7.2221770  22.0814800   4.6600690   3.0669980  36.2427920
   4.3600830   3.2127160  35.3455740   5.4311930   2.5075270  36.1501310
  10.0029140   7.8638980  34.2383050  10.0173680   6.9319940  34.0201960
   9.2954240   7.9498740  34.8772820  15.1366210   2.0478800  20.5081660
  15.0529930   2.4793020  19.6578100  15.8560400   2.5077150  20.9408480
  16.2140350   4.5046320  33.5851630  15.4888540   5.0975100  33.3881020
  16.7415810   4.4969860  32.7865000  16.1653460   8.9021060  23.2363790
  15.5229620   8.2476680  23.5107510  15.7784120   9.3076150  22.4604460
  11.7439940   6.2306490  27.0835480  12.0963760   5.6334620  26.4236850
  10.8602270   5.9050720  27.2543730   7.8303220   6.9904180  24.4905890
   8.5174350   7.5373390  24.8713480   7.0435640   7.5344910  24.5255500
   7.1330430   3.9950210  24.1031250   7.5893210   4.8055460  24.3291440
   6.7818640   3.6773350  24.9349740   9.4363040   9.5056550  31.3323550
  10.0805260   9.7115930  32.0096970   9.7992480   8.7444950  30.8794400
  10.7095120   7.5088900  30.0501000  11.3517350   6.8082060  30.1633170
  11.2344470   8.2887340  29.8697890  14.5550840   7.7937520  19.7740140
  14.3288420   7.0767960  20.3664780  14.1647040   7.5449960  18.9361890
  12.4832740   8.3083800  33.2537060  12.8188980   8.8950490  33.9314980
  11.5633080   8.1776510  33.4834850  14.1367090   5.7109460  21.4354300
  13.8488790   6.1722150  22.2232180  14.9319260   5.2507230  21.7038520
   8.3121320   8.3575130  36.4225120   7.9918190   7.6384370  36.9670810
   7.6379680   9.0330200  36.4961180   6.3535490   9.2035580  21.3658270
   6.3445590   9.9365270  20.7502780   5.4333850   8.9567160  21.4585230
   9.3395090   9.2663820  20.0283460   9.4407070   9.0627810  19.0985440
   8.4396830   9.0122100  20.2331240   7.9813200  11.7850140  24.7231130
   8.2354700  11.7471530  23.8010500   7.0325680  11.6583470  24.7159380
  13.9865780   2.7042020  26.2989640  13.0455920   2.7192250  26.4737330
  14.3009850   1.9177980  26.7449940   3.9647420   4.3861620  19.8593600
   4.7310690   4.2742980  20.4219030   4.0422110   3.6899590  19.2070370
  15.9891360   9.8750870  27.9743900  16.1138780  10.6982040  28.4467710
  16.8556920   9.6641600  27.6268050   3.4608890  11.9682080  27.6461030
   4.1971370  11.4197540  27.9169600   3.8449810  12.8338090  27.5067020
   2.4667170  11.1528150  36.8346610   3.2679900  11.4740200  37.2482010
   1.9518990  10.7923730  37.5566520   6.5711200  11.1412390  19.4686600
   7.3639810  11.4301220  19.0168390   6.0515550  10.7104560  18.7899080
  11.3031800   7.2608020  36.7822020  10.6969960   7.2839620  36.0417770
  10.9985910   6.5291060  37.3189270  12.7332170  10.9888310  35.3931430
  13.6853920  10.9046330  35.3431670  12.5860390  11.6530020  36.0665220
  15.6241370  10.3682520  20.8923340  15.3382880   9.9547660  20.0777520
  15.4260920  11.2970230  20.7723860   7.0888600   6.3615800  19.3328950
   6.9839240   5.7468150  20.0590330   6.9212820   5.8381690  18.5491960
   7.2402920   5.0472600  35.3118180   6.4748590   5.6157600  35.2272850
   7.4218880   4.7548810  34.4186410  10.3291330   5.4235830  19.9370940
   9.7801430   5.8705130  20.5813680  10.9510590   4.9185080  20.4608610
  14.3826270   6.7777930  35.8693200  15.1235740   7.1153690  35.3660660
  13.6198950   6.9469990  35.3162970   5.9966450   4.3826750  21.8336240
   6.4182870   4.2166620  22.6767630   6.1217290   3.5726980  21.3391380
   8.5094090   3.4064360  19.0813340   9.0299750   2.6913380  18.7154490
   9.1562490   4.0450230  19.3813850  13.0571930   4.8292760  34.4048410
  13.4712950   4.9837840  35.2538830  12.1222930   4.9547980  34.5674190
   7.8187160   4.7813240  32.3744340   8.2375270   5.6245970  32.2020580
   6.8995790   4.9185280  32.1451120  10.1551060   2.5129420  33.7582180
  10.2747270   1.9170560  34.4977020  11.0145060   2.5499110  33.3383480
  12.4938960   3.0666610  32.3344690  11.9674180   3.5909230  31.7309830
  12.8370300   3.6994000  32.9654420   5.6694580  11.0866250  33.4902070
   5.1315670  11.8112310  33.1710770   5.9228540  10.6096590  32.6999410
   8.5256790  12.3217460  33.7488720   8.4515490  13.2252600  34.0561090
   7.6235630  12.0029360  33.7210790   9.0742120  11.4875970  21.3715080
   9.9692910  11.8260940  21.3933840   9.1059750  10.7655380  20.7439360
   2.7138280   6.8603020  19.6002080   3.1513150   7.4032690  20.2559660
   3.1986010   6.0349970  19.6098420   4.5246000   7.9801060  24.7124310
   4.2241540   7.8566030  25.6128220   4.4183490   7.1209650  24.3040040
  16.0536470  10.0179640  34.0781280  15.4538460  10.0772200  33.3345200
  16.1830370   9.0784620  34.2078130  17.2937920   7.7597460  19.4150990
  16.4630880   7.8274110  19.8858220  17.4709750   8.6501580  19.1117850
  16.7494380   4.5044940  21.9185190  17.5113290   5.0741590  22.0244880
  16.7648750   3.9372140  22.6893500  17.7554350   5.3595040  26.7627120
  18.1263180   4.5762360  26.3563090  18.3956280   6.0484140  26.5844420
  14.7388110   6.7431620  32.1757440  13.9247950   7.1728780  32.4383230
  15.1462310   7.3550030  31.5626490  16.8013550   4.7979310  19.0757710
  17.0762390   5.7058190  18.9476930  16.6124290   4.7341840  20.0119700
  16.6978890   2.7348300  24.0687140  16.3222490   1.9676230  23.6368430
  15.9682010   3.1171000  24.5562070  14.7964160  11.4950220  25.7025710
  15.3923230  11.1734790  25.0260130  15.0542310  11.0222040  26.4938980
   2.7026730   7.9268130  35.8516340   2.6596360   7.5561040  36.7330800
   2.8337740   8.8645700  35.9918160   6.4032760   9.4827720  31.4526060
   6.1624120   9.7502280  30.5656580   7.3435400   9.6533450  31.5076920
  17.6636920  11.5022100  32.2536700  17.1695200  11.8990970  31.5363830
  17.0550210  10.8771310  32.6473980   2.5414760  10.8730380  32.9714120
   1.9475080  10.7415080  33.7104160   2.5338600  10.0368520  32.5056220
  15.3476370  12.1445520  29.5323440  14.8879340  12.8961330  29.1581460
  14.7188830  11.4251990  29.4738240   5.7772090  10.4533760  28.7071570
   6.2937110   9.8421120  28.1819830   6.4269470  10.9562540  29.1982580
   8.5167590  11.3442250  29.5340550   8.8045400  11.0896550  28.6573560
   9.0290810  10.7919610  30.1246120   8.5839950  12.2658350  36.9008750
   9.5107260  12.0302620  36.9444710   8.5690380  13.0930350  36.4194780
  16.8185010  11.8083920  23.8983000  16.9937200  11.1221660  23.2543920
  16.1206580  12.3330970  23.5059670   4.6612660  12.1978760  21.4518310
   5.3931480  11.9138040  20.9042200   4.9206330  11.9592040  22.3417690
   3.8227450   8.3143490  21.4564640   3.1936330   8.7828590  22.0050470
   3.9375280   7.4692710  21.8910830  15.1517510  11.4928210  36.7249790
  15.9442830  10.9977440  36.5175750  15.4450660  12.1718350  37.3325400
   9.4095210   4.1428170   9.4875110   8.6337310   3.6628610   9.7773680
  10.0608140   3.4633820   9.3131270   3.4261040   4.4547980  10.3650870
   2.5945920   4.1996690  10.7647380   4.0342020   4.5258750  11.1008790
  13.4302640   8.5488360   8.2674240  12.9684170   7.7775600   8.5961410
  14.2428190   8.5754430   8.7726690   3.4062300   8.4888070  10.5608890
   3.7090340   7.5985810  10.3819110   4.1505890   9.0458290  10.3331140
   9.6565950  10.8346370   7.8878230   9.0377390  11.2903870   7.3172670
  10.5117730  10.9897830   7.4867930   8.8504200   6.8185360   9.4945270
   8.7812480   5.8775300   9.3334400   9.6124060   6.9086770  10.0667840
  10.5229300   5.7185610   5.2810140   9.9046570   6.1835060   4.7172860
  11.0352550   6.4113090   5.6979650   5.3861060   5.2461480  11.9593740
   5.0530440   5.8730400  12.6014810   5.5627740   5.7723360  11.1795410
   4.5980160   7.2142280  13.7742920   5.2154160   7.8893360  13.4927370
   3.7373280   7.6230260  13.6830420  15.5157750   8.6781690  11.6897560
  14.8321270   9.3480800  11.6814230  16.0552040   8.8762340  10.9242420
  13.0516490  10.5225820  10.4042740  13.0643650  10.1188110   9.5365000
  12.4991710  11.2973110  10.3004170  14.3461910   7.2442040   5.4932910
  14.2358240   6.3016370   5.6182330  14.3430160   7.6057680   6.3795670
  12.4501930   5.4255660  11.7325350  12.8670720   5.2115770  10.8978810
  13.1741750   5.6828450  12.3033970   9.8882190   2.8707360   4.8495400
   8.9611470   2.8044740   5.0783870  10.0407010   3.8087490   4.7350640
  16.3964030   3.8242880  11.8241590  15.5682660   3.8935970  11.3491720
  16.9914510   4.4097190  11.3557420  13.9179480   4.4327660   5.3530650
  13.2991900   4.0947210   4.7056950  13.9003930   3.7887420   6.0609840
   5.4938830   3.3972100   7.6315130   5.0895830   2.6849350   7.1361030
   5.5801950   3.0525340   8.5203170   5.9620530   7.0839660   9.7954340
   5.6648820   6.4785130   9.1162120   6.9120350   7.1216970   9.6843700
  14.0506140  10.6571530  13.4577440  13.5736700  11.4643720  13.2650050
  13.3667930  10.0049860  13.6103650   5.0538960   6.8221350  16.4462140
   4.1567490   7.0461320  16.6935540   5.0791830   6.9456290  15.4973540
  12.0944180   3.6714470   2.3603400  12.5337460   2.8336900   2.2141220
  12.8072600   4.3043870   2.4467540   3.8810180   3.6934670  15.0219510
   3.7417950   4.5657470  15.3906910   2.9991540   3.3507480  14.8767450
  10.2039560   8.6110540   6.3284640  10.6435470   9.3534870   5.9140030
  10.1426450   8.8537110   7.2523600   5.6790530   9.6356370  17.2304660
   5.6505960  10.0399320  16.3633090   5.5155500   8.7066730  17.0676260
  17.6305350  10.4183470  18.5268830  18.1065070  10.8966360  19.2057910
  18.2512510  10.3500960  17.8014330  17.0338600   7.6096320  15.6868840
  17.1601660   7.3708200  14.7686020  17.0759980   6.7780860  16.1590920
  10.8955340  11.3124320  14.2563650  11.4100010  11.2232330  15.0586080
  10.0524420  11.6584020  14.5491560  12.8709740  11.5979660   3.6847650
  12.7110880  11.3082600   4.5829480  12.7056450  10.8219790   3.1492880
   5.3498120  11.3778190   5.4619270   5.1740600  10.4613730   5.2487070
   4.4953860  11.7365480   5.7017070  12.1385800  10.7329930   6.3194140
  12.5942750   9.9519310   6.6332760  12.4778320  11.4436750   6.8635320
   7.6124470   2.7274360  11.1189310   7.9794600   2.2532930  11.8650650
   7.4229530   3.6015930  11.4597650   5.4023840   1.7683000  13.4373520
   5.0980910   2.6474980  13.6623880   6.3570300   1.8282790  13.4730960
   3.9305630   5.9743990   4.0340370   3.1567890   5.4341610   3.8739090
   4.6600260   5.4550600   3.6958130  14.6893610   4.9709350   9.8266760
  15.4092730   5.4664640   9.4362870  14.4875430   4.2927240   9.1820630
  10.0712410   5.0418410  15.7135760  10.0049720   4.1214080  15.4593350
   9.4417550   5.1393850  16.4280400   3.9743030   5.6424370   7.6719180
   4.4921700   4.8392630   7.6176070   3.5227050   5.5803510   8.5136010
   8.8612530   6.9090650   2.9446480   9.2028230   7.6532880   2.4489800
   8.0325240   7.2221770   3.3071310   4.6600690   3.0669980  17.4684430
   4.3600830   3.2127160  16.5712250   5.4311930   2.5075270  17.3757820
  10.0029140   7.8638980  15.4639560  10.0173680   6.9319940  15.2458470
   9.2954240   7.9498740  16.1029330  16.2140350   4.5046320  14.8108140
  15.4888540   5.0975100  14.6137530  16.7415810   4.4969860  14.0121510
  16.1653460   8.9021060   4.4620300  15.5229620   8.2476680   4.7364020
  15.7784120   9.3076150   3.6860970  11.7439940   6.2306490   8.3091990
  12.0963760   5.6334620   7.6493360  10.8602270   5.9050720   8.4800240
   7.8303220   6.9904180   5.7162400   8.5174350   7.5373390   6.0969990
   7.0435640   7.5344910   5.7512010   7.1330430   3.9950210   5.3287760
   7.5893210   4.8055460   5.5547950   6.7818640   3.6773350   6.1606250
   9.4363040   9.5056550  12.5580060  10.0805260   9.7115930  13.2353480
   9.7992480   8.7444950  12.1050910  10.7095120   7.5088900  11.2757510
  11.3517350   6.8082060  11.3889680  11.2344470   8.2887340  11.0954400
  12.4832740   8.3083800  14.4793570  12.8188980   8.8950490  15.1571490
  11.5633080   8.1776510  14.7091360  14.1367090   5.7109460   2.6610810
  13.8488790   6.1722150   3.4488690  14.9319260   5.2507230   2.9295030
   8.3121320   8.3575130  17.6481630   7.9918190   7.6384370  18.1927320
   7.6379680   9.0330200  17.7217690   6.3535490   9.2035580   2.5914780
   6.3445590   9.9365270   1.9759290   5.4333850   8.9567160   2.6841740
   7.9813200  11.7850140   5.9487640   8.2354700  11.7471530   5.0267010
   7.0325680  11.6583470   5.9415890  13.9865780   2.7042020   7.5246150
  13.0455920   2.7192250   7.6993840  14.3009850   1.9177980   7.9706450
  15.9891360   9.8750870   9.2000410  16.1138780  10.6982040   9.6724220
  16.8556920   9.6641600   8.8524560   3.4608890  11.9682080   8.8717540
   4.1971370  11.4197540   9.1426110   3.8449810  12.8338090   8.7323530
   2.4667170  11.1528150  18.0603120   3.2679900  11.4740200  18.4738520
   1.9518990  10.7923730  18.7823030  11.3031800   7.2608020  18.0078530
  10.6969960   7.2839620  17.2674280  10.9985910   6.5291060  18.5445780
  12.7332170  10.9888310  16.6187940  13.6853920  10.9046330  16.5688180
  12.5860390  11.6530020  17.2921730   7.2402920   5.0472600  16.5374690
   6.4748590   5.6157600  16.4529360   7.4218880   4.7548810  15.6442920
  14.3826270   6.7777930  17.0949710  15.1235740   7.1153690  16.5917170
  13.6198950   6.9469990  16.5419480   5.9966450   4.3826750   3.0592750
   6.4182870   4.2166620   3.9024140   6.1217290   3.5726980   2.5647890
  13.0571930   4.8292760  15.6304920  13.4712950   4.9837840  16.4795340
  12.1222930   4.9547980  15.7930700   7.8187160   4.7813240  13.6000850
   8.2375270   5.6245970  13.4277090   6.8995790   4.9185280  13.3707630
  10.1551060   2.5129420  14.9838690  10.2747270   1.9170560  15.7233530
  11.0145060   2.5499110  14.5639990  12.4938960   3.0666610  13.5601200
  11.9674180   3.5909230  12.9566340  12.8370300   3.6994000  14.1910930
   5.6694580  11.0866250  14.7158580   5.1315670  11.8112310  14.3967280
   5.9228540  10.6096590  13.9255920   8.5256790  12.3217460  14.9745230
   8.4515490  13.2252600  15.2817600   7.6235630  12.0029360  14.9467300
   9.0742120  11.4875970   2.5971590   9.9692910  11.8260940   2.6190350
   9.1059750  10.7655380   1.9695870   4.5246000   7.9801060   5.9380820
   4.2241540   7.8566030   6.8384730   4.4183490   7.1209650   5.5296550
  16.0536470  10.0179640  15.3037790  15.4538460  10.0772200  14.5601710
  16.1830370   9.0784620  15.4334640  16.7494380   4.5044940   3.1441700
  17.5113290   5.0741590   3.2501390  16.7648750   3.9372140   3.9150010
  17.7554350   5.3595040   7.9883630  18.1263180   4.5762360   7.5819600
  18.3956280   6.0484140   7.8100930  14.7388110   6.7431620  13.4013950
  13.9247950   7.1728780  13.6639740  15.1462310   7.3550030  12.7883000
  16.6978890   2.7348300   5.2943650  16.3222490   1.9676230   4.8624940
  15.9682010   3.1171000   5.7818580  14.7964160  11.4950220   6.9282220
  15.3923230  11.1734790   6.2516640  15.0542310  11.0222040   7.7195490
   2.7026730   7.9268130  17.0772850   2.6596360   7.5561040  17.9587310
   2.8337740   8.8645700  17.2174670   6.4032760   9.4827720  12.6782570
   6.1624120   9.7502280  11.7913090   7.3435400   9.6533450  12.7333430
  17.6636920  11.5022100  13.4793210  17.1695200  11.8990970  12.7620340
  17.0550210  10.8771310  13.8730490   2.5414760  10.8730380  14.1970630
   1.9475080  10.7415080  14.9360670   2.5338600  10.0368520  13.7312730
  15.3476370  12.1445520  10.7579950  14.8879340  12.8961330  10.3837970
  14.7188830  11.4251990  10.6994750   5.7772090  10.4533760   9.9328080
   6.2937110   9.8421120   9.4076340   6.4269470  10.9562540  10.4239090
   8.5167590  11.3442250  10.7597060   8.8045400  11.0896550   9.8830070
   9.0290810  10.7919610  11.3502630   8.5839950  12.2658350  18.1265260
   9.5107260  12.0302620  18.1701220   8.5690380  13.0930350  17.6451290
  16.8185010  11.8083920   5.1239510  16.9937200  11.1221660   4.4800430
  16.1206580  12.3330970   4.7316180   4.6612660  12.1978760   2.6774820
   5.3931480  11.9138040   2.1298710   4.9206330  11.9592040   3.5674200
   3.8227450   8.3143490   2.6821150   3.1936330   8.7828590   3.2306980
   3.9375280   7.4692710   3.1167340  15.1517510  11.4928210  17.9506300
  15.9442830  10.9977440  17.7432260  15.4450660  12.1718350  18.5581910
  91.7593910 100.0948430  55.9688560  90.0000000  90.0000000  90.0000000
