default_name
 49740
  25.8791849  41.3728956  34.6678304  26.0810880  40.9873767  33.6684755
  26.7408555  41.6751841  33.1395840  25.1441758  40.8894569  33.1201088
  26.7480880  39.6303767  33.7324755  26.9990880  39.0933767  34.8194755
  27.0600880  39.0233767  32.6374755  26.8405412  39.4153922  31.7329190
  27.7030880  37.7163767  32.6864755  28.1719509  37.5718219  33.6598052
  26.6750880  36.6053767  32.4694755  25.8871090  36.7491401  33.2087456
  26.2633561  36.7407390  31.4693485  27.2400880  35.2003767  32.5984755
  28.0409980  35.0748412  31.8698570  27.6418757  35.0768791  33.6041678
  26.1960880  34.1293767  32.3594755  25.0130880  34.4253767  32.1944755
  26.6300880  32.8753767  32.3374755  25.9769641  32.1208352  32.1819194
  27.6114979  32.6813681  32.4763883  28.8060880  37.6183767  31.6394755
  28.6380880  36.9613767  30.6134755  29.9360880  38.2683767  31.9054755
  30.0334023  38.7817343  32.7698211  31.0350880  38.3083767  30.9514755
  30.8023603  37.6602284  30.1065845  31.2730880  39.7273767  30.4284755
  32.1739419  39.7427314  29.8150214  30.4196255  40.0416431  29.8276940
  31.5080880  40.9813767  31.7074755  32.2890880  37.7643767  31.6174755
  32.3640880  37.6403767  32.8404755  33.2760880  37.4363767  30.7884755
  33.1223585  37.5105335  29.7930020  34.5620880  36.9403767  31.2524755
  34.5727362  36.9358444  32.3424137  34.8320880  35.5203767  30.7554755
  34.1498729  34.8269083  31.2471901  34.6787166  35.4769615  29.6771934
  36.5180880  34.9623767  31.0914755  35.6760880  37.8613767  30.7784755
  35.6580880  38.3393767  29.6404755  36.6220880  38.1253767  31.6804755
  36.4382246  37.8671653  32.6394439  37.8560880  38.8573767  31.3824755
  38.2541739  39.2972281  32.2968920  38.9230880  37.9333767  30.7774755
  38.9250450  37.0013834  31.3427054  38.6580880  37.6353767  29.3104755
  38.6564429  38.5669122  28.7444909  39.4383375  36.9785576  28.9258996
  37.6892080  37.1466935  29.2077095  40.2090880  38.5533767  30.8924755
  40.8772251  37.9768165  30.5146243  37.6100880  40.0663767  30.4834755
  38.4580880  40.4333767  29.6664755  36.4550880  40.7093767  30.6374755
  35.6878719  40.2883786  31.1416971  36.2490880  42.0163767  30.0344755
  37.1075345  42.6526592  30.2496811  36.0870880  41.9123767  28.5244755
  35.9616887  42.9155320  28.1169786  36.9872559  41.4611423  28.1071202
  34.9620880  41.1213767  28.1854755  34.8821743  41.0714991  27.2301086
  35.0290880  42.6853767  30.6484755  34.3090880  42.0963767  31.4574755
  34.8160880  43.9373767  30.2404755  35.4280128  44.3604346  29.5573434
  33.7430880  44.7453767  30.7994755  33.6195957  44.5627526  31.8669479
  34.0320880  46.2353767  30.5654755  34.0643319  46.4260352  29.4927639
  32.9490880  47.0943767  31.2004755  32.9165507  46.9045980  32.2733343
  33.1700694  48.1471848  31.0247965  31.9835177  46.8477377  30.7589529
  35.4110880  46.6063767  31.1194755  35.3410420  46.5781223  32.2068558
  36.1116249  45.8429411  30.7810768  35.8990880  47.9653767  30.6824755
  35.1992534  48.7294285  31.0209370  36.8812585  48.1557353  31.1151463
  35.9698341  47.9942480  29.5951571  32.4180880  44.3383767  30.1754755
  32.3650880  43.8923767  29.0224755  31.3370880  44.4863767  30.9374755
  31.4397391  44.6896452  31.9214694  29.9950880  44.3093767  30.4064755
  29.9449738  44.7525328  29.4118899  29.6080880  42.8293767  30.3034755
  28.5808208  42.7457445  29.9487547  30.2756296  42.3265887  29.6036952
  29.6950880  41.8833767  31.8284755  28.9970880  45.0503767  31.2814755
  29.2760880  45.3743767  32.4384755  27.8300880  45.3243767  30.7054755
  27.7215483  45.0543873  29.7383022  26.7380880  46.0483767  31.3484755
  25.9474126  46.2328363  30.6212161  26.1520880  45.2463767  32.5164755
  25.8196355  44.2776713  32.1434013  26.9307190  45.0991563  33.2649138
  25.0570880  45.9273767  33.1024755  24.7083284  45.4064757  33.8295440
  27.1530880  47.4313767  31.8334755  26.4380880  48.0413767  32.6364755
  28.2890880  47.9433767  31.3684755  28.8932897  47.3991458  30.7694325
  28.7200880  49.2763767  31.7534755  28.5268721  49.4382991  32.8139225
  30.2190880  49.4393767  31.4994755  30.6648776  48.6369218  32.0872144
  30.3765873  49.2429409  30.4389534  30.8750880  50.7713767  31.8744755
  30.4502328  51.5528965  31.2445344  30.6470880  51.1173767  33.3294755
  31.0721086  50.3364905  33.9600887  31.1276332  52.0689523  33.5568102
  29.5770152  51.1963317  33.5213364  32.3620880  50.7083767  31.5884755
  32.5206796  50.5143848  30.5276667  32.8247667  51.6581409  31.8567620
  32.8117956  49.9072296  32.1750123  27.9230880  50.3293767  30.9884755
  27.2220880  50.0323767  30.0174755  28.0080880  51.5713767  31.4604755
  28.4893942  51.7326443  32.3336515  27.3750880  52.7063767  30.8004755
  26.8681673  52.3763245  29.8937252  26.3390880  53.3473767  31.7364755
  25.5054939  52.6487859  31.8085241  26.8074580  53.4554821  32.7147612
  25.8300880  54.6923767  31.2704755  26.4510880  55.8663767  31.6724755
  27.3165048  55.8031343  32.3321373  25.9920880  57.0983767  31.2524755
  26.4913801  58.0123703  31.5740732  24.8950880  57.1683767  30.4234755
  24.4360880  58.3963767  30.0044755  24.9533943  59.1278285  30.3493988
  24.2580880  56.0183767  30.0114755  23.3901280  56.0735198  29.3544328
  24.7260880  54.7893767  30.4364755  24.2259723  53.8753367  30.1162955
  28.3770880  53.7543767  30.3404755  28.3690880  54.1403767  29.1674755
  29.2520880  54.2253767  31.2264755  29.2591462  53.8635261  32.1694037
  30.1790880  55.3043767  30.8914755  30.2506778  55.3988719  29.8079420
  29.7040880  56.6373767  31.4674755  28.7471213  56.8691359  30.9999271
  29.5594275  56.4938671  32.5382595  30.6690880  57.7833767  31.2374755
  31.5292680  57.6510580  31.8937400  30.9989816  57.7649491  30.1987586
  30.0450880  59.1343767  31.5234755  28.8710880  59.2253767  31.8824755
  30.8280880  60.1923767  31.3614755  30.4642394  61.1178620  31.5380896
  31.7846609  60.0677882  31.0622307  31.5680880  54.9583767  31.4084755
  31.7110880  54.4193767  32.5094755  32.5800880  55.2693767  30.6074755
  32.3718648  55.6087280  29.6792604  33.9740880  55.1163767  30.9884755
  34.0782397  55.2524253  32.0649245  34.4840880  53.7223767  30.6204755
  33.6458081  53.0803346  30.8909713  34.6211742  53.7038339  29.5392893
  35.7560880  53.2153767  31.3044755  35.6460881  53.3120452  32.3845940
  35.9910880  51.7583767  30.9484755  36.1016541  51.6609703  29.8684820
  36.8981284  51.4056153  31.4393298  35.1424444  51.1609673  31.2816517
  36.9660880  54.0513767  30.9344755  36.8019105  55.0845372  31.2406200
  37.8480840  53.6588075  31.4405128  37.1191828  54.0125080  29.8559811
  34.8050880  56.1823767  30.2874755  34.7090880  56.3643767  29.0734755
  35.6210880  56.8993767  31.0544755  35.7117067  56.7566667  32.0502272
  36.3850880  57.9733767  30.4394755  36.8587007  57.6093486  29.5277333
  35.4770880  59.1553767  30.0814755  36.1251050  59.9603538  29.7347984
  34.8363222  58.8274173  29.2629636  34.6190880  59.6553767  31.2244755
  33.8660718  58.9050935  31.4656030  35.2686554  59.8075578  32.0864513
  33.9500880  60.9783767  30.9114755  34.4610880  61.7153767  30.0414755
  32.9100880  61.2803767  31.5324755  32.5554108  62.1357797  31.2801486
  37.5010880  58.4503767  31.3524755  37.2680880  58.7533767  32.5224755
  32.6398241  60.6071692  32.1611471  33.9775027  62.5353904  29.9146063
  35.2477173  61.3361191  29.6436122  38.7060880  58.5333767  30.7984755
  38.9118242  58.0325309  29.9458763  39.7680880  59.3123767  31.4134755
  39.7841332  59.1280362  32.4876544  41.1250880  58.9273767  30.8324755
  41.1284879  57.8554237  30.6349802  41.2736629  59.4688920  29.8982449
  42.2700880  59.2503767  31.7654755  42.1640880  60.1403767  32.6064755
  43.3740880  58.5293767  31.6214755  44.1692236  58.7040785  32.2192534
  43.4145034  57.8089920  30.9147130  39.4740880  60.7873767  31.1714755
  38.4650880  61.1283767  30.5464755  40.3440880  61.6653767  31.6654755
  41.1579324  61.3633956  32.1817739  40.1180880  63.0953767  31.5074755
  39.9297010  63.3232880  30.4583492  38.9090880  63.5483767  32.3314755
  38.1999859  62.7209990  32.3046507  39.2467267  63.7037601  33.3561492
  38.2370880  64.8033767  31.8274755  38.8720880  66.0343767  31.9004755
  39.8746638  66.0844720  32.3252481  38.2560880  67.1843767  31.4464755
  38.7691026  68.1444476  31.5028819  36.9840880  67.1123767  30.9194755
  36.3650880  68.2533767  30.4684755  36.9076825  69.0390017  30.5683967
  36.3300880  65.9023767  30.8424755  35.3247499  65.8449496  30.4252253
  36.9550880  64.7583767  31.2974755  36.4412775  63.7985720  31.2438684
  41.3630880  63.8553767  31.9344755  41.9990880  63.4993767  32.9304755
  41.6990880  64.8983767  31.1824755  41.1891913  65.0742613  30.3285614
  42.8160880  65.7763767  31.5144755  42.6119078  66.2837042  32.4573585
  44.1180880  64.9833767  31.6574755  44.9668778  65.6653902  31.6073472
  44.1251036  64.4652771  32.6164456  44.3990880  63.7093767  30.4164755
  42.9780880  66.8583767  30.4544755  42.9260880  66.5763767  29.2564755
  43.1710880  68.0813767  30.8154755  43.2189219  68.3464079  31.7889074
  43.3260880  69.1193767  29.8104755  43.2506176  68.6778729  28.8167556
  42.5428477  69.8669977  29.9357669  44.3012331  69.5929940  29.9239605
  30.0169432  24.5628637  37.2364867  29.8290880  24.7823767  36.1854755
  29.0640683  25.5547468  36.1061818  29.4863989  23.8791112  35.6807235
  31.0850880  25.2733767  35.4984755  32.1510880  25.3843767  36.1194755
  31.0450880  25.5813767  34.2464755  30.2028252  25.4708142  33.7001527
  32.2480880  26.0553767  33.5734755  32.9561559  26.4384246  34.3083316
  32.9130880  24.9153767  32.8024755  32.8274199  23.9882502  33.3692176
  32.4405319  24.7900689  31.8282636  34.3720880  25.1273767  32.5464755
  34.9340880  26.3803767  32.4224755  34.4212273  27.2478435  32.4901141
  36.2310880  26.2603767  32.2044755  36.8571336  27.1434143  32.0763719
  36.5320880  24.9743767  32.1844755  37.4506576  24.5810898  32.0373185
  35.3880880  24.2453767  32.3974755  35.4317666  23.1564580  32.4186742
  31.9000880  27.2033767  32.6354755  31.0860880  27.0453767  31.7264755
  32.5140880  28.3633767  32.8684755  33.1469481  28.4516869  33.6506447
  32.2530880  29.5443767  32.0534755  31.5113380  29.3114392  31.2895080
  31.7170880  30.6823767  32.9244755  30.8062447  30.2693919  33.3579582
  32.4441650  30.8665493  33.7153860  31.3920880  31.9993767  32.2134755
  31.1115692  31.7868933  31.1818453  30.2460880  32.7093767  32.9134755
  30.5260568  32.9226204  33.9450972  30.0268352  33.6436056  32.3965178
  29.3618679  32.0721018  32.9018249  32.6080880  32.9083767  32.1474755
  33.4070396  32.4081279  31.6001849  32.3430077  33.8341824  31.6368705
  32.9476669  33.1357516  33.1579634  33.5130880  29.9813767  31.3174755
  33.4800880  30.2103767  30.1044755  34.6250880  30.1003767  32.0394755
  34.6029879  29.8948869  33.0281033  35.8740880  30.5693767  31.4604755
  35.8286109  30.4688668  30.3760730  36.1360880  32.0393767  31.8054755
  35.2368920  32.4772535  32.2388455  36.9536255  32.1044824  32.5234544
  36.5870880  33.0603767  30.3864755  37.0180880  29.6963767  31.9554755
  36.9220880  29.0383767  32.9944755  38.1100880  29.7093767  31.1994755
  38.1594472  30.3484801  30.4189565  39.2400880  28.8413767  31.4474755
  38.8646320  27.9072673  31.8652931  39.7296181  28.6416281  30.4942913
  40.2500880  29.4383767  32.4044755  39.9330880  30.2833767  33.2444755
  41.4910880  28.9843767  32.2654755  41.6980475  28.3357650  31.5194393
  42.5610880  29.3473767  33.1794755  42.1520654  29.8803312  34.0378222
  43.2770880  28.0923767  33.6794755  43.7642966  27.6085516  32.8329293
  44.0294893  28.3883596  34.4104929  42.3660880  27.1883767  34.2794755
  42.8402500  26.4111624  34.5839555  43.5590880  30.2893767  32.5104755
  43.5540880  30.4903767  31.2934755  44.4260880  30.8723767  33.3354755
  44.2986206  30.7402328  34.3286469  45.5010880  31.7533767  32.8864755
  46.0335870  32.1498908  33.7509526  46.4970880  30.9953767  32.0034755
  46.5811905  29.9601154  32.3340205  46.1665617  31.0189730  30.9650653
  47.8800880  31.5653767  32.0254755  49.0070880  30.7893767  31.8654755
  48.9993181  29.7897215  31.7215003  50.0810880  31.5563767  31.9304755
  51.0774653  31.1270177  31.8256800  49.6910880  32.8023767  32.1274755
  50.2947628  33.6070656  32.2177661  48.3190880  32.8353767  32.1914755
  47.8035836  33.7823259  32.3516120  44.9730880  32.9783767  32.1504755
  45.6570880  33.5283767  31.2814755  43.7620880  33.4153767  32.4784755
  43.1881754  32.9029884  33.1328315  43.2130880  34.6183767  31.8754755
  43.3595301  34.5911295  30.7957017  41.7170880  34.7223767  32.1624755
  41.6694503  35.0166379  33.2109221  41.2928138  35.5133233  31.5440138
  40.9200880  33.4333767  31.9584755  41.2248103  32.7046737  32.7096326
  39.4350880  33.7033767  32.0904755  39.1295111  34.4316931  31.3392919
  38.8820640  32.7758050  31.9425703  39.2238287  34.0971532  33.0846636
  41.2380880  32.8143767  30.6154755  42.3018180  32.5820084  30.5646527
  40.6603007  31.8985351  30.4909877  40.9816283  33.5158902  29.8216202
  43.9320880  35.8533767  32.4034755  44.3210880  35.9233767  33.5714755
  44.1070880  36.8363767  31.5244755  43.7708168  36.7182967  30.5794474
  44.8150880  38.0663767  31.8574755  44.8509149  38.2258997  32.9351433
  46.2570880  38.0583767  31.3124755  46.2278607  37.9093712  30.2331042
  46.9500880  39.3763767  31.6234755  46.9801124  39.5258693  32.7027583
  47.9670637  39.3540121  31.2318624  46.4003501  40.1949852  31.1589650
  47.0380880  36.8913767  31.8934755  46.5509455  35.9554165  31.6200294
  48.0538956  36.9006525  31.4983191  47.0703968  36.9798270  32.9794007
  44.0390880  39.2493767  31.2984755  43.5330880  39.2003767  30.1734755
  43.9440880  40.3093767  32.0934755  44.2578715  40.2239511  33.0496877
  43.3810880  41.5793767  31.6634755  43.4391273  41.6496279  30.5772916
  41.9170880  41.7153767  32.0844755  41.3850470  40.8510896  31.6869338
  41.8904006  41.6883135  33.1738126  41.2510880  42.9893767  31.5934755
  41.8258350  43.8473841  31.9421731  41.2532532  42.9699212  30.5036516
  39.8130880  43.1103767  32.0494755  39.4370880  42.4123767  33.0124755
  39.0590880  43.9013767  31.4454755  38.1648788  43.9100778  31.7940342
  44.2010880  42.7093767  32.2654755  44.7830880  42.5593767  33.3434755
  39.4993045  44.3673920  30.7309699  38.5109764  42.5432960  33.2305359
  40.1374142  41.8659652  33.3756488  44.2470880  43.8393767  31.5664755
  43.7755350  43.8879116  30.6746339  44.9930880  45.0043767  32.0164755
  44.8869451  45.1173149  33.0953999  46.4790880  44.8663767  31.6834755
  46.6022006  44.7615804  30.6055325  47.0124110  45.7535171  32.0250142
  46.8834400  43.9855206  32.1821651  44.4190880  46.2543767  31.3694755
  44.6310880  46.4933767  30.1774755  43.7070880  47.0503767  32.1584755
  43.5601036  46.7766326  33.1194953  43.0890880  48.2823767  31.6894755
  43.1698784  48.3444210  30.6042462  41.6090880  48.3233767  32.0724755
  41.1452286  47.6172845  31.3837321  41.5168110  47.9494443  33.0921615
  40.9090880  49.6773767  31.9614755  41.2796641  50.3321394  32.7501833
  41.1780880  50.3063767  30.6194755  40.8073485  49.6523621  29.8302253
  40.6708948  51.2693985  30.5607826  42.2509534  50.4531754  30.4949343
  39.4170880  49.5153767  32.1894755  39.2434995  49.1044195  33.1840008
  38.9289903  50.4865695  32.1079492  39.0059124  48.8386502  31.4404262
  43.8300880  49.4713767  32.2814755  43.9410880  49.5933767  33.5054755
  44.3330880  50.3433767  31.4114755  44.1893379  50.1801527  30.4251727
  45.1070880  51.5093767  31.8124755  45.2616797  51.4904523  32.8912908
  46.4720880  51.5263767  31.1234755  46.2994326  51.5033946  30.0474824
  46.9313560  52.4762933  31.3970288  47.3920880  50.3933767  31.5094755
  47.1120880  49.0903767  31.1334755  46.2089269  48.8910409  30.5567046
  47.9530880  48.0543767  31.4764755  47.7161046  47.0328934  31.1789649
  49.0960880  48.3133767  32.1954755  49.9380880  47.2813767  32.5374755
  49.6312959  46.4274009  32.2241010  49.4010880  49.6013767  32.5764755
  50.3055303  49.8086651  33.1484161  48.5530880  50.6323767  32.2294755
  48.7908163  51.6552888  32.5214278  44.3450880  52.7793767  31.4644755
  43.9560880  52.9803767  30.3094755  44.1390880  53.6293767  32.4644755
  44.3498660  53.3195975  33.4024034  43.6060880  54.9723767  32.2844755
  43.3874535  55.1371227  31.2294130  42.3200880  55.1703767  33.0864755
  42.5632981  54.6830587  34.0306520  42.2139388  56.2430143  33.2485897
  41.0060880  54.6043767  32.5444755  40.3269333  54.4217842  33.3772477
  40.3700880  55.5813767  31.5804755  41.0485083  55.7641214  30.7471393
  39.4361598  55.1646630  31.2033435  40.1666707  56.5203320  32.0953393
  41.2130880  53.2643767  31.8784755  41.6203871  52.5577284  32.6015627
  40.2589405  52.8922533  31.5053430  41.9095110  53.3748921  31.0472833
  44.6760880  55.9523767  32.7424755  44.7290880  56.3063767  33.9244755
  45.5230880  56.3903767  31.8124755  45.3607304  56.1905984  30.8358343
  46.7380880  57.1093767  32.1784755  46.7790349  57.3221386  33.2467240
  47.9920880  56.3053767  31.7884755  48.0183519  56.1918578  30.7047214
  49.2500880  57.0243767  32.2534755  49.2247615  57.1378620  33.3372562
  50.1273602  56.4428995  31.9699649  49.3005003  58.0081074  31.7867483
  47.9350880  54.9003767  32.3654755  47.0547259  54.3848580  31.9816721
  48.8315335  54.3517370  32.0765472  47.8780663  54.9555253  33.4525854
  46.7750880  58.4873767  31.5344755  47.2150880  58.6403767  30.3894755
  46.3190880  59.4983767  32.2674755  45.7334592  59.3311680  33.0731922
  46.6200880  60.8753767  31.9074755  46.6430301  60.9760614  30.8223785
  45.5570880  61.8193767  32.4624755  45.2122587  61.4512230  33.4287336
  45.9829085  62.8152977  32.5846164  44.0820880  61.9843767  31.4364755
  47.9930880  61.2473767  32.4474755  48.1260880  61.7473767  33.5674755
  49.0190880  61.0013767  31.6394755  48.8459690  60.7673708  30.6723300
  50.3890880  61.0563767  32.0964755  50.4818966  60.4081620  32.9678557
  51.0283679  60.6827310  31.2965946  50.8360880  62.4553767  32.4724755
  50.0440880  63.3473767  32.7774755  52.1560880  62.6363767  32.4414755
  52.7454144  61.8846411  32.1133178  52.7940880  63.8583767  32.9144755
  52.6357338  63.9727148  33.9868327  54.2980880  63.7973767  32.6464755
  54.4296977  63.6982813  31.5689978  54.7232649  64.7445832  32.9783257
  55.0040880  62.6523767  33.3494755  54.7663572  62.6876690  34.4126497
  54.6325459  61.7195258  32.9253943  56.5070880  62.6823767  33.1534755
  57.0290880  63.7233767  32.7054755  57.1660880  61.6633767  33.4474755
  58.1069656  61.7636170  33.2866017  52.2020880  65.1023767  32.2674755
  52.0010880  65.1453767  31.0494755  56.6209325  60.9481656  33.7832693
  57.9815086  63.6512059  32.6051791  56.3917474  64.4217114  32.5410286
  51.9160880  66.1173767  33.0794755  52.0254985  65.9829214  34.0744883
  51.4190880  67.4033767  32.6064755  51.6087510  67.4925272  31.5368123
  49.9170880  67.5443767  32.8494755  49.7539901  67.4214075  33.9201654
  49.6394992  68.5561880  32.5540396  49.0640880  66.5433767  32.0894755
  49.3452912  66.5780167  31.0369425  49.2635212  65.5477262  32.4857184
  47.5830880  66.8563767  32.2284755  47.0130158  66.1485239  31.6267604
  47.2961845  66.7562912  33.2752652  47.2660880  68.2083767  31.7844755
  48.0218430  68.7481532  31.3875181  46.0660880  68.7653767  31.8664755
  45.0330880  68.1143767  32.3754755  45.1516845  67.1696447  32.7123972
  44.1305743  68.5650803  32.4248191  45.8970880  70.0093767  31.4274755
  46.6799496  70.5149490  31.0380856  44.9866630  70.4428027  31.4855003
  52.1780880  68.5063767  33.3274755  52.6900880  68.2913767  34.4314755
  52.2560880  69.6683767  32.7094755  51.8743104  69.7731577  31.7803005
  52.8810880  70.8183767  33.3284755  52.2653066  71.7005862  33.1534930
  52.9710226  70.6455988  34.4009301  54.2650880  71.0583767  32.7484755
  54.5210880  70.7603767  31.5834755  55.1390880  71.5963767  33.5954755
  54.8542000  71.7311117  34.5550507  56.4730880  72.0313767  33.2034755
  56.5760453  71.9602685  32.1206816  56.7240880  73.4813767  33.6244755
  56.6706107  73.5865146  34.7080739  57.7127028  73.7836556  33.2789783
  55.7460880  74.4683767  33.0474755  54.4030880  74.4133767  33.3764755
  54.0558612  73.6379811  34.0593334  53.5070880  75.3233767  32.8524755
  52.4504960  75.2620174  33.1131460  53.9490880  76.3083767  32.0004755
  53.2448760  77.0305269  31.5873358  55.2840880  76.3813767  31.6694755
  55.6367850  77.1598040  30.9928988  56.1760880  75.4673767  32.1954755
  57.2338539  75.5288649  31.9396427  57.4950880  71.1083767  33.8484755
  57.4630880  70.8953767  35.0644755  58.3960880  70.5613767  33.0354755
  58.3510973  70.7709540  32.0484838  59.4240880  69.6403767  33.4994755
  59.4664237  69.6609136  34.5884590  59.1250880  68.2083767  33.0484755
  59.1296675  68.1444716  31.9603604  59.8723981  67.5269819  33.4550819
  57.7890880  67.7003767  33.5024755  56.6250880  68.1793767  32.9314755
  56.6915834  68.9304542  32.1443536  55.3970880  67.7223767  33.3424755
  54.4879642  68.1125652  32.8849304  55.3150880  66.7713767  34.3324755
  54.3413994  66.4084084  34.6615412  56.4650880  66.2773767  34.9084755
  56.4037340  65.5206510  35.6905893  57.6960880  66.7423767  34.4934755
  58.6071584  66.3536658  34.9483980  60.7720880  70.0923767  32.9644755
  60.9240880  70.3003767  31.7564755  61.7500880  70.2273767  33.8604755
  61.5624024  70.0095521  34.8286830  63.0690880  70.7383767  33.5104755
  63.1408012  70.8580686  32.4294434  63.3180880  72.0943767  34.1694755
  63.4329078  71.9245040  35.2400169  64.2551957  72.4707702  33.7592838
  62.2230880  73.1083767  33.9354755  61.0370880  73.0523767  34.6474755
  60.9036837  72.2575157  35.3813002  60.0370880  73.9753767  34.4434755
  59.1077149  73.9144785  35.0097429  60.2150880  74.9783767  33.5204755
  59.2190880  75.9033767  33.3144755  58.4480256  75.7535471  33.8663935
  61.3830880  75.0603767  32.8024755  61.5247579  75.8545643  32.0694706
  62.3810880  74.1293767  33.0134755  63.3119701  74.1910399  32.4497767
  64.1610880  69.7513767  33.9044755  65.2240880  70.1533767  34.3854755
  63.9130880  68.4613767  33.7084755  63.0144912  68.1719274  33.3495295
  64.8920880  67.4313767  34.0324755  65.0867273  67.4258674  35.1049420
  64.3960880  66.0353767  33.6154755  64.2729424  66.0131228  32.5326827
  65.3930880  64.9643767  34.0344755  65.5164134  64.9857119  35.1172660
  65.0240060  63.9848228  33.7305812  66.3538568  65.1545165  33.5560711
  63.1280880  65.7713767  34.2274755  62.8215294  64.9001795  33.9654877
  66.2260880  67.7113767  33.3484755  66.2690880  68.0483767  32.1654755
  67.3230880  67.5933767  34.0174755  67.3249286  67.3183780  34.9893148
  68.5980880  67.8583767  33.3744755  68.4296995  68.1415557  32.3354588
  69.1058069  68.6708742  33.8942543  69.2170218  66.9618685  33.4104490
  25.9284780  39.2187429  34.5970335  26.0450880  38.6943767  35.5454755
  26.0420165  37.6187127  35.3693056  25.2210437  38.9556444  36.2093950
  27.3470880  39.0703767  36.2194755  28.1260880  39.8773767  35.6964755
  27.6490880  38.5423767  37.3574755  27.4611825  39.0169978  38.2289832
  28.3210880  37.2493767  37.4054755  28.7941856  37.1148017  38.3781869
  27.3170880  36.1163767  37.1894755  26.5271000  36.2431905  37.9297027
  26.9014001  36.2431965  36.1898654  27.9120880  34.7233767  37.3174755
  28.7147939  34.6142674  36.5881886  28.3173736  34.6093657  38.3228844
  26.8910880  33.6303767  37.0804755  25.7010880  33.9013767  36.9174755
  27.3520880  32.3863767  37.0564755  26.7151145  31.6179166  36.9020889
  28.3378424  32.2136577  37.1927023  29.4230880  37.1763767  36.3564755
  29.2680880  36.5153767  35.3304755  30.5390880  37.8493767  36.6204755
  30.6268348  38.3639375  37.4851297  31.6360880  37.9133767  35.6644755
  31.4162868  37.2610036  34.8193744  31.8420880  39.3373767  35.1424755
  32.7411954  39.3728861  34.5272972  30.9808183  39.6335392  34.5436414
  32.0530880  40.5963767  36.4214755  32.9020880  37.3963767  36.3284755
  32.9830880  37.2743767  37.5514755  33.8950880  37.0903767  35.4984755
  33.7378681  37.1619387  34.5033573  35.1920880  36.6223767  35.9594755
  35.2049609  36.6171592  37.0493866  35.4920880  35.2083767  35.4604755
  34.8256045  34.4998965  35.9523644  35.3382823  35.1627261  34.3823475
  37.1900880  34.6873767  35.7934755  36.2850880  37.5673767  35.4844755
  36.2550880  38.0453767  34.3464755  37.2270880  37.8503767  36.3844755
  37.0512244  37.5866905  37.3434546  38.4450880  38.6093767  36.0844755
  38.8360046  39.0577627  36.9978393  39.5300880  37.7093767  35.4764755
  39.5533859  36.7774273  36.0413009  39.2690880  37.4063767  34.0104755
  39.2461106  38.3378755  33.4448947  40.0627647  36.7668685  33.6242039
  38.3109027  36.8967335  33.9092565  40.8030880  38.3563767  35.5904755
  41.4826646  37.7946830  35.2106384  38.1710880  39.8133767  35.1864755
  39.0090880  40.1993767  34.3674755  37.0020880  40.4313767  35.3424755
  36.2450750  39.9929357  35.8472527  36.7660880  41.7343767  34.7404755
  37.6104854  42.3896713  34.9542072  36.6040880  41.6263767  33.2304755
  36.4565099  42.6264587  32.8228531  37.5131390  41.1944846  32.8119118
  35.4960880  40.8113767  32.8934755  35.4158407  40.7594602  31.9382452
  35.5340880  42.3763767  35.3564755  34.8280880  41.7713767  36.1664755
  35.2930880  43.6233767  34.9494755  35.8935625  44.0592546  34.2642454
  34.2040880  44.4083767  35.5114755  34.0886422  44.2232901  36.5794242
  34.4610880  45.9033767  35.2764755  34.4864640  46.0949548  34.2037433
  33.3610880  46.7383767  35.9144755  33.3353998  46.5476717  36.9873559
  33.5585465  47.7958093  35.7385570  32.4000396  46.4707824  35.4752963
  35.8320880  46.3043767  35.8284755  35.7643217  46.2741882  36.9159483
  36.5488072  45.5567248  35.4887258  36.2890880  47.6733767  35.3914755
  35.5730575  48.4216602  35.7312871  37.2674647  47.8852283  35.8227494
  36.3575408  47.7041973  34.3040638  32.8870880  43.9723767  34.8884755
  32.8420880  43.5253767  33.7354755  31.8040880  44.0973767  35.6534755
  31.9035855  44.3032134  36.6372594  30.4660880  43.8913767  35.1244755
  30.4053608  44.3336848  34.1301038  30.1100880  42.4033767  35.0214755
  29.0839063  42.2982983  34.6693266  30.7862906  41.9152110  34.3196604
  30.2210880  41.4593767  36.5454755  29.4530880  44.6103767  36.0014755
  29.7270880  44.9403767  37.1574755  28.2790880  44.8593767  35.4264755
  28.1745484  44.5884120  34.4591343  27.1730880  45.5583767  36.0724755
  26.3771346  45.7255543  35.3467972  26.6070880  44.7443767  37.2414755
  26.2954321  43.7684501  36.8692698  27.3901561  44.6146207  37.9885148
  25.4980880  45.4013767  37.8294755  25.1622587  44.8731188  38.5573230
  27.5590880  46.9503767  36.5574755  26.8320880  47.5453767  37.3614755
  28.6830880  47.4873767  36.0904755  29.2973704  46.9568775  35.4893705
  29.0860880  48.8293767  36.4754755  28.8917383  48.9865894  37.5364239
  30.5800880  49.0243767  36.2184755  31.0443394  48.2313567  36.8047256
  30.7392216  48.8318666  35.1574777  31.2080880  50.3693767  36.5924755
  30.7654494  51.1414751  35.9631616  30.9760880  50.7113767  38.0484755
  31.4188803  49.9399156  38.6784609  31.4370310  51.6729614  38.2742790
  29.9050328  50.7679037  38.2427584  32.6960880  50.3393767  36.3044755
  32.8575608  50.1492695  35.2433981  33.1379849  51.2990631  36.5724873
  33.1641706  49.5481952  36.8901627  28.2650880  49.8643767  35.7114755
  27.5690880  49.5533767  34.7424755  28.3240880  51.1083767  36.1844755
  28.8029280  51.2799052  37.0570519  27.6660880  52.2293767  35.5254755
  27.1649492  51.8889663  34.6193409  26.6170880  52.8473767  36.4644755
  25.7988467  52.1307923  36.5357994  27.0828328  52.9648280  37.4429370
  26.0790880  54.1813767  35.9994755  26.6750880  55.3683767  36.4014755
  27.5423450  55.3235976  37.0602316  26.1890880  56.5903767  35.9824755
  26.6698860  57.5146226  36.3029512  25.0890880  56.6373767  35.1544755
  24.6030880  57.8543767  34.7374755  25.1046736  58.5967160  35.0823581
  24.4760880  55.4733767  34.7434755  23.6059569  55.5096928  34.0879960
  24.9710880  54.2553767  35.1674755  24.4900680  53.3307262  34.8485063
  28.6430880  53.2993767  35.0644755  28.6250880  53.6853767  33.8924755
  29.5100880  53.7883767  35.9494755  29.5266619  53.4261814  36.8921521
  30.4130880  54.8873767  35.6134755  30.4811170  54.9837257  34.5298759
  29.9100880  56.2093767  36.1904755  28.9477199  56.4205336  35.7242571
  29.7699787  56.0624866  37.2614063  30.8500880  57.3763767  35.9594755
  31.7140090  57.2629640  36.6143640  31.1786462  57.3651514  34.9202327
  30.1970880  58.7133767  36.2464755  29.0220880  58.7783767  36.6074755
  30.9570880  59.7883767  36.0834755  30.5735739  60.7057837  36.2606270
  31.9157363  59.6844816  35.7829749  31.8090880  54.5713767  36.1274755
  31.9670880  54.0343767  37.2284755  32.8140880  54.9043767  35.3244755
  32.5973838  55.2392939  34.3965913  34.2110880  54.7813767  35.7034755
  34.3137649  54.9192859  36.7798294  34.7500880  53.3993767  35.3344755
  33.9260196  52.7400488  35.6070506  34.8846493  53.3838701  34.2529243
  36.0350880  52.9183767  36.0154755  35.9251993  53.0120288  37.0958711
  36.3010880  51.4683767  35.6584755  36.4115593  51.3739994  34.5782034
  37.2166644  51.1353755  36.1472810  35.4664627  50.8522815  35.9930312
  37.2260880  53.7813767  35.6434755  37.0401944  54.8103068  35.9514460
  38.1177040  53.4074670  36.1467782  37.3772796  53.7472780  34.5645513
  35.0180880  55.8653767  35.0014755  34.9150880  56.0463767  33.7874755
  35.8200880  56.5993767  35.7674755  35.9163978  56.4579569  36.7628770
  36.5590880  57.6893767  35.1514755  37.0385150  57.3357211  34.2386904
  35.6250880  58.8523767  34.7954755  36.2553942  59.6711421  34.4484357
  34.9905237  58.5111875  33.9775403  34.7580880  59.3333767  35.9394755
  34.0215379  58.5672666  36.1816946  35.4059262  59.4988998  36.8002931
  34.0610880  60.6413767  35.6284755  34.5540880  61.3893767  34.7584755
  33.0150880  60.9203767  36.2514755  32.6416979  61.7681812  36.0005046
  37.6660880  58.1903767  36.0634755  37.4290880  58.4883767  37.2334755
  32.7602509  60.2408553  36.8797967  34.0527438  62.1989028  34.6331984
  35.3478672  61.0273823  34.3587357  38.8680880  58.2993767  35.5064755
  39.0831781  57.8042262  34.6528587  39.9140880  59.1013767  36.1204755
  39.9362180  58.9170953  37.1945564  41.2780880  58.7453767  35.5364755
  41.3046905  57.6737571  35.3389331  41.4132094  59.2900253  34.6020237
  42.4170880  59.0933767  36.4674755  42.2930880  59.9803767  37.3084755
  43.5360880  58.3963767  36.3214755  44.3283583  58.5882242  36.9177994
  43.5907471  57.6769944  35.6146500  39.5880880  60.5693767  35.8784755
  38.5710880  60.8883767  35.2554755  40.4390880  61.4653767  36.3714755
  41.2596152  61.1800738  36.8866811  40.1830880  62.8913767  36.2144755
  39.9877485  63.1163263  35.1659816  38.9660880  63.3173767  37.0414755
  38.2751922  62.4746862  37.0162793  39.3025286  63.4802166  38.0653851
  38.2650880  64.5583767  36.5384755  38.8740880  65.8023767  36.6104755
  39.8764614  65.8743048  37.0325814  38.2320880  66.9383767  36.1584755
  38.7244299  67.9092216  36.2147037  36.9610880  66.8393767  35.6334755
  36.3160880  67.9673767  35.1834755  36.8415250  68.7646701  35.2826664
  36.3330880  65.6153767  35.5574755  35.3284911  65.5357289  35.1420940
  36.9840880  64.4853767  36.0114755  36.4913698  63.5145045  35.9591690
  41.4120880  63.6773767  36.6394755  42.0560880  63.3353767  37.6344755
  41.7230880  64.7283767  35.8874755  41.2076263  64.8948253  35.0350123
  42.8220880  65.6293767  36.2184755  42.6083847  66.1312114  37.1621873
  44.1410880  64.8653767  36.3584755  44.9746175  65.5657705  36.3057826
  44.1619159  64.3481190  37.3176995  44.4470880  63.5973767  35.1164755
  42.9580880  66.7153767  35.1584755  42.9100880  66.4333767  33.9604755
  43.1260880  67.9423767  35.5194755  43.1710407  68.2082137  36.4928250
  43.2560880  68.9833767  34.5144755  43.1872014  68.5405223  33.5208783
  42.4574812  69.7141479  34.6421517  44.2212565  69.4776125  34.6252941
  30.9257212  24.1475360  41.9458078  30.7310880  24.3643767  40.8954755
  29.9499246  25.1206831  40.8187774  30.4062833  23.4547711  40.3902838
  31.9750880  24.8823767  40.2064755  33.0390880  25.0143767  40.8264755
  31.9270880  25.1893767  38.9544755  31.0866119  25.0612218  38.4092457
  33.1180880  25.6883767  38.2804755  33.8188923  26.0857113  39.0147083
  33.8060880  24.5633767  37.5074755  33.7419096  23.6347735  38.0746408
  33.3345021  24.4274076  36.5342236  35.2600880  24.8073767  37.2484755
  35.7940880  26.0723767  37.1244755  35.2629024  26.9285926  37.1940156
  37.0930880  25.9803767  36.9034755  37.6993543  26.8768286  36.7734213
  37.4220880  24.7013767  36.8834755  38.3489234  24.3282167  36.7357333
  36.2940880  23.9473767  37.0974755  36.3613596  22.8596420  37.1176966
  32.7430880  26.8293767  37.3434755  31.9320880  26.6543767  36.4354755
  33.3320880  28.0023767  37.5754755  33.9640369  28.1038675  38.3567818
  33.0450880  29.1773767  36.7614755  32.3072246  28.9291062  35.9985742
  32.4860880  30.3043767  37.6344755  31.5855496  29.8721253  38.0706961
  33.2113628  30.5042565  38.4232243  32.1310880  31.6133767  36.9244755
  31.8529917  31.3946216  35.8935005  30.9720880  32.2983767  37.6264755
  31.2496181  32.5178800  38.6574431  30.7316297  33.2275245  37.1097890
  30.1017902  31.6421833  37.6168753  33.3270880  32.5493767  36.8564755
  34.1359567  32.0669219  36.3077786  33.0407671  33.4691374  36.3464148
  33.6632818  32.7841286  37.8664083  34.2930880  29.6423767  36.0234755
  34.2540880  29.8703767  34.8104755  35.4040880  29.7843767  36.7434755
  35.3882734  29.5772949  37.7318916  36.6420880  30.2803767  36.1624755
  36.5973443  30.1791771  35.0781066  36.8720880  31.7553767  36.5074755
  35.9641657  32.1731553  36.9424897  37.6891845  31.8382972  37.2241188
  37.2980880  32.7863767  35.0874755  37.8050880  29.4333767  36.6554755
  37.7250880  28.7723767  37.6934755  38.8950880  29.4693767  35.8974755
  38.9289448  30.1091631  35.1166897  40.0450880  28.6253767  36.1434755
  39.6911602  27.6831133  36.5617743  40.5376817  28.4366108  35.1896315
  41.0420880  29.2443767  37.0984755  40.7090880  30.0823767  37.9394755
  42.2930880  28.8173767  36.9564755  42.5133069  28.1750387  36.2088092
  43.3560880  29.2023767  37.8694755  42.9364725  29.7255044  38.7287539
  44.1000880  27.9633767  38.3674755  44.5963526  27.4907550  37.5198615
  44.8470509  28.2753706  39.0974113  43.2100880  27.0393767  38.9684755
  43.7016394  26.2725629  39.2717470  44.3330880  30.1663767  37.1984755
  44.3220880  30.3673767  35.9824755  45.1890880  30.7683767  38.0224755
  45.0661495  30.6327560  39.0157491  46.2440880  31.6723767  37.5724755
  46.7697748  32.0796685  38.4361108  47.2540880  30.9353767  36.6874755
  47.3614480  29.9026502  37.0192119  46.9221616  30.9503357  35.6493516
  48.6250880  31.5363767  36.7074755  49.7680880  30.7843767  36.5444755
  49.7818221  29.7849526  36.3993458  50.8250880  31.5743767  36.6084755
  51.8305581  31.1669318  36.5030354  50.4080880  32.8113767  36.8054755
  50.9947925  33.6287260  36.8938943  49.0360880  32.8153767  36.8724755
  48.5010357  33.7512383  37.0336689  45.6880880  32.8853767  36.8374755
  46.3590880  33.4513767  35.9674755  44.4690880  33.2963767  37.1684755
  43.9088389  32.7732577  37.8261736  43.8920880  34.4873767  36.5654755
  44.0362683  34.4622274  35.4853464  42.3940880  34.5593767  36.8564755
  42.3402844  34.8530598  37.9047859  41.9518365  35.3402282  36.2377796
  41.6260880  33.2523767  36.6534755  41.9474435  32.5305245  37.4043156
  40.1360880  33.4903767  36.7874755  39.8138864  34.2118240  36.0366101
  39.6029236  32.5511070  36.6404761  39.9177930  33.8796979  37.7818983
  41.9540880  32.6413767  35.3084755  43.0226701  32.4333196  35.2542158
  41.3969177  31.7126984  35.1851104  41.6792725  33.3373812  34.5159143
  44.5850880  35.7373767  37.0934755  44.9750880  35.8153767  38.2614755
  44.7380880  36.7243767  36.2144755  44.4039657  36.5985671  35.2696826
  45.4190880  37.9693767  36.5464755  45.4525118  38.1313013  37.6238623
  46.8610880  37.9933767  35.9994755  46.8336121  37.8440006  34.9201094
  47.5250880  39.3243767  36.3094755  47.5533502  39.4742570  37.3887521
  48.5417739  39.3240645  35.9164738  46.9571641  40.1310179  35.8459088
  47.6670880  36.8423767  36.5774755  47.1996263  35.8967914  36.3027938
  48.6820717  36.8739051  36.1813522  47.6986084  36.9295326  37.6635285
  44.6170880  39.1353767  35.9894755  44.1100880  39.0763767  34.8654755
  44.5010880  40.1933767  36.7844755  44.8194911  40.1147809  37.7397459
  43.9090880  41.4503767  36.3564755  43.9634309  41.5221725  35.2702014
  42.4430880  41.5543767  36.7804755  41.9285268  40.6792590  36.3836191
  42.4184967  41.5267202  37.8698470  41.7500880  42.8143767  36.2904755
  42.3061026  43.6853241  36.6374614  41.7505080  42.7942247  35.2006622
  40.3100880  42.9033767  36.7494755  39.9510880  42.1983767  37.7134755
  39.5380880  43.6783767  36.1464755  38.6443625  43.6676758  36.4962172
  44.7060880  42.5973767  36.9574755  45.2930880  42.4593767  38.0354755
  39.9671928  44.1539809  35.4315289  39.0226371  42.3090513  37.9327993
  40.6638340  41.6679068  38.0761214  44.7270880  43.7283767  36.2594755
  44.2531378  43.7664943  35.3683988  45.4470880  44.9093767  36.7084755
  45.3405489  45.0200365  37.7875969  46.9360880  44.8033767  36.3724755
  47.0594190  44.7012229  35.2943038  47.4507899  45.7018253  36.7130227
  47.3602749  43.9314638  36.8704038  44.8460880  46.1463767  36.0624755
  45.0510880  46.3913767  34.8704755  44.1180880  46.9273767  36.8524755
  43.9779891  46.6487718  37.8131268  43.4730880  48.1453767  36.3864755
  43.5510765  48.2104416  35.3012181  41.9930880  48.1543767  36.7714755
  41.5435199  47.4388116  36.0830321  41.9105605  47.7779373  37.7910747
  41.2640880  49.4923767  36.6624755  41.6218157  50.1545193  37.4509543
  41.5170880  50.1283767  35.3194755  41.1591797  49.4669788  34.5304550
  40.9890093  51.0802023  35.2623650  42.5862846  50.2985040  35.1930804
  39.7760880  49.2993767  36.8924755  39.6124538  48.8844231  37.8870290
  39.2678527  50.2602843  36.8121349  39.3779723  48.6146404  36.1436504
  44.1890880  49.3503767  36.9764755  44.2990880  49.4743767  38.2004755
  44.6720880  50.2323767  36.1064755  44.5309595  50.0657559  35.1203621
  45.4210880  51.4153767  36.5064755  45.5783661  51.3996282  37.5849535
  46.7840880  51.4623767  35.8144755  46.6104839  51.4354500  34.7387265
  47.2230942  52.4220535  36.0872282  47.7290880  50.3493767  36.1994755
  47.4770880  49.0403767  35.8234755  46.5770525  48.8226406  35.2484741
  48.3400880  48.0223767  36.1634755  48.1250255  46.9960081  35.8661248
  49.4790880  48.3063767  36.8814755  50.3430880  47.2923767  37.2214755
  50.0539304  46.4322949  36.9080320  49.7570880  49.5993767  37.2614755
  50.6587672  49.8261951  37.8303591  48.8850880  50.6123767  36.9174755
  49.1003751  51.6398537  37.2108056  44.6310880  52.6683767  36.1604755
  44.2360880  52.8613767  35.0064755  44.4090880  53.5133767  37.1614755
  44.6283167  53.2082153  38.0989800  43.8460880  54.8453767  36.9824755
  43.6219381  55.0056018  35.9278742  42.5580880  55.0143767  37.7864755
  42.8139056  54.5306583  38.7291700  42.4294441  56.0842073  37.9508326
  41.2550880  54.4213767  37.2464755  40.5819451  54.2239368  38.0807397
  40.5960880  55.3843767  36.2844755  41.2684921  55.5819531  35.4496491
  39.6705284  54.9476605  35.9093502  40.3735945  56.3185871  36.8000799
  41.4900880  53.0853767  36.5794755  41.9134212  52.3875015  37.3018733
  40.5436589  52.6929211  36.2075190  42.1828790  53.2109765  35.7473912
  44.8960880  55.8473767  37.4384755  44.9430880  56.2023767  38.6214755
  45.7310880  56.3033767  36.5074755  45.5714268  56.1001193  35.5311077
  46.9310880  57.0483767  36.8714755  46.9695483  57.2630717  37.9394296
  48.2020880  56.2723767  36.4794755  48.2284432  56.1591180  35.3956964
  49.4450880  57.0183767  36.9414755  49.4196707  57.1316220  38.0252792
  50.3340856  56.4558768  36.6562077  49.4732489  58.0028227  36.4743836
  48.1760880  54.8663767  37.0554755  47.3067368  54.3321566  36.6721487
  49.0839340  54.3374725  36.7653451  48.1189141  54.9195729  38.1426747
  46.9370880  58.4283767  36.2274755  47.3720880  58.5913767  35.0824755
  46.4610880  59.4283767  36.9624755  45.8815495  59.2481272  37.7697824
  46.7310880  60.8113767  36.6024755  46.7498771  60.9125376  35.5173429
  45.6490880  61.7323767  37.1594755  45.3134585  61.3564799  38.1259917
  46.0538986  62.7370221  37.2816066  44.1700880  61.8663767  36.1354755
  48.0970880  61.2133767  37.1404755  48.2210880  61.7153767  38.2604755
  49.1260880  60.9893767  36.3304755  48.9565262  60.7513118  35.3636905
  50.4960880  61.0743767  36.7854755  50.6040613  60.4284034  37.6567731
  51.1417126  60.7141663  35.9845281  50.9140880  62.4823767  37.1604755
  50.1030880  63.3573767  37.4674755  52.2290880  62.6913767  37.1274755
  52.8340140  61.9533295  36.7966428  52.8410880  63.9263767  37.6004755
  52.6830221  64.0359651  38.6733710  54.3460880  63.8983767  37.3284755
  54.4774123  63.8014881  36.2507623  54.7514926  64.8547242  37.6588491
  55.0780880  62.7693767  38.0304755  54.8418829  62.7986904  39.0941712
  54.7255175  61.8292313  37.6063058  56.5790880  62.8313767  37.8314755
  57.0780880  63.8843767  37.3834755  57.2600880  61.8263767  38.1244755
  58.1983331  61.9463634  37.9617532  52.2210880  65.1583767  36.9544755
  52.0180880  65.1973767  35.7364755  56.7307643  61.0999341  38.4614866
  58.0316111  63.8326395  37.2810548  56.4256619  64.5691789  37.2212928
  51.9150880  66.1663767  37.7664755  52.0298244  66.0338566  38.7611479
  51.3900880  67.4413767  37.2954755  51.5758266  67.5352214  36.2255252
  49.8850880  67.5503767  37.5414755  49.7265932  67.4236126  38.6124141
  49.5854146  68.5561208  37.2469001  49.0520880  66.5313767  36.7824755
  49.3304403  66.5729113  35.7294343  49.2742653  65.5401284  37.1776540
  47.5650880  66.8113767  36.9244755  47.0090671  66.0920893  36.3231725
  47.2818472  66.7047518  37.9716169  47.2190880  68.1573767  36.4814755
  47.9625128  68.7137369  36.0841314  46.0070880  68.6883767  36.5654755
  44.9890880  68.0143767  37.0754755  45.1288057  67.0721973  37.4114472
  44.0769971  68.4451801  37.1264475  45.8110880  69.9283767  36.1274755
  46.5824959  70.4507365  35.7373854  44.8916965  70.3422495  36.1868658
  52.1260880  68.5603767  38.0164755  52.6440880  68.3563767  39.1184755
  52.1770880  69.7233767  37.3974755  51.7909328  69.8199156  36.4692171
  52.7790880  70.8873767  38.0154755  52.1439697  71.7559860  37.8415738
  52.8744979  70.7165320  39.0877667  54.1560880  71.1573767  37.4334755
  54.4170880  70.8653767  36.2684755  55.0190880  71.7143767  38.2794755
  54.7328335  71.8431639  39.2394606  56.3430880  72.1773767  37.8854755
  56.4457547  72.1093958  36.8024532  56.5640880  73.6323767  38.3074755
  56.5098042  73.7355700  39.3912207  57.5454467  73.9562715  37.9608815
  55.5640880  74.5983767  37.7324755  54.2230880  74.5143767  38.0634755
  53.8936588  73.7319547  38.7471362  53.3070880  75.4043767  37.5404755
  52.2525543  75.3187163  37.8026235  53.7250880  76.3993767  36.6884755
  53.0048488  77.1063833  36.2767752  55.0580880  76.5013767  36.3554755
  55.3921214  77.2876326  35.6784795  55.9710880  75.6073767  36.8794755
  57.0267450  75.6924406  36.6216916  57.3860880  71.2763767  38.5284755
  57.3610880  71.0623767  39.7444755  58.2970880  70.7493767  37.7134755
  58.2459662  70.9584919  36.7266843  59.3460880  69.8503767  38.1754755
  59.3900441  69.8714455  39.2643846  59.0770880  68.4123767  37.7244755
  59.0806740  68.3503655  36.6362471  59.8395609  67.7463265  38.1283470
  57.7530880  67.8753767  38.1804755  56.5780880  68.3303767  37.6124755
  56.6266286  69.0839099  36.8263893  55.3610880  67.8463767  38.0254755
  54.4430836  68.2173324  37.5696681  55.3010880  66.8933767  39.0144755
  54.3359574  66.5093755  39.3448781  56.4630880  66.4233767  39.5884755
  56.4196631  65.6648470  40.3700425  57.6830880  66.9153767  39.1714755
  58.6032098  66.5466408  39.6248072  60.6830880  70.3313767  37.6374755
  60.8290880  70.5433767  36.4304755  61.6590880  70.4873767  38.5324755
  61.4774583  70.2656047  39.5009419  62.9670880  71.0273767  38.1804755
  63.0343412  71.1491372  37.0993878  63.1880880  72.3873767  38.8394755
  63.3079729  72.2181845  39.9095693  64.1162265  72.7848488  38.4287749
  62.0700880  73.3783767  38.6084755  60.8870880  73.2963767  39.3214755
  60.7720165  72.4981900  40.0547940  59.8660880  74.1983767  39.1194755
  58.9392767  74.1177225  39.6874697  60.0210880  75.2043767  38.1974755
  59.0050880  76.1073767  37.9924755  58.2379035  75.9406383  38.5449480
  61.1860880  75.3123767  37.4774755  61.3099346  76.1099610  36.7449308
  62.2040880  74.4023767  37.6864755  63.1323000  74.4835536  37.1208494
  64.0800880  70.0643767  38.5714755  65.1350880  70.4883767  39.0514755
  63.8590880  68.7683767  38.3764755  62.9664276  68.4591623  38.0192038
  64.8610880  67.7603767  38.6984755  65.0569758  67.7586419  39.7707274
  64.3950880  66.3543767  38.2814755  64.2711064  66.3303042  37.1988170
  65.4150880  65.3043767  38.6984755  65.5392688  65.3275346  39.7811308
  65.0664472  64.3174500  38.3942971  66.3710267  65.5151559  38.2190446
  63.1340880  66.0623767  38.8954755  62.8461756  65.1848520  38.6334503
  66.1870880  68.0693767  38.0114755  66.2190880  68.4073767  36.8274755
  67.2880880  67.9753767  38.6774755  67.2984117  67.7002602  39.6492284
  68.5550880  68.2683767  38.0314755  68.3779081  68.5480329  36.9929668
  69.0461675  69.0916981  38.5502079  69.1936308  67.3856557  38.0656354
  25.4091799  41.8557256  29.9921224  25.6020880  41.4663767  28.9924755
  26.2752199  42.1406619  28.4630122  24.6627837  41.3877600  28.4450947
  26.2410880  40.0963767  29.0554755  26.4820880  39.5543767  30.1424755
  26.5390880  39.4833767  27.9604755  26.3266245  39.8800611  27.0562631
  27.1550880  38.1623767  28.0084755  27.6220002  38.0075866  28.9811688
  26.1030880  37.0733767  27.7924755  25.3192735  37.2333435  28.5328434
  25.6929098  37.2175070  26.7929354  26.6390880  35.6563767  27.9204755
  27.4361346  35.5147136  27.1905788  27.0394985  35.5228985  28.9254417
  25.5720880  34.6083767  27.6814755  24.3950880  34.9293767  27.5184755
  25.9800880  33.3453767  27.6584755  25.3113694  32.6046220  27.5029144
  26.9573551  33.1309921  27.7966409  28.2540880  38.0423767  26.9604755
  28.0710880  37.3883767  25.9344755  29.3970880  38.6683767  27.2244755
  29.5056658  39.1798712  28.0885841  30.4960880  38.6853767  26.2694755
  30.2491615  38.0429174  25.4242698  30.7630880  40.0993767  25.7474755
  31.6633977  40.0964361  25.1330383  29.9157258  40.4319306  25.1479046
  31.0260880  41.3473767  27.0274755  31.7390880  38.1143767  26.9344755
  31.8130880  37.9893767  28.1574755  32.7180880  37.7673767  26.1044755
  32.5652757  37.8471368  25.1092941  33.9940880  37.2433767  26.5664755
  34.0056050  37.2373317  27.6563975  34.2340880  35.8183767  26.0674755
  33.5384961  35.1385677  26.5595230  34.0782061  35.7792885  24.9893878
  35.9080880  35.2253767  26.4014755  35.1260880  38.1413767  26.0914755
  35.1170880  38.6203767  24.9534755  36.0790880  38.3843767  26.9924755
  35.8914129  38.1285131  27.9513348  37.3280880  39.0903767  26.6934755
  37.7367108  39.5212512  27.6075180  38.3740880  38.1453767  26.0864755
  38.3575598  37.2133390  26.6513939  38.1010880  37.8533767  24.6194755
  38.1179177  38.7849505  24.0538019  38.8671458  37.1807563  24.2336822
  37.1222133  37.3847993  24.5177901  39.6730880  38.7383767  26.2004755
  40.3285709  38.1483958  25.8211800  37.1060880  40.3053767  25.7944755
  37.9600880  40.6553767  24.9774755  35.9650880  40.9723767  25.9514755
  35.1902603  40.5674628  26.4572284  35.7850880  42.2843767  25.3484755
  36.6566984  42.9027868  25.5628666  35.6190880  42.1843767  23.8384755
  35.5133800  43.1900647  23.4316381  36.5094994  41.7153646  23.4197927
  34.4780880  41.4163767  23.5004755  34.3960303  41.3686202  22.5451820
  34.5810880  42.9773767  25.9644755  33.8490880  42.4033767  26.7734755
  34.3940880  44.2343767  25.5564755  35.0130366  44.6452203  24.8722171
  33.3380880  45.0643767  26.1184755  33.2125343  44.8840122  27.1860916
  33.6590880  46.5483767  25.8844755  33.6939786  46.7391338  24.8118643
  32.5950880  47.4293767  26.5214755  32.5599226  47.2395052  27.5942349
  32.8378362  48.4774627  26.3462904  31.6240179  47.2033348  26.0809904
  35.0450880  46.8893767  26.4364755  34.9759023  46.8612362  27.5239139
  35.7289143  46.1117603  26.0961904  35.5610880  48.2383767  26.0004755
  34.8779770  49.0165943  26.3408231  36.5476282  48.4074290  26.4320529
  35.6309868  48.2671191  24.9130989  32.0040880  44.6853767  25.4954755
  31.9410880  44.2413767  24.3414755  30.9270880  44.8563767  26.2594755
  31.0347609  45.0567336  27.2435299  29.5810880  44.7073767  25.7294755
  29.5393601  45.1523792  24.7353272  29.1630880  43.2353767  25.6254755
  28.1338897  43.1735085  25.2718904  29.8191978  42.7194849  24.9244222
  29.2330880  42.2873767  27.1504755  28.6000880  45.4693767  26.6054755
  28.8870880  45.7863767  27.7624755  27.4380880  45.7673767  26.0304755
  27.3223596  45.5018372  25.0629038  26.3630880  46.5133767  26.6764755
  25.5753354  46.7154908  25.9507380  25.7620880  45.7233767  27.8444755
  25.4094357  44.7617227  27.4717060  26.5379819  45.5601476  28.5924360
  24.6810880  46.4273767  28.4314755  24.3220906  45.9138616  29.1588151
  26.8070880  47.8873767  27.1604755  26.1060880  48.5123767  27.9654755
  27.9530880  48.3763767  26.6954755  28.5447480  47.8194989  26.0955380
  28.4130880  49.6993767  27.0804755  28.2249367  49.8647711  28.1412973
  29.9140880  49.8303767  26.8244755  30.3432880  49.0182981  27.4113443
  30.0661585  49.6311255  25.7636864  30.5990880  51.1483767  27.1994755
  30.1902747  51.9391691  26.5704923  30.3800880  51.4983767  28.6554755
  30.7890811  50.7082138  29.2851310  30.8810673  52.4393500  28.8828296
  29.3121600  51.6000047  28.8486126  32.0830880  51.0543767  26.9114755
  32.2360533  50.8578491  25.8503073  32.5660241  51.9940071  27.1797454
  32.5166788  50.2435293  27.4968169  27.6370880  50.7683767  26.3164755
  26.9290880  50.4873767  25.3464755  27.7480880  52.0093767  26.7884755
  28.2327273  52.1594826  27.6617981  27.1390880  53.1573767  26.1304755
  26.6247499  52.8393030  25.2236212  26.1170880  53.8183767  27.0684755
  25.2690464  53.1372823  27.1394341  26.5872607  53.9155431  28.0470440
  25.6360880  55.1753767  26.6034755  26.2820880  56.3353767  27.0054755
  27.1464855  56.2536210  27.6644386  25.8490880  57.5763767  26.5864755
  26.3692293  58.4791540  26.9067069  24.7530880  57.6703767  25.7584755
  24.3190880  58.9073767  25.3414755  24.8514936  59.6277245  25.6867914
  24.0910880  56.5343767  25.3474755  23.2235028  56.6084478  24.6918004
  24.5330880  55.2953767  25.7714755  24.0127483  54.3924568  25.4519723
  28.1610880  54.1843767  25.6694755  28.1600880  54.5713767  24.4974755
  29.0480880  54.6353767  26.5554755  29.0503913  54.2716131  27.4976910
  29.9970880  55.6953767  26.2194755  30.0689290  55.7894051  25.1359180
  29.5500880  57.0373767  26.7974755  28.5973528  57.2892080  26.3316690
  29.4042434  56.8961026  27.8683961  30.5390880  58.1643767  26.5664755
  31.3973341  58.0146844  27.2215379  30.8671488  58.1396875  25.5273082
  29.9430880  59.5263767  26.8534755  28.7720880  59.6423767  27.2134755
  30.7480880  60.5693767  26.6914755  30.4032043  61.5019493  26.8688594
  31.7017580  60.4255793  26.3915801  31.3780880  55.3203767  26.7354755
  31.5120880  54.7773767  27.8354755  32.3960880  55.6113767  25.9324755
  32.1945258  55.9562680  25.0048322  33.7870880  55.4283767  26.3124755
  33.8947937  55.5615984  27.3889283  34.2670880  54.0243767  25.9434755
  33.4155697  53.4001988  26.2144322  34.4023567  54.0039917  24.8620936
  35.5290880  53.4893767  26.6254755  35.4222406  53.5869775  27.7058266
  35.7330880  52.0283767  26.2674755  35.8404862  51.9300262  25.1872479
  36.6330287  51.6560526  26.7569470  34.8724394  51.4484822  26.6008022
  36.7560880  54.3003767  26.2544755  36.6140967  55.3364130  26.5619925
  37.6303994  53.8888092  26.7587503  36.9067262  54.2595102  25.1757090
  34.6390880  56.4773767  25.6104755  34.5450880  56.6613767  24.3964755
  35.4710880  57.1763767  26.3774755  35.5609249  57.0309615  27.3729066
  36.2570880  58.2333767  25.7614755  36.7209938  57.8596990  24.8486471
  35.3730880  59.4353767  25.4054755  36.0376022  60.2267771  25.0587688
  34.7247585  59.1216361  24.5873461  34.5270880  59.9523767  26.5494755
  33.7584720  59.2180264  26.7904314  35.1800136  60.0902993  27.4113135
  33.8860880  61.2893767  26.2374755  34.4110880  62.0153767  25.3684755
  32.8530880  61.6123767  26.8604755  32.5157436  62.4751040  26.6093193
  37.3840880  58.6873767  26.6744755  37.1580880  58.9943767  27.8444755
  32.5699365  60.9443927  27.4890465  33.9446246  62.8453958  25.2425665
  35.1893001  61.6200551  24.9696974  38.5900880  58.7453767  26.1184755
  38.7843858  58.2412123  25.2651491  39.6680880  59.5013767  26.7324755
  39.6816276  59.3160787  27.8065241  41.0160880  59.0883767  26.1494755
  40.9973461  58.0166676  25.9515172  41.1749295  59.6271505  25.2153490
  42.1680880  59.3873767  27.0814755  42.0820880  60.2783767  27.9224755
  43.2570880  58.6423767  26.9354755  44.0566215  58.7997427  27.5322015
  43.2810817  57.9216227  26.2283413  39.4050880  60.9823767  26.4914755
  38.4030880  61.3443767  25.8674755  40.2930880  61.8413767  26.9844755
  41.1010071  61.5214254  27.4992543  40.0980880  63.2763767  26.8274755
  39.9126314  63.5092381  25.7789143  38.9000880  63.7543767  27.6544755
  38.1735235  62.9422026  27.6304672  39.2441361  63.9032634  28.6779811
  38.2530880  65.0233767  27.1514755  38.9140880  66.2403767  27.2234755
  39.9185794  66.2692591  27.6456867  38.3210880  67.4033767  26.7714755
  38.8537698  68.3527158  26.8272186  37.0480880  67.3573767  26.2454755
  36.4520880  68.5123767  25.7954755  37.0108897  69.2865035  25.8958154
  36.3680880  66.1623767  26.1694755  35.3606670  66.1262323  25.7548711
  36.9700880  65.0053767  26.6224755  36.4368580  64.0562686  26.5680731
  41.3590880  64.0103767  27.2534755  41.9880880  63.6393767  28.2484755
  41.7160880  65.0463767  26.5014755  41.2096283  65.2339571  25.6480052
  42.8510880  65.8993767  26.8334755  42.6577978  66.4095101  27.7771396
  44.1370880  65.0803767  26.9744755  44.9993537  65.7451276  26.9224819
  44.1354178  64.5626561  27.9336744  44.3890880  63.8013767  25.7324755
  43.0340880  66.9793767  25.7734755  42.7750880  68.1563767  26.0244755
  43.4650880  66.6563767  24.6014755  42.8452352  66.5960327  23.8063400
  44.8740880  66.3683767  24.3994755  45.4065196  66.4756551  25.3445197
  44.9880108  65.3483088  24.0326191  45.2867763  67.0646973  23.6694576
  29.1972997  24.9618174  32.5492787  29.0130880  25.1853767  31.4984755
  28.2646257  25.9738861  31.4200187  28.6507041  24.2896655  30.9940170
  30.2780880  25.6493767  30.8104755  31.3460880  25.7373767  31.4304755
  30.2430880  25.9593767  29.5584755  29.3980038  25.8673262  29.0130778
  31.4550880  26.4083767  28.8844755  32.1720213  26.7757242  29.6187518
  32.0950880  25.2543767  28.1114755  31.9912339  24.3297964  28.6793354
  31.6189108  25.1376743  27.1379583  33.5580880  25.4363767  27.8534755
  34.1450880  26.6773767  27.7304755  33.6506948  27.5553566  27.7999475
  35.4390880  26.5303767  27.5104755  36.0826311  27.4006596  27.3817939
  35.7140880  25.2383767  27.4894755  36.6240353  24.8259421  27.3411732
  34.5550880  24.5333767  27.7034755  34.5759594  23.4437791  27.7245165
  31.1300880  27.5643767  27.9474755  30.3120880  27.4233767  27.0384755
  31.7680880  28.7113767  28.1804755  32.4039051  28.7863799  28.9616352
  31.5310880  29.8963767  27.3664755  30.7835289  29.6789516  26.6035988
  31.0200880  31.0463767  28.2384755  30.1014831  30.6529774  28.6737929
  31.7525293  31.2149154  29.0279212  30.7220880  32.3693767  27.5284755
  30.4357344  32.1628121  26.4972464  29.5930880  33.1033767  28.2294755
  29.8789080  33.3107131  29.2606968  29.3931726  34.0420156  27.7126664
  28.6954347  32.4851447  28.2190813  31.9570880  33.2533767  27.4614755
  32.7449822  32.7368243  26.9133005  31.7107445  34.1845974  26.9513343
  32.3022748  33.4734248  28.4716853  32.7990880  30.3083767  26.6294755
  32.7700880  30.5383767  25.4154755  33.9140880  30.4033767  27.3494755
  33.8895314  30.1969466  28.3378494  35.1720880  30.8463767  26.7684755
  35.1228333  30.7478969  25.6840517  35.4650880  32.3103767  27.1144755
  34.5752579  32.7669270  27.5479075  36.2836428  32.3577127  27.8326867
  35.9360880  33.3223767  25.6954755  36.2980880  29.9493767  27.2624755
  36.1900880  29.2923767  28.3004755  37.3890880  29.9393767  26.5044755
  37.4501041  30.5766267  25.7232657  38.5020880  29.0483767  26.7514755
  38.1079183  28.1217992  27.1688284  38.9866958  28.8394436  25.7977451
  39.5240880  29.6233767  27.7074755  39.2260880  30.4743767  28.5484755
  40.7560880  29.1433767  27.5664755  40.9488554  28.4912904  26.8196666
  41.8340880  29.4833767  28.4794755  41.4370941  30.0245073  29.3383542
  42.5240880  28.2133767  28.9784755  43.0006094  27.7199719  28.1313755
  43.2829345  28.4932930  29.7091593  41.5950880  27.3283767  29.5784755
  42.0531966  26.5413255  29.8822628  42.8510880  30.4043767  27.8094755
  42.8490880  30.6063767  26.5934755  43.7310880  30.9693767  28.6334755
  43.6016641  30.8390352  29.6266320  44.8240880  31.8273767  28.1844755
  45.3662770  32.2112405  29.0486392  45.8020880  31.0483767  27.2994755
  45.8653571  30.0115923  27.6298909  45.4713263  31.0787756  26.2613172
  47.1970880  31.5903767  27.3204755  48.3080880  30.7903767  27.1584755
  48.2794830  29.7912718  27.0133174  49.3970880  31.5343767  27.2234755
  50.3839699  31.0836390  27.1186010  49.0340880  32.7883767  27.4204755
  49.6553311  33.5797217  27.5095265  47.6630880  32.8513767  27.4864755
  47.1686620  33.8093187  27.6476936  44.3210880  33.0633767  27.4494755
  45.0150880  33.6003767  26.5804755  43.1200880  33.5263767  27.7794755
  42.5370453  33.0262403  28.4352377  42.5950880  34.7403767  27.1774755
  42.7395866  34.7098978  26.0975262  41.1010880  34.8763767  27.4664755
  41.0585317  35.1729857  28.5144790  40.6935268  35.6749380  26.8465611
  40.2780880  33.6033767  27.2634755  40.5681123  32.8688120  28.0147420
  38.7990880  33.9043767  27.3964755  38.5082012  34.6385727  26.6451833
  38.2267163  32.9884804  27.2494200  38.5968513  34.3029234  28.3906391
  40.5810880  32.9793767  25.9184755  41.6399371  32.7262249  25.8650682
  39.9851599  32.0751878  25.7943248  40.3367167  33.6866366  25.1259068
  43.3400880  35.9593767  27.7044755  43.7320880  36.0203767  28.8734755
  43.5350880  36.9393767  26.8274755  43.1953136  36.8282405  25.8828584
  44.2690880  38.1543767  27.1594755  44.3096602  38.3131970  28.2370789
  45.7100880  38.1163767  26.6124755  45.6766328  37.9687193  25.5330417
  46.4300880  39.4193767  26.9234755  46.4643500  39.5675049  28.0028202
  47.4459627  39.3764557  26.5307199  45.8967174  40.2493780  26.4601017
  46.4670880  36.9333767  27.1914755  45.9601123  36.0079660  26.9181757
  47.4823091  36.9216720  26.7948789  46.5027699  37.0204652  28.2774051
  43.5170880  39.3533767  26.6024755  43.0090880  39.3163767  25.4774755
  43.4460880  40.4153767  27.3974755  43.7598192  40.3229870  28.3530571
  42.9080880  41.6963767  26.9694755  42.9667933  41.7661516  25.8832967
  41.4480880  41.8623767  27.3914755  40.8974947  41.0100133  26.9934519
  41.4212028  41.8350332  28.4808007  40.8090880  43.1513767  26.9014755
  41.4014513  43.9976773  27.2493002  40.8094118  43.1317715  25.8116522
  39.3740880  43.3013767  27.3594755  38.9850880  42.6113767  28.3234755
  38.6360880  44.1083767  26.7564755  37.7425343  44.1354446  27.1057721
  43.7530880  42.8083767  27.5704755  44.3320880  42.6453767  28.6484755
  39.0853183  44.5655845  26.0418902  38.0620661  42.7610812  28.5425464
  39.6746530  42.0510867  28.6860943  43.8220880  43.9373767  26.8724755
  43.3503922  43.9963485  25.9813387  44.5920880  45.0863767  27.3224755
  44.4895527  45.2007388  28.4015987  46.0750880  44.9183767  26.9874755
  46.1947560  44.8118094  25.9093182  46.6267331  45.7942743  27.3289301
  46.4620568  44.0291600  27.4851180  44.0440880  46.3483767  26.6764755
  44.2600880  46.5843767  25.4834755  43.3500880  47.1593767  27.4664755
  43.1984127  46.8880280  28.4274457  42.7580880  48.4033767  26.9994755
  42.8395950  48.4642871  25.9142355  41.2790880  48.4763767  27.3834755
  40.7990491  47.7806401  26.6952804  41.1808065  48.1039728  28.4031598
  40.6080880  49.8443767  27.2744755  40.9939676  50.4907948  28.0627276
  40.8880880  50.4683767  25.9314755  40.5020600  49.8227102  25.1426815
  40.4013953  51.4419962  25.8740638  41.9636028  50.5923615  25.8049992
  39.1130880  49.7133767  27.5034755  38.9316866  49.3050481  28.4976891
  38.6453620  50.6946609  27.4233819  38.6872745  49.0462285  26.7540123
  43.5240880  49.5773767  27.5904755  43.6390880  49.6963767  28.8144755
  44.0440880  50.4383767  26.7204755  43.8958632  50.2781798  25.7343387
  44.8430880  51.5873767  27.1204755  44.9982189  51.5648410  28.1991440
  46.2070880  51.5763767  26.4304755  46.0330930  51.5580604  25.3546086
  46.6864214  52.5161802  26.7045357  47.1030880  50.4243767  26.8144755
  46.7960880  49.1283767  26.4384755  45.8881650  48.9489452  25.8626460
  47.6150880  48.0743767  26.7794755  47.3562078  47.0580251  26.4826382
  48.7640880  48.3093767  27.4984755  49.5840880  47.2583767  27.8384755
  49.2586437  46.4117379  27.5240102  49.0970880  49.5893767  27.8784755
  50.0071130  49.7774206  28.4482075  48.2700880  50.6383767  27.5334755
  48.5293923  51.6558297  27.8261370  44.1080880  52.8733767  26.7744755
  43.7210880  53.0833767  25.6204755  43.9200880  53.7273767  27.7754755
  44.1249561  53.4127904  28.7131129  43.4150880  55.0813767  27.5964755
  43.1981588  55.2510806  26.5418469  42.1350880  55.3053767  28.4004755
  42.3693038  54.8113433  29.3434353  42.0521408  56.3797561  28.5645750
  40.8080880  54.7683767  27.8594755  40.1265378  54.5998028  28.6932458
  40.1910880  55.7593767  26.8964755  40.8719063  55.9281185  26.0621425
  39.2479859  55.3626183  26.5206537  40.0083335  56.7021978  27.4120233
  40.9870880  53.4243767  27.1924755  41.3801449  52.7090980  27.9149588
  40.0252588  53.0722009  26.8197047  41.6851669  53.5209527  26.3609360
  44.5060880  56.0383767  28.0534755  44.5680880  56.3913767  29.2364755
  45.3610880  56.4583767  27.1224755  45.1940093  56.2616295  26.1460153
  46.5910880  57.1523767  27.4874755  46.6375595  57.3634776  28.5558275
  47.8280880  56.3223767  27.0954755  47.8507903  56.2090988  26.0116157
  49.1010880  57.0143767  27.5594755  49.0793222  57.1276013  28.6433608
  49.9656769  56.4148492  27.2746013  49.1715916  57.9971651  27.0933662
  47.7420880  54.9183767  27.6724755  46.8506188  54.4216133  27.2895775
  48.6264378  54.3510056  27.3824494  47.6874605  54.9745114  28.7596579
  46.6560880  58.5293767  26.8444755  47.0980880  58.6743767  25.6994755
  46.2230880  59.5493767  27.5784755  45.6356490  59.3932964  28.3851065
  46.5510880  60.9193767  27.2194755  46.5748249  61.0192976  26.1343250
  45.5100880  61.8863767  27.7754755  45.1598332  61.5270466  28.7431028
  45.9573478  62.8731617  27.8951174  44.0370880  62.0823767  26.7514755
  47.9330880  61.2633767  27.7574755  48.0780880  61.7593767  28.8784755
  48.9520880  60.9953767  26.9484755  48.7731602  60.7648136  25.9815604
  50.3240880  61.0213767  27.4044755  50.4039271  60.3718077  28.2761320
  50.9546298  60.6338726  26.6042524  50.8010880  62.4113767  27.7794755
  50.0280880  63.3193767  28.0864755  52.1240880  62.5643767  27.7474755
  52.6971492  61.8006000  27.4183169  52.7880880  63.7723767  28.2204755
  52.6335266  63.8891449  29.2931241  54.2900880  63.6803767  27.9504755
  54.4181944  63.5795703  26.8727343  54.7352552  64.6182544  28.2826075
  54.9730880  62.5203767  28.6514755  54.7368886  62.5597202  29.7148488
  54.5813680  61.5961072  28.2267632  56.4760880  62.5183767  28.4544755
  57.0190880  63.5493767  28.0064755  57.1130880  61.4853767  28.7474755
  58.0558079  61.5654150  28.5860682  52.2210880  65.0293767  27.5744755
  52.0210880  65.0773767  26.3574755  56.5528578  60.7818885  29.0832216
  57.9697316  63.4578301  27.9051400  56.3959881  64.2607188  27.8432087
  51.9580880  66.0493767  28.3874755  52.0656727  65.9116685  29.3822424
  51.4880880  67.3453767  27.9164755  51.6790867  67.4315085  26.8468026
  49.9890880  67.5183767  28.1604755  49.8243657  67.3989579  29.2313186
  49.7332339  68.5359754  27.8652949  49.1140880  66.5363767  27.4014755
  49.3952827  66.5656010  26.3487759  49.2934498  65.5367514  27.7973045
  47.6400880  66.8793767  27.5414755  47.0550171  66.1847437  26.9387517
  47.3511051  66.7839327  28.5881267  47.3520880  68.2383767  27.0994755
  48.1186762  68.7627428  26.7026352  46.1630880  68.8203767  27.1824755
  45.1180880  68.1903767  27.6924755  45.2180989  67.2434608  28.0292961
  44.2248388  68.6590713  27.7427838  46.0200880  70.0673767  26.7444755
  46.8132310  70.5566797  26.3551081  45.1189607  70.5197400  26.8030909
  52.2700880  68.4323767  28.6364755  52.7790880  68.2063767  29.7394755
  52.3720880  69.5923767  28.0184755  51.9919089  69.7053582  27.0896061
  53.0220880  70.7293767  28.6374755  52.4253183  71.6246327  28.4628848
  53.1091549  70.5548157  29.7098780  54.4100880  70.9393767  28.0564755
  54.6590880  70.6373767  26.8914755  55.2950880  71.4593767  28.9024755
  55.0132931  71.6012016  29.8619423  56.6380880  71.8663767  28.5094755
  56.7386625  71.7933218  27.4265872  56.9200880  73.3103767  28.9304755
  56.8706651  73.4160776  30.0142116  57.9143107  73.5918003  28.5834565
  55.9620880  74.3183767  28.3554755  54.6190880  74.2913767  28.6864755
  54.2565571  73.5237407  29.3701466  53.7420880  75.2193767  28.1634755
  52.6846801  75.1788104  28.4249013  54.2030880  76.1963767  27.3114755
  53.5139977  76.9336040  26.8994677  55.5390880  76.2413767  26.9794755
  55.9068187  77.0131490  26.3032789  56.4130880  75.3083767  27.5034755
  57.4714727  75.3481017  27.2459027  57.6420880  70.9213767  29.1524755
  57.6060880  70.7093767  30.3684755  58.5300880  70.3563767  28.3374755
  58.4888518  70.5673396  27.3506150  59.5390880  69.4133767  28.8004755
  59.5829608  69.4327099  29.8894202  59.2090880  67.9883767  28.3494755
  59.2114201  67.9246793  27.2613411  59.9422831  67.2913524  28.7552859
  57.8630880  67.5083767  28.8044755  56.7090880  68.0123767  28.2354755
  56.7902412  68.7629834  27.4492798  55.4720880  67.5803767  28.6474755
  54.5709543  67.9895692  28.1907260  55.3710880  66.6313767  29.6364755
  54.3903063  66.2889044  29.9664448  56.5120880  66.1123767  30.2114755
  56.4360355  65.3570593  30.9936594  57.7520880  66.5513767  29.7944755
  58.6555099  66.1425940  30.2470521  60.8950880  69.8373767  28.2634755
  61.0510880  70.0433767  27.0564755  61.8770880  69.9513767  29.1584755
  61.6860905  69.7362304  30.1266342  63.2060880  70.4353767  28.8074755
  63.2786614  70.5545519  27.7264438  63.4850880  71.7853767  29.4674755
  63.5965172  71.6112160  30.5376861  64.4297203  72.1430659  29.0578068
  62.4110880  72.8223767  29.2354755  61.2240880  72.7903767  29.9484755
  61.0740427  71.9978684  30.6816306  60.2430880  73.7353767  29.7454755
  59.3133490  73.6938726  30.3128948  60.4410880  74.7343767  28.8234755
  59.4650880  75.6793767  28.6184755  58.6913241  75.5453713  29.1706816
  61.6100880  74.7923767  28.1044755  61.7678931  75.5843469  27.3723680
  62.5890880  73.8393767  28.3134755  63.5198696  73.8810698  27.7477835
  64.2780880  69.4253767  29.1994755  65.3490880  69.8043767  29.6794755
  64.0020880  68.1403767  29.0034755  63.0974974  67.8695009  28.6450883
  64.9600880  67.0903767  29.3264755  65.1562156  67.0801958  30.3986366
  64.4350880  65.7053767  28.9094755  64.3097737  65.6869881  27.8268590
  65.4090880  64.6133767  29.3254755  65.5345624  64.6308429  30.4080884
  65.0186378  63.6422921  29.0211033  66.3729457  64.7834471  28.8457307
  63.1620880  65.4673767  29.5224755  62.8373848  64.6028000  29.2604159
  66.2980880  67.3433767  28.6404755  66.3450880  67.6793767  27.4574755
  67.3930880  67.2033767  29.3074755  67.3908836  66.9285688  30.2793680
  68.6720880  67.4423767  28.6624755  68.5078392  67.7287234  27.6236644
  69.1969669  68.2445199  29.1812906  69.2727996  66.5335274  28.6976682
  86.4895960  96.2366600  59.0436770  86.4090010  95.3221210  58.7728480
  86.0760380  96.7333670  58.3376480  84.6214000  98.0145620  60.9246040
  83.8456100  97.5346060  61.2144610  85.2726930  97.3351270  60.7502200
  78.6379830  98.3265430  61.8021800  77.8064710  98.0714140  62.2018310
  79.2460810  98.3976200  62.5379720  77.0471780  93.2867320  55.5864190
  76.1588480  93.6283290  55.4844070  77.3312970  93.0867640  54.6945020
  75.0104790  95.8872970  61.4703890  75.5820900  95.1195170  61.4707530
  75.0106330  96.1861730  60.5610500  85.0928160  93.4973190  61.1585130
  85.4692980  92.6245070  61.0458800  84.9947670  93.8331890  60.2675570
  79.2233170  91.8698820  56.6202570  79.3299920  92.7702550  56.9271330
  78.3125530  91.8216790  56.3297220  88.8752280  90.9923630  58.0913470
  89.6961900  90.5020200  58.1338950  88.9086360  91.5821290  58.8445310
  76.8716330  93.7917830  61.8655160  77.5526440  94.0556200  62.4842560
  76.5564380  92.9518700  62.1993170  81.0640900  94.8385190  60.9527750
  81.5719120  95.3366160  61.5932770  81.5954140  94.0620390  60.7767110
  89.1113760  92.9324010  60.8641010  88.4069330  93.2208900  61.4444120
  89.4725920  93.7424120  60.5040570  79.0292330  91.1893710  63.2261620
  79.3709140  92.0335760  62.9315490  78.0908140  91.3377450  63.3426960
  82.7120220  88.6775980  59.5506210  83.0195200  88.1222870  58.8341710
  81.7820920  88.8120440  59.3679200  85.1000980  96.7424810  56.2866330
  84.1730260  96.6762190  56.5154800  85.2525800  97.6804940  56.1721570
  85.0870060  93.0141810  53.2833490  84.1473730  93.1755770  53.3685950
  85.4053320  93.7327490  52.7369480  89.1298270  98.3045110  56.7901580
  88.5110690  97.9664660  56.1427880  89.1122720  97.6604870  57.4980770
  80.7057620  97.2689550  59.0686060  80.3014620  96.5566800  58.5731960
  80.7920740  96.9242790  59.9574100  87.3062970  97.5431920  53.7974330
  87.7456250  96.7054350  53.6512150  88.0191390  98.1761320  53.8838470
  77.4062250  96.1634530  56.5692710  77.2859850  96.8896620  55.9573980
  77.0963140  95.3937440  56.0920620  79.8725910  89.5069600  59.9516380
  79.4294060  90.2879140  59.6200900  80.4310900  89.8299490  60.6587320
  82.9884730  89.1280300  54.8322210  82.3638910  89.1240170  55.5575520
  82.9014850  88.2611260  54.4358180  81.9101810  90.0516930  61.8105980
  82.2074140  90.9579760  61.7298000  82.4587370  89.5635710  61.1965550
  79.6640130  94.6303170  57.6797630  79.4381050  94.4140340  58.5844250
  78.8832660  95.0631630  57.3343600  86.8937890  94.6366540  56.2788280
  86.2946780  95.3602340  56.0951900  87.4417500  94.5743320  55.4964730
  85.5002760  93.2730080  58.3091560  85.8932330  93.5902280  57.4960250
  85.8619610  92.3941960  58.4236080  74.5366930  89.8630880  60.5321760
  74.2479980  90.4333740  61.2446740  75.2812690  89.3835330  60.8952990
  74.7237160  93.8051000  51.7424480  74.6411830  94.7481760  51.8839470
  74.3720220  93.6625910  50.8636830  86.0857900  95.8635830  62.4042340
  85.3539020  96.3722640  62.7532440  85.6882240  95.0465810  62.1031120
  82.5235290  92.5390030  60.8094830  82.5271350  92.0979980  59.9599370
  83.4186410  92.8607360  60.9166650  78.3737670  92.4216520  59.7689040
  78.0337720  92.8991750  60.5256090  77.6114990  91.9681640  59.4090140
  82.5855440  93.5402110  53.8001590  82.7068260  93.4988590  54.7487410
  82.2003950  94.4026260  53.6448320  86.5483810  91.3169510  61.8165280
  86.5656550  91.7678160  62.6607130  86.2999390  90.4175150  62.0298720
  81.5976940  95.8503250  53.1984890  81.0293840  95.4021500  52.5720800
  82.3065940  96.2096030  52.6650040  82.8243260  96.5991810  62.5560240
  83.1913390  96.1250380  63.3021580  82.6348320  97.4733380  62.8968580
  75.6883750  91.3435500  58.6853710  75.4030670  90.9791170  59.5232330
  75.6262610  90.6115960  58.0716850  85.3622340  90.2364760  55.4067080
  84.5486950  89.7377930  55.3312390  85.1684290  91.0763010  54.9903430
  88.0770730  94.6084410  53.7029240  88.9650350  94.9201640  53.5280580
  88.0475820  93.7356660  53.3109820  75.1814410  96.4794450  52.6450410
  76.0509260  96.7619250  52.9286330  74.6904730  97.2930320  52.5299220
  82.3449220  97.8667660  56.7658690  82.8012000  98.6772910  56.9918880
  81.9937430  97.5490800  57.5977180  78.2461000  88.2105310  57.2381210
  78.1175630  88.2023210  58.1866130  77.4223020  88.5488400  56.8872220
  90.1055740  91.4175680  55.2576920  89.4768900  91.5221350  54.5435150
  89.6107660  91.6372460  56.0470800  82.0739770  93.6961630  56.6734800
  81.3655920  94.1647970  57.1148410  82.3584250  93.0383640  57.3079990
  86.1055200  90.4212290  58.1130590  85.9822980  90.4398420  57.1640100
  87.0539760  90.4691230  58.2328990  80.2774790  92.0046710  54.0485510
  81.1265320  92.4416860  53.9825700  79.9106060  92.3166970  54.8757570
  89.1984570  96.5759470  58.9617080  88.2574710  96.5909700  59.1364770
  89.5128640  95.7895430  59.4077380  79.1766210  98.2579070  52.5221040
  79.9429480  98.1460430  53.0846470  79.2540900  97.5617040  51.8697810
  77.8712970  95.6904140  53.2053930  77.9516560  94.7431650  53.3171330
  78.7632720  96.0211020  53.3114590  81.2085240  98.2544200  54.4963680
  81.6301660  98.0884070  55.3395070  81.3336080  97.4444430  54.0018820
  83.7212880  97.2781810  51.7440780  84.2418540  96.5630830  51.3781930
  84.3681280  97.9167680  52.0441290  80.1044140  94.3277430  51.4421840
  79.9033200  93.4644790  51.8035180  79.9336190  94.2410790  50.5043440
  87.5832450  89.1385660  53.9708720  87.8634740  88.2953560  54.3268140
  86.8098180  89.3708770  54.4847470  78.9026940  91.4278050  51.4299720
  79.2052840  91.4345480  50.5218870  79.6421530  91.0775910  51.9267380
  82.1211870  90.3712670  52.4155920  81.7733870  89.6936660  51.8358370
  82.3224640  89.9102180  53.2299310  75.4617510  96.9000320  58.8120290
  74.8066350  96.6311960  58.1679990  76.2995460  96.7904800  58.3622270
  88.4107950  91.6941610  53.0338780  88.8292830  91.5072590  52.1935440
  88.1044010  90.8420660  53.3441710  74.6755590  94.1099250  54.7545620
  73.7719670  94.3729450  54.5797280  75.1596210  94.3810420  53.9745580
  77.2182800  93.1664790  52.6640000  77.9274500  92.7448010  52.1787280
  76.5022740  93.2340020  52.0323350  76.8656960  89.2204120  51.7042650
  77.5885090  89.7613060  52.0223870  77.1381480  88.9467540  50.8284190
  76.5549150  88.4710310  61.6065270  77.2025340  87.9207690  61.1660430
  76.9750990  88.7253460  62.4281080  84.9463390  88.9549900  62.7764500
  84.1635180  89.4295400  63.0561260  84.6526320  88.0504730  62.6677680
  89.4984460  89.6573000  60.8213590  89.9392550  89.6018100  59.9735190
  89.2292050  90.5731010  60.8923770  76.2903800  89.2597380  55.2978220
  77.0483160  89.3726260  54.7242250  75.8280970  90.0966580  55.2521650
  82.8317610  91.3736650  58.2880530  82.0192120  90.9993540  57.9476410
  83.3359250  90.6181730  58.5901720  87.3342590  88.0379100  59.5263600
  87.9371960  88.6099310  60.0012120  86.5935580  88.6018540  59.3037500
  78.6628950  89.7861430  53.8380190  79.1921710  88.9991230  53.7088140
  79.2957270  90.4652620  54.0715720  80.8566790  89.5236570  56.8925580
  80.2269530  88.8223880  57.0595710  80.3171930  90.2840700  56.6758740
  86.4895960  96.2366600  40.2693280  86.4090010  95.3221210  39.9984990
  86.0760380  96.7333670  39.5632990  84.6214000  98.0145620  42.1502550
  83.8456100  97.5346060  42.4401120  85.2726930  97.3351270  41.9758710
  78.6379830  98.3265430  43.0278310  77.8064710  98.0714140  43.4274820
  79.2460810  98.3976200  43.7636230  77.0471780  93.2867320  36.8120700
  76.1588480  93.6283290  36.7100580  77.3312970  93.0867640  35.9201530
  75.0104790  95.8872970  42.6960400  75.5820900  95.1195170  42.6964040
  75.0106330  96.1861730  41.7867010  76.2529660  91.2957330  44.4829330
  76.0732500  90.3983080  44.7632090  75.8509740  91.8429200  45.1576280
  85.0928160  93.4973190  42.3841640  85.4692980  92.6245070  42.2715310
  84.9947670  93.8331890  41.4932080  79.2233170  91.8698820  37.8459080
  79.3299920  92.7702550  38.1527840  78.3125530  91.8216790  37.5553730
  88.8752280  90.9923630  39.3169980  89.6961900  90.5020200  39.3595460
  88.9086360  91.5821290  40.0701820  76.8716330  93.7917830  43.0911670
  77.5526440  94.0556200  43.7099070  76.5564380  92.9518700  43.4249680
  81.0640900  94.8385190  42.1784260  81.5719120  95.3366160  42.8189280
  81.5954140  94.0620390  42.0023620  79.3477000  89.4783750  46.4447680
  79.3495440  89.9956140  45.6393580  78.5181310  89.0013930  46.4217610
  89.1113760  92.9324010  42.0897520  88.4069330  93.2208900  42.6700630
  89.4725920  93.7424120  41.7297080  79.0292330  91.1893710  44.4518130
  79.3709140  92.0335760  44.1572000  78.0908140  91.3377450  44.5683470
  82.7120220  88.6775980  40.7762720  83.0195200  88.1222870  40.0598220
  81.7820920  88.8120440  40.5935710  85.1000980  96.7424810  37.5122840
  84.1730260  96.6762190  37.7411310  85.2525800  97.6804940  37.3978080
  85.0870060  93.0141810  34.5090000  84.1473730  93.1755770  34.5942460
  85.4053320  93.7327490  33.9625990  89.1298270  98.3045110  38.0158090
  88.5110690  97.9664660  37.3684390  89.1122720  97.6604870  38.7237280
  88.5724830  94.4829650  45.4323900  88.1596010  95.3083360  45.6863890
  87.8400780  93.8974690  45.2400260  80.7057620  97.2689550  40.2942570
  80.3014620  96.5566800  39.7988470  80.7920740  96.9242790  41.1830610
  79.4186240  94.0432760  44.0741610  79.9700830  94.1528100  43.2994860
  79.9329750  94.4170360  44.7896840  87.3062970  97.5431920  35.0230840
  87.7456250  96.7054350  34.8768660  88.0191390  98.1761320  35.1094980
  79.0928970  97.5652120  47.6846950  78.9536740  98.4374920  48.0534350
  78.2110330  97.2224930  47.5394890  77.4062250  96.1634530  37.7949220
  77.2859850  96.8896620  37.1830490  77.0963140  95.3937440  37.3177130
  79.8725910  89.5069600  41.1772890  79.4294060  90.2879140  40.8457410
  80.4310900  89.8299490  41.8843830  84.1595720  92.3738120  46.7808210
  83.6975090  92.5821140  47.5928150  83.7573830  91.5597470  46.4778880
  89.1600230  93.5947070  47.9104870  88.3093820  93.2952820  48.2313940
  89.0002020  93.8389080  46.9988690  86.2549940  95.0948820  50.0103660
  86.5803350  94.2612570  49.6705890  87.0430270  95.6177340  50.1581990
  82.9884730  89.1280300  36.0578720  82.3638910  89.1240170  36.7832030
  82.9014850  88.2611260  35.6614690  81.9101810  90.0516930  43.0362490
  82.2074140  90.9579760  42.9554510  82.4587370  89.5635710  42.4222060
  79.6640130  94.6303170  38.9054140  79.4381050  94.4140340  39.8100760
  78.8832660  95.0631630  38.5600110  86.8937890  94.6366540  37.5044790
  86.2946780  95.3602340  37.3208410  87.4417500  94.5743320  36.7221240
  82.1039340  95.5288750  49.5714410  82.0082940  94.5883480  49.4214810
  82.9471320  95.7503820  49.1762480  85.5002760  93.2730080  39.5348070
  85.8932330  93.5902280  38.7216760  85.8619610  92.3941960  39.6492590
  77.2349880  91.9402420  47.7248190  76.8413270  92.7877630  47.9320970
  76.5468280  91.3028790  47.9156830  83.8094930  92.0237390  50.7944930
  83.1193250  91.8309590  51.4291020  84.5527230  92.3072030  51.3269230
  74.5366930  89.8630880  41.7578270  74.2479980  90.4333740  42.4703250
  75.2812690  89.3835330  42.1209500  74.7237160  93.8051000  32.9680990
  74.6411830  94.7481760  33.1095980  74.3720220  93.6625910  32.0893340
  86.0857900  95.8635830  43.6298850  85.3539020  96.3722640  43.9788950
  85.6882240  95.0465810  43.3287630  82.5235290  92.5390030  42.0351340
  82.5271350  92.0979980  41.1855880  83.4186410  92.8607360  42.1423160
  78.3737670  92.4216520  40.9945550  78.0337720  92.8991750  41.7512600
  77.6114990  91.9681640  40.6346650  82.5855440  93.5402110  35.0258100
  82.7068260  93.4988590  35.9743920  82.2003950  94.4026260  34.8704830
  86.5483810  91.3169510  43.0421790  86.5656550  91.7678160  43.8863640
  86.2999390  90.4175150  43.2555230  81.5976940  95.8503250  34.4241400
  81.0293840  95.4021500  33.7977310  82.3065940  96.2096030  33.8906550
  89.9754560  88.7301690  48.8808170  90.3000330  87.9991350  49.4066150
  90.0111070  88.4115330  47.9789160  82.8243260  96.5991810  43.7816750
  83.1913390  96.1250380  44.5278090  82.6348320  97.4733380  44.1225090
  75.6883750  91.3435500  39.9110220  75.4030670  90.9791170  40.7488840
  75.6262610  90.6115960  39.2973360  80.6142630  95.6400450  46.1000960
  80.3099700  96.5192430  46.3251320  81.5689090  95.7000240  46.1358400
  85.3622340  90.2364760  36.6323590  84.5486950  89.7377930  36.5568900
  85.1684290  91.0763010  36.2159940  88.0770730  94.6084410  34.9285750
  88.9650350  94.9201640  34.7537090  88.0475820  93.7356660  34.5366330
  76.6706360  96.4803190  47.2472320  76.3121300  97.1457040  47.8345660
  76.3760920  95.6486740  47.6184940  79.8719480  96.9387430  50.1311870
  79.5719620  97.0844610  49.2339690  80.6430720  96.3792720  50.0385260
  75.1814410  96.4794450  33.8706920  76.0509260  96.7619250  34.1542840
  74.6904730  97.2930320  33.7555730  82.3449220  97.8667660  37.9915200
  82.8012000  98.6772910  38.2175390  81.9937430  97.5490800  38.8233690
  78.2461000  88.2105310  38.4637720  78.1175630  88.2023210  39.4122640
  77.4223020  88.5488400  38.1128730  75.2454930  89.9696430  47.9244420
  74.5313450  90.1693350  48.5297030  75.6649970  89.1936000  48.2959220
  86.7393710  92.4618740  45.6745870  87.1074530  91.6413950  46.0025440
  85.8791910  92.5220630  46.0901520  90.1055740  91.4175680  36.4833430
  89.4768900  91.5221350  35.7691660  89.6107660  91.6372460  37.2727310
  82.0739770  93.6961630  37.8991310  81.3655920  94.1647970  38.3404920
  82.3584250  93.0383640  38.5336500  83.6995700  95.1158330  45.8983840
  84.1980950  95.5904150  46.5635690  83.8418650  94.1921850  46.1053870
  86.1055200  90.4212290  39.3387100  85.9822980  90.4398420  38.3896610
  87.0539760  90.4691230  39.4585500  80.2774790  92.0046710  35.2742020
  81.1265320  92.4416860  35.2082210  79.9106060  92.3166970  36.1014080
  89.1984570  96.5759470  40.1873590  88.2574710  96.5909700  40.3621280
  89.5128640  95.7895430  40.6333890  79.1766210  98.2579070  33.7477550
  79.9429480  98.1460430  34.3102980  79.2540900  97.5617040  33.0954320
  77.8712970  95.6904140  34.4310440  77.9516560  94.7431650  34.5427840
  78.7632720  96.0211020  34.5371100  75.3983770  97.5119060  49.6666610
  75.9022790  96.9326340  50.2382840  74.6591190  97.7959290  50.2042980
  77.4306850  95.6548650  50.5616680  77.4712190  95.3562520  51.4701910
  78.2852350  96.0556260  50.4024200  81.2085240  98.2544200  35.7220190
  81.6301660  98.0884070  36.5651580  81.3336080  97.4444430  35.2275330
  79.3712660  94.2340750  48.5291170  78.8409120  93.7431700  47.9014510
  80.0400730  94.6624950  47.9949100  83.7212880  97.2781810  32.9697290
  84.2418540  96.5630830  32.6038440  84.3681280  97.9167680  33.2697800
  88.7412890  96.0406370  50.2971510  89.3233660  95.2858690  50.2091990
  88.9174660  96.5713810  49.5202990  79.8584960  91.2003120  48.6088460
  79.7641830  90.5823870  47.8839330  79.2782350  91.9269410  48.3818370
  82.6246400  89.7576360  45.6415850  82.1763700  89.7800620  44.7961400
  81.9911600  89.3595380  46.2386150  85.3669850  96.3846870  47.6466130
  85.4866060  95.7888010  48.3860970  86.2263850  96.4216560  47.2267430
  87.7057750  96.9384060  46.2228640  87.1792970  97.4626680  45.6193780
  88.0489090  97.5711450  46.8538370  80.1044140  94.3277430  32.6678350
  79.9033200  93.4644790  33.0291690  79.9336190  94.2410790  31.7299950
  82.1338620  92.9268220  48.9041950  82.7238310  92.6184070  49.5919770
  81.3158860  92.4547970  49.0601850  86.9532050  92.5434030  49.1374970
  86.2647570  91.8815570  49.0724960  87.6738070  92.0972300  49.5823430
  87.5832450  89.1385660  35.1965230  87.8634740  88.2953560  35.5524650
  86.8098180  89.3708770  35.7103980  78.9026940  91.4278050  32.6556230
  79.2052840  91.4345480  31.7475380  79.6421530  91.0775910  33.1523890
  82.1211870  90.3712670  33.6412430  81.7733870  89.6936660  33.0614880
  82.3224640  89.9102180  34.4555820  75.4617510  96.9000320  40.0376800
  74.8066350  96.6311960  39.3936500  76.2995460  96.7904800  39.5878780
  88.4107950  91.6941610  34.2595290  88.8292830  91.5072590  33.4191950
  88.1044010  90.8420660  34.5698220  76.4993440  97.2852890  44.5780140
  76.8666480  97.1980290  45.4576160  75.9304260  96.5219440  44.4787000
  76.0509440  94.1961980  48.4838560  75.1565490  94.1628740  48.8232270
  76.5906990  94.3948770  49.2489810  89.7385370  90.9793700  50.3690310
  90.6155550  90.9877100  50.7524310  89.7506210  90.2424540  49.7582660
  74.6755590  94.1099250  35.9802130  73.7719670  94.3729450  35.8053790
  75.1596210  94.3810420  35.2002090  77.2182800  93.1664790  33.8896510
  77.9274500  92.7448010  33.4043790  76.5022740  93.2340020  33.2579860
  76.8656960  89.2204120  32.9299160  77.5885090  89.7613060  33.2480380
  77.1381480  88.9467540  32.0540700  76.5549150  88.4710310  42.8321780
  77.2025340  87.9207690  42.3916940  76.9750990  88.7253460  43.6537590
  76.3081150  88.6265980  45.5747100  75.9595970  89.0829800  46.3405280
  75.9768850  87.7323110  45.6569530  83.8205970  89.8177860  49.0966520
  83.7594860  90.4099690  49.8461930  84.7606350  89.7103820  48.9516780
  86.4580530  89.4747920  48.7358810  87.0720940  89.7927210  48.0739890
  87.0030090  88.9896510  49.3554670  76.9801790  88.1542180  48.8497870
  77.5284780  87.9730230  48.0863980  77.0457100  87.3636290  49.3854180
  87.1988570  88.0380060  45.0628100  86.3248410  88.3715170  44.8601030
  87.0899320  87.5653240  45.8879970  88.1060550  90.2450930  46.4469820
  87.7773910  89.4302690  46.0671550  89.0542850  90.2020740  46.3235510
  84.9463390  88.9549900  44.0021010  84.1635180  89.4295400  44.2817770
  84.6526320  88.0504730  43.8934190  89.4984460  89.6573000  42.0470100
  89.9392550  89.6018100  41.1991700  89.2292050  90.5731010  42.1180280
  76.2903800  89.2597380  36.5234730  77.0483160  89.3726260  35.9498760
  75.8280970  90.0966580  36.4778160  82.8317610  91.3736650  39.5137040
  82.0192120  90.9993540  39.1732920  83.3359250  90.6181730  39.8158230
  87.3342590  88.0379100  40.7520110  87.9371960  88.6099310  41.2268630
  86.5935580  88.6018540  40.5294010  78.6628950  89.7861430  35.0636700
  79.1921710  88.9991230  34.9344650  79.2957270  90.4652620  35.2972230
  80.8566790  89.5236570  38.1182090  80.2269530  88.8223880  38.2852220
  80.3171930  90.2840700  37.9015250  80.9822350  88.8020550  50.5534580
  80.7006620  89.3054150  49.7895400  81.3642050  88.0042300  50.1876710
  87.5837810  88.2174130  51.1315050  87.4703260  88.5368740  52.0266570
  88.4007550  88.6186640  50.8352330  86.4895960  96.2366600  21.4949790
  86.4090010  95.3221210  21.2241500  86.0760380  96.7333670  20.7889500
  84.6214000  98.0145620  23.3759060  83.8456100  97.5346060  23.6657630
  85.2726930  97.3351270  23.2015220  78.6379830  98.3265430  24.2534820
  77.8064710  98.0714140  24.6531330  79.2460810  98.3976200  24.9892740
  77.0471780  93.2867320  18.0377210  76.1588480  93.6283290  17.9357090
  77.3312970  93.0867640  17.1458040  75.0104790  95.8872970  23.9216910
  75.5820900  95.1195170  23.9220550  75.0106330  96.1861730  23.0123520
  76.2529660  91.2957330  25.7085840  76.0732500  90.3983080  25.9888600
  75.8509740  91.8429200  26.3832790  85.0928160  93.4973190  23.6098150
  85.4692980  92.6245070  23.4971820  84.9947670  93.8331890  22.7188590
  79.2233170  91.8698820  19.0715590  79.3299920  92.7702550  19.3784350
  78.3125530  91.8216790  18.7810240  88.8752280  90.9923630  20.5426490
  89.6961900  90.5020200  20.5851970  88.9086360  91.5821290  21.2958330
  76.8716330  93.7917830  24.3168180  77.5526440  94.0556200  24.9355580
  76.5564380  92.9518700  24.6506190  81.0640900  94.8385190  23.4040770
  81.5719120  95.3366160  24.0445790  81.5954140  94.0620390  23.2280130
  79.3477000  89.4783750  27.6704190  79.3495440  89.9956140  26.8650090
  78.5181310  89.0013930  27.6474120  89.1113760  92.9324010  23.3154030
  88.4069330  93.2208900  23.8957140  89.4725920  93.7424120  22.9553590
  79.0292330  91.1893710  25.6774640  79.3709140  92.0335760  25.3828510
  78.0908140  91.3377450  25.7939980  82.7120220  88.6775980  22.0019230
  83.0195200  88.1222870  21.2854730  81.7820920  88.8120440  21.8192220
  85.1000980  96.7424810  18.7379350  84.1730260  96.6762190  18.9667820
  85.2525800  97.6804940  18.6234590  85.0870060  93.0141810  15.7346510
  84.1473730  93.1755770  15.8198970  85.4053320  93.7327490  15.1882500
  89.1298270  98.3045110  19.2414600  88.5110690  97.9664660  18.5940900
  89.1122720  97.6604870  19.9493790  88.5724830  94.4829650  26.6580410
  88.1596010  95.3083360  26.9120400  87.8400780  93.8974690  26.4656770
  80.7057620  97.2689550  21.5199080  80.3014620  96.5566800  21.0244980
  80.7920740  96.9242790  22.4087120  79.4186240  94.0432760  25.2998120
  79.9700830  94.1528100  24.5251370  79.9329750  94.4170360  26.0153350
  87.3062970  97.5431920  16.2487350  87.7456250  96.7054350  16.1025170
  88.0191390  98.1761320  16.3351490  79.0928970  97.5652120  28.9103460
  78.9536740  98.4374920  29.2790860  78.2110330  97.2224930  28.7651400
  77.4062250  96.1634530  19.0205730  77.2859850  96.8896620  18.4087000
  77.0963140  95.3937440  18.5433640  79.8725910  89.5069600  22.4029400
  79.4294060  90.2879140  22.0713920  80.4310900  89.8299490  23.1100340
  84.1595720  92.3738120  28.0064720  83.6975090  92.5821140  28.8184660
  83.7573830  91.5597470  27.7035390  89.1600230  93.5947070  29.1361380
  88.3093820  93.2952820  29.4570450  89.0002020  93.8389080  28.2245200
  86.2549940  95.0948820  31.2360170  86.5803350  94.2612570  30.8962400
  87.0430270  95.6177340  31.3838500  82.9884730  89.1280300  17.2835230
  82.3638910  89.1240170  18.0088540  82.9014850  88.2611260  16.8871200
  81.9101810  90.0516930  24.2619000  82.2074140  90.9579760  24.1811020
  82.4587370  89.5635710  23.6478570  79.6640130  94.6303170  20.1310650
  79.4381050  94.4140340  21.0357270  78.8832660  95.0631630  19.7856620
  86.8937890  94.6366540  18.7301300  86.2946780  95.3602340  18.5464920
  87.4417500  94.5743320  17.9477750  82.1039340  95.5288750  30.7970920
  82.0082940  94.5883480  30.6471320  82.9471320  95.7503820  30.4018990
  85.5002760  93.2730080  20.7604580  85.8932330  93.5902280  19.9473270
  85.8619610  92.3941960  20.8749100  77.2349880  91.9402420  28.9504700
  76.8413270  92.7877630  29.1577480  76.5468280  91.3028790  29.1413340
  83.8094930  92.0237390  32.0201440  83.1193250  91.8309590  32.6547530
  84.5527230  92.3072030  32.5525740  74.5366930  89.8630880  22.9834780
  74.2479980  90.4333740  23.6959760  75.2812690  89.3835330  23.3466010
  74.7237160  93.8051000  14.1937500  74.6411830  94.7481760  14.3352490
  74.3720220  93.6625910  13.3149850  86.0857900  95.8635830  24.8555360
  85.3539020  96.3722640  25.2045460  85.6882240  95.0465810  24.5544140
  82.5235290  92.5390030  23.2607850  82.5271350  92.0979980  22.4112390
  83.4186410  92.8607360  23.3679670  78.3737670  92.4216520  22.2202060
  78.0337720  92.8991750  22.9769110  77.6114990  91.9681640  21.8603160
  82.5855440  93.5402110  16.2514610  82.7068260  93.4988590  17.2000430
  82.2003950  94.4026260  16.0961340  86.5483810  91.3169510  24.2678300
  86.5656550  91.7678160  25.1120150  86.2999390  90.4175150  24.4811740
  81.5976940  95.8503250  15.6497910  81.0293840  95.4021500  15.0233820
  82.3065940  96.2096030  15.1163060  89.9754560  88.7301690  30.1064680
  90.3000330  87.9991350  30.6322660  90.0111070  88.4115330  29.2045670
  82.8243260  96.5991810  25.0073260  83.1913390  96.1250380  25.7534600
  82.6348320  97.4733380  25.3481600  75.6883750  91.3435500  21.1366730
  75.4030670  90.9791170  21.9745350  75.6262610  90.6115960  20.5229870
  80.6142630  95.6400450  27.3257470  80.3099700  96.5192430  27.5507830
  81.5689090  95.7000240  27.3614910  85.3622340  90.2364760  17.8580100
  84.5486950  89.7377930  17.7825410  85.1684290  91.0763010  17.4416450
  88.0770730  94.6084410  16.1542260  88.9650350  94.9201640  15.9793600
  88.0475820  93.7356660  15.7622840  76.6706360  96.4803190  28.4728830
  76.3121300  97.1457040  29.0602170  76.3760920  95.6486740  28.8441450
  79.8719480  96.9387430  31.3568380  79.5719620  97.0844610  30.4596200
  80.6430720  96.3792720  31.2641770  75.1814410  96.4794450  15.0963430
  76.0509260  96.7619250  15.3799350  74.6904730  97.2930320  14.9812240
  82.3449220  97.8667660  19.2171710  82.8012000  98.6772910  19.4431900
  81.9937430  97.5490800  20.0490200  78.2461000  88.2105310  19.6894230
  78.1175630  88.2023210  20.6379150  77.4223020  88.5488400  19.3385240
  75.2454930  89.9696430  29.1500930  74.5313450  90.1693350  29.7553540
  75.6649970  89.1936000  29.5215730  86.7393710  92.4618740  26.9002380
  87.1074530  91.6413950  27.2281950  85.8791910  92.5220630  27.3158030
  90.1055740  91.4175680  17.7089940  89.4768900  91.5221350  16.9948170
  89.6107660  91.6372460  18.4983820  82.0739770  93.6961630  19.1247820
  81.3655920  94.1647970  19.5661430  82.3584250  93.0383640  19.7593010
  83.6995700  95.1158330  27.1240350  84.1980950  95.5904150  27.7892200
  83.8418650  94.1921850  27.3310380  86.1055200  90.4212290  20.5643610
  85.9822980  90.4398420  19.6153120  87.0539760  90.4691230  20.6842010
  80.2774790  92.0046710  16.4998530  81.1265320  92.4416860  16.4338720
  79.9106060  92.3166970  17.3270590  89.1984570  96.5759470  21.4130100
  88.2574710  96.5909700  21.5877790  89.5128640  95.7895430  21.8590400
  79.1766210  98.2579070  14.9734060  79.9429480  98.1460430  15.5359490
  79.2540900  97.5617040  14.3210830  77.8712970  95.6904140  15.6566950
  77.9516560  94.7431650  15.7684350  78.7632720  96.0211020  15.7627610
  75.3983770  97.5119060  30.8923120  75.9022790  96.9326340  31.4639350
  74.6591190  97.7959290  31.4299490  77.4306850  95.6548650  31.7873190
  77.4712190  95.3562520  32.6958420  78.2852350  96.0556260  31.6280710
  81.2085240  98.2544200  16.9476700  81.6301660  98.0884070  17.7908090
  81.3336080  97.4444430  16.4531840  79.3712660  94.2340750  29.7547680
  78.8409120  93.7431700  29.1271020  80.0400730  94.6624950  29.2205610
  83.7212880  97.2781810  14.1953800  84.2418540  96.5630830  13.8294950
  84.3681280  97.9167680  14.4954310  88.7412890  96.0406370  31.5228020
  89.3233660  95.2858690  31.4348500  88.9174660  96.5713810  30.7459500
  79.8584960  91.2003120  29.8344970  79.7641830  90.5823870  29.1095840
  79.2782350  91.9269410  29.6074880  82.6246400  89.7576360  26.8672360
  82.1763700  89.7800620  26.0217910  81.9911600  89.3595380  27.4642660
  85.3669850  96.3846870  28.8722640  85.4866060  95.7888010  29.6117480
  86.2263850  96.4216560  28.4523940  87.7057750  96.9384060  27.4485150
  87.1792970  97.4626680  26.8450290  88.0489090  97.5711450  28.0794880
  80.1044140  94.3277430  13.8934860  79.9033200  93.4644790  14.2548200
  79.9336190  94.2410790  12.9556460  82.1338620  92.9268220  30.1298460
  82.7238310  92.6184070  30.8176280  81.3158860  92.4547970  30.2858360
  86.9532050  92.5434030  30.3631480  86.2647570  91.8815570  30.2981470
  87.6738070  92.0972300  30.8079940  87.5832450  89.1385660  16.4221740
  87.8634740  88.2953560  16.7781160  86.8098180  89.3708770  16.9360490
  78.9026940  91.4278050  13.8812740  79.2052840  91.4345480  12.9731890
  79.6421530  91.0775910  14.3780400  82.1211870  90.3712670  14.8668940
  81.7733870  89.6936660  14.2871390  82.3224640  89.9102180  15.6812330
  75.4617510  96.9000320  21.2633310  74.8066350  96.6311960  20.6193010
  76.2995460  96.7904800  20.8135290  88.4107950  91.6941610  15.4851800
  88.8292830  91.5072590  14.6448460  88.1044010  90.8420660  15.7954730
  76.4993440  97.2852890  25.8036650  76.8666480  97.1980290  26.6832670
  75.9304260  96.5219440  25.7043510  76.0509440  94.1961980  29.7095070
  75.1565490  94.1628740  30.0488780  76.5906990  94.3948770  30.4746320
  89.7385370  90.9793700  31.5946820  90.6155550  90.9877100  31.9780820
  89.7506210  90.2424540  30.9839170  74.6755590  94.1099250  17.2058640
  73.7719670  94.3729450  17.0310300  75.1596210  94.3810420  16.4258600
  77.2182800  93.1664790  15.1153020  77.9274500  92.7448010  14.6300300
  76.5022740  93.2340020  14.4836370  76.8656960  89.2204120  14.1555670
  77.5885090  89.7613060  14.4736890  77.1381480  88.9467540  13.2797210
  76.5549150  88.4710310  24.0578290  77.2025340  87.9207690  23.6173450
  76.9750990  88.7253460  24.8794100  76.3081150  88.6265980  26.8003610
  75.9595970  89.0829800  27.5661790  75.9768850  87.7323110  26.8826040
  83.8205970  89.8177860  30.3223030  83.7594860  90.4099690  31.0718440
  84.7606350  89.7103820  30.1773290  86.4580530  89.4747920  29.9615320
  87.0720940  89.7927210  29.2996400  87.0030090  88.9896510  30.5811180
  76.9801790  88.1542180  30.0754380  77.5284780  87.9730230  29.3120490
  77.0457100  87.3636290  30.6110690  87.1988570  88.0380060  26.2884610
  86.3248410  88.3715170  26.0857540  87.0899320  87.5653240  27.1136480
  88.1060550  90.2450930  27.6726330  87.7773910  89.4302690  27.2928060
  89.0542850  90.2020740  27.5492020  84.9463390  88.9549900  25.2277520
  84.1635180  89.4295400  25.5074280  84.6526320  88.0504730  25.1190700
  89.4984460  89.6573000  23.2726610  89.9392550  89.6018100  22.4248210
  89.2292050  90.5731010  23.3436790  76.2903800  89.2597380  17.7491240
  77.0483160  89.3726260  17.1755270  75.8280970  90.0966580  17.7034670
  82.8317610  91.3736650  20.7393550  82.0192120  90.9993540  20.3989430
  83.3359250  90.6181730  21.0414740  87.3342590  88.0379100  21.9776620
  87.9371960  88.6099310  22.4525140  86.5935580  88.6018540  21.7550520
  78.6628950  89.7861430  16.2893210  79.1921710  88.9991230  16.1601160
  79.2957270  90.4652620  16.5228740  80.8566790  89.5236570  19.3438600
  80.2269530  88.8223880  19.5108730  80.3171930  90.2840700  19.1271760
  80.9822350  88.8020550  31.7791090  80.7006620  89.3054150  31.0151910
  81.3642050  88.0042300  31.4133220  87.5837810  88.2174130  32.3571560
  87.4703260  88.5368740  33.2523080  88.4007550  88.6186640  32.0608840
  86.4895960  96.2366600   2.7206300  86.4090010  95.3221210   2.4498010
  86.0760380  96.7333670   2.0146010  84.6214000  98.0145620   4.6015570
  83.8456100  97.5346060   4.8914140  85.2726930  97.3351270   4.4271730
  78.6379830  98.3265430   5.4791330  77.8064710  98.0714140   5.8787840
  79.2460810  98.3976200   6.2149250  75.0104790  95.8872970   5.1473420
  75.5820900  95.1195170   5.1477060  75.0106330  96.1861730   4.2380030
  76.2529660  91.2957330   6.9342350  76.0732500  90.3983080   7.2145110
  75.8509740  91.8429200   7.6089300  85.0928160  93.4973190   4.8354660
  85.4692980  92.6245070   4.7228330  84.9947670  93.8331890   3.9445100
  88.8752280  90.9923630   1.7683000  89.6961900  90.5020200   1.8108480
  88.9086360  91.5821290   2.5214840  76.8716330  93.7917830   5.5424690
  77.5526440  94.0556200   6.1612090  76.5564380  92.9518700   5.8762700
  81.0640900  94.8385190   4.6297280  81.5719120  95.3366160   5.2702300
  81.5954140  94.0620390   4.4536640  79.3477000  89.4783750   8.8960700
  79.3495440  89.9956140   8.0906600  78.5181310  89.0013930   8.8730630
  89.1113760  92.9324010   4.5410540  88.4069330  93.2208900   5.1213650
  89.4725920  93.7424120   4.1810100  79.0292330  91.1893710   6.9031150
  79.3709140  92.0335760   6.6085020  78.0908140  91.3377450   7.0196490
  82.7120220  88.6775980   3.2275740  83.0195200  88.1222870   2.5111240
  81.7820920  88.8120440   3.0448730  88.5724830  94.4829650   7.8836920
  88.1596010  95.3083360   8.1376910  87.8400780  93.8974690   7.6913280
  80.7057620  97.2689550   2.7455590  80.3014620  96.5566800   2.2501490
  80.7920740  96.9242790   3.6343630  79.4186240  94.0432760   6.5254630
  79.9700830  94.1528100   5.7507880  79.9329750  94.4170360   7.2409860
  79.0928970  97.5652120  10.1359970  78.9536740  98.4374920  10.5047370
  78.2110330  97.2224930   9.9907910  79.8725910  89.5069600   3.6285910
  79.4294060  90.2879140   3.2970430  80.4310900  89.8299490   4.3356850
  84.1595720  92.3738120   9.2321230  83.6975090  92.5821140  10.0441170
  83.7573830  91.5597470   8.9291900  89.1600230  93.5947070  10.3617890
  88.3093820  93.2952820  10.6826960  89.0002020  93.8389080   9.4501710
  86.2549940  95.0948820  12.4616680  86.5803350  94.2612570  12.1218910
  87.0430270  95.6177340  12.6095010  81.9101810  90.0516930   5.4875510
  82.2074140  90.9579760   5.4067530  82.4587370  89.5635710   4.8735080
  82.1039340  95.5288750  12.0227430  82.0082940  94.5883480  11.8727830
  82.9471320  95.7503820  11.6275500  77.2349880  91.9402420  10.1761210
  76.8413270  92.7877630  10.3833990  76.5468280  91.3028790  10.3669850
  83.8094930  92.0237390  13.2457950  83.1193250  91.8309590  13.8804040
  84.5527230  92.3072030  13.7782250  74.5366930  89.8630880   4.2091290
  74.2479980  90.4333740   4.9216270  75.2812690  89.3835330   4.5722520
  86.0857900  95.8635830   6.0811870  85.3539020  96.3722640   6.4301970
  85.6882240  95.0465810   5.7800650  82.5235290  92.5390030   4.4864360
  82.5271350  92.0979980   3.6368900  83.4186410  92.8607360   4.5936180
  78.3737670  92.4216520   3.4458570  78.0337720  92.8991750   4.2025620
  77.6114990  91.9681640   3.0859670  86.5483810  91.3169510   5.4934810
  86.5656550  91.7678160   6.3376660  86.2999390  90.4175150   5.7068250
  89.9754560  88.7301690  11.3321190  90.3000330  87.9991350  11.8579170
  90.0111070  88.4115330  10.4302180  82.8243260  96.5991810   6.2329770
  83.1913390  96.1250380   6.9791110  82.6348320  97.4733380   6.5738110
  75.6883750  91.3435500   2.3623240  75.4030670  90.9791170   3.2001860
  75.6262610  90.6115960   1.7486380  80.6142630  95.6400450   8.5513980
  80.3099700  96.5192430   8.7764340  81.5689090  95.7000240   8.5871420
  76.6706360  96.4803190   9.6985340  76.3121300  97.1457040  10.2858680
  76.3760920  95.6486740  10.0697960  79.8719480  96.9387430  12.5824890
  79.5719620  97.0844610  11.6852710  80.6430720  96.3792720  12.4898280
  75.2454930  89.9696430  10.3757440  74.5313450  90.1693350  10.9810050
  75.6649970  89.1936000  10.7472240  86.7393710  92.4618740   8.1258890
  87.1074530  91.6413950   8.4538460  85.8791910  92.5220630   8.5414540
  83.6995700  95.1158330   8.3496860  84.1980950  95.5904150   9.0148710
  83.8418650  94.1921850   8.5566890  89.1984570  96.5759470   2.6386610
  88.2574710  96.5909700   2.8134300  89.5128640  95.7895430   3.0846910
  75.3983770  97.5119060  12.1179630  75.9022790  96.9326340  12.6895860
  74.6591190  97.7959290  12.6556000  77.4306850  95.6548650  13.0129700
  77.4712190  95.3562520  13.9214930  78.2852350  96.0556260  12.8537220
  79.3712660  94.2340750  10.9804190  78.8409120  93.7431700  10.3527530
  80.0400730  94.6624950  10.4462120  88.7412890  96.0406370  12.7484530
  89.3233660  95.2858690  12.6605010  88.9174660  96.5713810  11.9716010
  79.8584960  91.2003120  11.0601480  79.7641830  90.5823870  10.3352350
  79.2782350  91.9269410  10.8331390  82.6246400  89.7576360   8.0928870
  82.1763700  89.7800620   7.2474420  81.9911600  89.3595380   8.6899170
  85.3669850  96.3846870  10.0979150  85.4866060  95.7888010  10.8373990
  86.2263850  96.4216560   9.6780450  87.7057750  96.9384060   8.6741660
  87.1792970  97.4626680   8.0706800  88.0489090  97.5711450   9.3051390
  82.1338620  92.9268220  11.3554970  82.7238310  92.6184070  12.0432790
  81.3158860  92.4547970  11.5114870  86.9532050  92.5434030  11.5887990
  86.2647570  91.8815570  11.5237980  87.6738070  92.0972300  12.0336450
  75.4617510  96.9000320   2.4889820  74.8066350  96.6311960   1.8449520
  76.2995460  96.7904800   2.0391800  76.4993440  97.2852890   7.0293160
  76.8666480  97.1980290   7.9089180  75.9304260  96.5219440   6.9300020
  76.0509440  94.1961980  10.9351580  75.1565490  94.1628740  11.2745290
  76.5906990  94.3948770  11.7002830  89.7385370  90.9793700  12.8203330
  90.6155550  90.9877100  13.2037330  89.7506210  90.2424540  12.2095680
  76.5549150  88.4710310   5.2834800  77.2025340  87.9207690   4.8429960
  76.9750990  88.7253460   6.1050610  76.3081150  88.6265980   8.0260120
  75.9595970  89.0829800   8.7918300  75.9768850  87.7323110   8.1082550
  83.8205970  89.8177860  11.5479540  83.7594860  90.4099690  12.2974950
  84.7606350  89.7103820  11.4029800  86.4580530  89.4747920  11.1871830
  87.0720940  89.7927210  10.5252910  87.0030090  88.9896510  11.8067690
  76.9801790  88.1542180  11.3010890  77.5284780  87.9730230  10.5377000
  77.0457100  87.3636290  11.8367200  87.1988570  88.0380060   7.5141120
  86.3248410  88.3715170   7.3114050  87.0899320  87.5653240   8.3392990
  88.1060550  90.2450930   8.8982840  87.7773910  89.4302690   8.5184570
  89.0542850  90.2020740   8.7748530  84.9463390  88.9549900   6.4534030
  84.1635180  89.4295400   6.7330790  84.6526320  88.0504730   6.3447210
  89.4984460  89.6573000   4.4983120  89.9392550  89.6018100   3.6504720
  89.2292050  90.5731010   4.5693300  82.8317610  91.3736650   1.9650060
  82.0192120  90.9993540   1.6245940  83.3359250  90.6181730   2.2671250
  87.3342590  88.0379100   3.2033130  87.9371960  88.6099310   3.6781650
  86.5935580  88.6018540   2.9807030  80.9822350  88.8020550  13.0047600
  80.7006620  89.3054150  12.2408420  81.3642050  88.0042300  12.6389730
  87.5837810  88.2174130  13.5828070  87.4703260  88.5368740  14.4779590
  88.4007550  88.6186640  13.2865350  86.4895960  77.4623110  59.0436770
  86.4090010  76.5477720  58.7728480  86.0760380  77.9590180  58.3376480
  84.6214000  79.2402130  60.9246040  83.8456100  78.7602570  61.2144610
  85.2726930  78.5607780  60.7502200  78.6379830  79.5521940  61.8021800
  77.8064710  79.2970650  62.2018310  79.2460810  79.6232710  62.5379720
  88.6421430  83.6462320  59.7045170  88.1802960  82.8749560  60.0332340
  89.4546980  83.6728390  60.2097620  78.6181090  83.5862030  61.9979820
  78.9209130  82.6959770  61.8190040  79.3624680  84.1432250  61.7702070
  77.0471780  74.5123830  55.5864190  76.1588480  74.8539800  55.4844070
  77.3312970  74.3124150  54.6945020  75.0104790  77.1129480  61.4703890
  75.5820900  76.3451680  61.4707530  75.0106330  77.4118240  60.5610500
  84.8684740  85.9320330  59.3249160  84.2496180  86.3877830  58.7543600
  85.7236520  86.0871790  58.9238860  84.0622990  81.9159320  60.9316200
  83.9931270  80.9749260  60.7705330  84.8242850  82.0060730  61.5038770
  85.0928160  74.7229700  61.1585130  85.4692980  73.8501580  61.0458800
  84.9947670  75.0588400  60.2675570  79.2233170  73.0955330  56.6202570
  79.3299920  73.9959060  56.9271330  78.3125530  73.0473300  56.3297220
  88.8752280  72.2180140  58.0913470  89.6961900  71.7276710  58.1338950
  88.9086360  72.8077800  58.8445310  76.8716330  75.0174340  61.8655160
  77.5526440  75.2812710  62.4842560  76.5564380  74.1775210  62.1993170
  81.0640900  76.0641700  60.9527750  81.5719120  76.5622670  61.5932770
  81.5954140  75.2876900  60.7767110  85.7348090  80.8159570  56.7181070
  85.1165360  81.2809020  56.1543790  86.2471340  81.5087050  57.1350580
  89.1113760  74.1580520  60.8641010  88.4069330  74.4465410  61.4444120
  89.4725920  74.9680630  60.5040570  79.0292330  72.4150220  63.2261620
  79.3709140  73.2592270  62.9315490  78.0908140  72.5633960  63.3426960
  75.1031290  81.5016100  54.0920700  74.7259270  81.9903200  53.3605600
  75.3604360  82.1741380  54.7227230  82.7120220  69.9032490  59.5506210
  83.0195200  69.3479380  58.8341710  81.7820920  70.0376950  59.3679200
  88.2635280  85.6199780  61.8413670  88.2762440  85.2162070  60.9735930
  87.7110500  86.3947070  61.7375100  89.5580700  82.3416000  56.9303840
  89.4477030  81.3990330  57.0553260  89.5548950  82.7031640  57.8166600
  85.1000980  77.9681320  56.2866330  84.1730260  77.9018700  56.5154800
  85.2525800  78.9061450  56.1721570  85.0870060  74.2398320  53.2833490
  84.1473730  74.4012280  53.3685950  85.4053320  74.9584000  52.7369480
  89.1298270  79.5301620  56.7901580  88.5110690  79.1921170  56.1427880
  89.1122720  78.8861380  57.4980770  80.7057620  78.4946060  59.0686060
  80.3014620  77.7823310  58.5731960  80.7920740  78.1499300  59.9574100
  81.1739320  82.1813620  61.2325270  80.8767610  81.5759090  60.5533050
  82.1239140  82.2190930  61.1214630  87.3062970  78.7688430  53.7974330
  87.7456250  77.9310860  53.6512150  88.0191390  79.4017830  53.8838470
  85.4158350  83.7084500  57.7655570  85.8554260  84.4508830  57.3510960
  85.3545240  83.9511070  58.6894530  77.4062250  77.3891040  56.5692710
  77.2859850  78.1153130  55.9573980  77.0963140  76.6193950  56.0920620
  75.0447620  80.5606180  62.3761350  75.1228040  80.6954950  61.4317070
  75.6589300  79.8522070  62.5689470  76.2895250  82.2606370  58.7867530
  75.8823330  82.4020960  57.9321130  77.1808260  81.9766530  58.5838740
  88.0828530  86.6953620  55.1218580  87.9229670  86.4056560  56.0200410
  87.9175240  85.9193750  54.5863810  80.5616910  86.4752150  56.8990200
  80.3859390  85.5587690  56.6858000  79.7072650  86.8339440  57.1388000
  87.7854660  84.2041180  53.6816580  87.0919820  84.2018470  53.0218860
  88.5277520  83.7800500  53.2510750  87.3504590  85.8303890  57.7565070
  87.8061540  85.0493270  58.0703690  87.6897110  86.5410710  58.3006250
  79.8725910  70.7326110  59.9516380  79.4294060  71.5135650  59.6200900
  80.4310900  71.0556000  60.6587320  82.9884730  70.3536810  54.8322210
  82.3638910  70.3496680  55.5575520  82.9014850  69.4867770  54.4358180
  81.9101810  71.2773440  61.8105980  82.2074140  72.1836270  61.7298000
  82.4587370  70.7892220  61.1965550  79.6640130  75.8559680  57.6797630
  79.4381050  75.6396850  58.5844250  78.8832660  76.2888140  57.3343600
  86.8937890  75.8623050  56.2788280  86.2946780  76.5858850  56.0951900
  87.4417500  75.7999830  55.4964730  85.5002760  74.4986590  58.3091560
  85.8932330  74.8158790  57.4960250  85.8619610  73.6198470  58.4236080
  74.5366930  71.0887390  60.5321760  74.2479980  71.6590250  61.2446740
  75.2812690  70.6091840  60.8952990  74.7237160  75.0307510  51.7424480
  74.6411830  75.9738270  51.8839470  74.3720220  74.8882420  50.8636830
  86.0857900  77.0892340  62.4042340  85.3539020  77.5979150  62.7532440
  85.6882240  76.2722320  62.1031120  82.5235290  73.7646540  60.8094830
  82.5271350  73.3236490  59.9599370  83.4186410  74.0863870  60.9166650
  78.3737670  73.6473030  59.7689040  78.0337720  74.1248260  60.5256090
  77.6114990  73.1938150  59.4090140  82.5855440  74.7658620  53.8001590
  82.7068260  74.7245100  54.7487410  82.2003950  75.6282770  53.6448320
  86.5483810  72.5426020  61.8165280  86.5656550  72.9934670  62.6607130
  86.2999390  71.6431660  62.0298720  81.5976940  77.0759760  53.1984890
  81.0293840  76.6278010  52.5720800  82.3065940  77.4352540  52.6650040
  82.8243260  77.8248320  62.5560240  83.1913390  77.3506890  63.3021580
  82.6348320  78.6989890  62.8968580  75.6883750  72.5692010  58.6853710
  75.4030670  72.2047680  59.5232330  75.6262610  71.8372470  58.0716850
  79.1424420  81.0717950  55.4711300  78.3686680  80.5315570  55.3110020
  79.8719050  80.5524560  55.1329060  89.9012400  80.0683310  61.2637690
  90.6211520  80.5638600  60.8733800  89.6994220  79.3901200  60.6191560
  85.3622340  71.4621270  55.4067080  84.5486950  70.9634440  55.3312390
  85.1684290  72.3019520  54.9903430  88.0770730  75.8340920  53.7029240
  88.9650350  76.1458150  53.5280580  88.0475820  74.9613170  53.3109820
  79.1861820  80.7398330  59.1090110  79.7040490  79.9366590  59.0547000
  78.7345840  80.6777470  59.9506940  84.0731320  82.0064610  54.3817410
  84.4147020  82.7506840  53.8860730  83.2444030  82.3195730  54.7442240
  86.9558730  81.3280450  59.7462920  87.3082550  80.7308580  59.0864290
  86.0721060  81.0024680  59.9171170  83.0422010  82.0878140  57.1533330
  83.7293140  82.6347350  57.5340920  82.2554430  82.6318870  57.1882940
  75.1814410  77.7050960  52.6450410  76.0509260  77.9875760  52.9286330
  74.6904730  78.5186830  52.5299220  82.3449220  79.0924170  56.7658690
  82.8012000  79.9029420  56.9918880  81.9937430  78.7747310  57.5977180
  78.2461000  69.4361820  57.2381210  78.1175630  69.4279720  58.1866130
  77.4223020  69.7744910  56.8872220  85.9213910  82.6062860  62.7128440
  86.5636140  81.9056020  62.8260610  86.4463260  83.3861300  62.5325330
  89.7669630  82.8911480  52.4367580  89.5407210  82.1741920  53.0292220
  89.3765830  82.6423920  51.5989330  75.5485660  86.9178340  53.2112040
  75.9083300  87.5167680  52.5569310  75.4078000  87.4638230  53.9847070
  89.3485880  80.8083420  54.0981740  89.0607580  81.2696110  54.8859620
  90.1438050  80.3481190  54.3665960  81.5654280  84.3009540  54.0285710
  81.5564380  85.0339230  53.4130220  80.6452640  84.0541120  54.1212670
  77.1660920  79.5224430  54.7732470  76.5588870  80.2623330  54.7827770
  77.6410270  79.6123790  53.9470670  90.1055740  72.6432190  55.2576920
  89.4768900  72.7477860  54.5435150  89.6107660  72.8628970  56.0470800
  84.5513880  84.3637780  52.6910900  84.6525860  84.1601770  51.7612880
  83.6515620  84.1096060  52.8958680  82.0739770  74.9218140  56.6734800
  81.3655920  75.3904480  57.1148410  82.3584250  74.2640150  57.3079990
  86.1055200  71.6468800  58.1130590  85.9822980  71.6654930  57.1640100
  87.0539760  71.6947740  58.2328990  83.1931990  86.8824100  57.3858570
  83.4473490  86.8445490  56.4637940  82.2444470  86.7557430  57.3786820
  80.2774790  73.2303220  54.0485510  81.1265320  73.6673370  53.9825700
  79.9106060  73.5423480  54.8757570  89.1984570  77.8015980  58.9617080
  88.2574710  77.8166210  59.1364770  89.5128640  77.0151940  59.4077380
  79.1766210  79.4835580  52.5221040  79.9429480  79.3716940  53.0846470
  79.2540900  78.7873550  51.8697810  77.8712970  76.9160650  53.2053930
  77.9516560  75.9688160  53.3171330  78.7632720  77.2467530  53.3114590
  78.6727680  87.0656040  60.3088470  79.4090160  86.5171500  60.5797040
  79.0568600  87.9312050  60.1694460  75.5573160  83.1329610  56.1829980
  74.6312940  83.3750750  56.1735390  76.0229590  83.9603870  56.0614730
  81.7829990  86.2386350  52.1314040  82.5758600  86.5275180  51.6795830
  81.2634340  85.8078520  51.4526520  82.3007390  81.4589760  51.9956390
  82.1958030  80.8442110  52.7217770  82.1331610  80.9355650  51.2119400
  85.5410120  80.5209790  52.5998380  84.9920220  80.9679090  53.2441120
  86.1629380  80.0159040  53.1236050  81.2085240  79.4800710  54.4963680
  81.6301660  79.3140580  55.3395070  81.3336080  78.6700940  54.0018820
  83.7212880  78.5038320  51.7440780  84.2418540  77.7887340  51.3781930
  84.3681280  79.1424190  52.0441290  80.1044140  75.5533940  51.4421840
  79.9033200  74.6901300  51.8035180  79.9336190  75.4667300  50.5043440
  87.5832450  70.3642170  53.9708720  87.8634740  69.5210070  54.3268140
  86.8098180  70.5965280  54.4847470  78.9026940  72.6534560  51.4299720
  79.2052840  72.6601990  50.5218870  79.6421530  72.3032420  51.9267380
  82.1211870  71.5969180  52.4155920  81.7733870  70.9193170  51.8358370
  82.3224640  71.1358690  53.2299310  84.2860910  86.5849930  54.0342520
  85.1811700  86.9234900  54.0561280  84.3178540  85.8629340  53.4066800
  77.9257070  81.9576980  52.2629520  78.3631940  82.5006650  52.9187100
  78.4104800  81.1323930  52.2725860  75.1402870  84.7466010  59.7149780
  75.4705880  83.8787070  59.4828420  75.5693870  84.9524530  60.5454740
  79.7364790  83.0775020  57.3751750  79.4360330  82.9539990  58.2755660
  79.6302280  82.2183610  56.9667480  75.6293080  85.6136600  62.4531410
  75.1924070  85.7937400  63.2855560  76.1970760  86.3711220  62.3113130
  75.4617510  78.1256830  58.8120290  74.8066350  77.8568470  58.1679990
  76.2995460  78.0161310  58.3622270  88.4107950  72.9198120  53.0338780
  88.8292830  72.7329100  52.1935440  88.1044010  72.0677170  53.3441710
  74.6755590  75.3355760  54.7545620  73.7719670  75.5985960  54.5797280
  75.1596210  75.6066930  53.9745580  77.2182800  74.3921300  52.6640000
  77.9274500  73.9704520  52.1787280  76.5022740  74.4596530  52.0323350
  76.8656960  70.4460630  51.7042650  77.5885090  70.9869570  52.0223870
  77.1381480  70.1724050  50.8284190  76.5549150  69.6966820  61.6065270
  77.2025340  69.1464200  61.1660430  76.9750990  69.9509970  62.4281080
  90.0082950  86.5924180  58.3653150  90.6042020  86.2708750  57.6887570
  90.2661100  86.1196000  59.1566420  90.5595160  87.2419480  62.1950880
  90.0998130  87.9935290  61.8208900  89.9307620  86.5225950  62.1365680
  80.9890880  85.5507720  61.3699010  81.5055900  84.9395080  60.8447270
  81.6388260  86.0536500  61.8610020  83.7286380  86.4416210  62.1967990
  84.0164190  86.1870510  61.3201000  84.2409600  85.8893570  62.7873560
  84.9463390  70.1806410  62.7764500  84.1635180  70.6551910  63.0561260
  84.6526320  69.2761240  62.6677680  89.4984460  70.8829510  60.8213590
  89.9392550  70.8274610  59.9735190  89.2292050  71.7987520  60.8923770
  75.6675780  86.6537110  57.7946360  75.4997820  86.0207790  58.4928250
  74.8010290  86.8596510  57.4440550  76.2903800  70.4853890  55.2978220
  77.0483160  70.5982770  54.7242250  75.8280970  71.3223090  55.2521650
  82.8317610  72.5993160  58.2880530  82.0192120  72.2250050  57.9476410
  83.3359250  71.8438240  58.5901720  87.3342590  69.2635610  59.5263600
  87.9371960  69.8355820  60.0012120  86.5935580  69.8275050  59.3037500
  77.2738480  85.3470340  55.2396500  76.7486100  85.7278370  54.5358460
  77.1983060  85.9721110  55.9606210  78.6628950  71.0117940  53.8380190
  79.1921710  70.2247740  53.7088140  79.2957270  71.6909130  54.0715720
  80.8566790  70.7493080  56.8925580  80.2269530  70.0480390  57.0595710
  80.3171930  71.5097210  56.6758740  79.8731450  87.2952720  54.1145750
  80.6050270  87.0112000  53.5669640  80.1325120  87.0566000  55.0045130
  79.0346240  83.4117450  54.1192080  78.4055120  83.8802550  54.6677910
  79.1494070  82.5666670  54.5538270  86.4895960  77.4623110  40.2693280
  86.4090010  76.5477720  39.9984990  86.0760380  77.9590180  39.5632990
  84.6214000  79.2402130  42.1502550  83.8456100  78.7602570  42.4401120
  85.2726930  78.5607780  41.9758710  78.6379830  79.5521940  43.0278310
  77.8064710  79.2970650  43.4274820  79.2460810  79.6232710  43.7636230
  88.6421430  83.6462320  40.9301680  88.1802960  82.8749560  41.2588850
  89.4546980  83.6728390  41.4354130  78.6181090  83.5862030  43.2236330
  78.9209130  82.6959770  43.0446550  79.3624680  84.1432250  42.9958580
  77.0471780  74.5123830  36.8120700  76.1588480  74.8539800  36.7100580
  77.3312970  74.3124150  35.9201530  75.0104790  77.1129480  42.6960400
  75.5820900  76.3451680  42.6964040  75.0106330  77.4118240  41.7867010
  84.8684740  85.9320330  40.5505670  84.2496180  86.3877830  39.9800110
  85.7236520  86.0871790  40.1495370  84.0622990  81.9159320  42.1572710
  83.9931270  80.9749260  41.9961840  84.8242850  82.0060730  42.7295280
  76.2529660  72.5213840  44.4829330  76.0732500  71.6239590  44.7632090
  75.8509740  73.0685710  45.1576280  85.0928160  74.7229700  42.3841640
  85.4692980  73.8501580  42.2715310  84.9947670  75.0588400  41.4932080
  79.2233170  73.0955330  37.8459080  79.3299920  73.9959060  38.1527840
  78.3125530  73.0473300  37.5553730  88.8752280  72.2180140  39.3169980
  89.6961900  71.7276710  39.3595460  88.9086360  72.8077800  40.0701820
  76.8716330  75.0174340  43.0911670  77.5526440  75.2812710  43.7099070
  76.5564380  74.1775210  43.4249680  81.0640900  76.0641700  42.1784260
  81.5719120  76.5622670  42.8189280  81.5954140  75.2876900  42.0023620
  79.3477000  70.7040260  46.4447680  79.3495440  71.2212650  45.6393580
  78.5181310  70.2270440  46.4217610  85.7348090  80.8159570  37.9437580
  85.1165360  81.2809020  37.3800300  86.2471340  81.5087050  38.3607090
  80.5979850  80.3435440  44.6221180  80.2649230  80.9704360  45.2642250
  80.7746530  80.8697320  43.8422850  89.1113760  74.1580520  42.0897520
  88.4069330  74.4465410  42.6700630  89.4725920  74.9680630  41.7297080
  79.0292330  72.4150220  44.4518130  79.3709140  73.2592270  44.1572000
  78.0908140  72.5633960  44.5683470  79.8098950  82.3116240  46.4370360
  80.4272950  82.9867320  46.1554810  78.9492070  82.7204220  46.3457860
  75.1031290  81.5016100  35.3177210  74.7259270  81.9903200  34.5862110
  75.3604360  82.1741380  35.9483740  82.7120220  69.9032490  40.7762720
  83.0195200  69.3479380  40.0598220  81.7820920  70.0376950  40.5935710
  88.2635280  85.6199780  43.0670180  88.2762440  85.2162070  42.1992440
  87.7110500  86.3947070  42.9631610  89.5580700  82.3416000  38.1560350
  89.4477030  81.3990330  38.2809770  89.5548950  82.7031640  39.0423110
  87.6620720  80.5229620  44.3952790  88.0789510  80.3089730  43.5606250
  88.3860540  80.7802410  44.9661410  85.1000980  77.9681320  37.5122840
  84.1730260  77.9018700  37.7411310  85.2525800  78.9061450  37.3978080
  85.0870060  74.2398320  34.5090000  84.1473730  74.4012280  34.5942460
  85.4053320  74.9584000  33.9625990  89.1298270  79.5301620  38.0158090
  88.5110690  79.1921170  37.3684390  89.1122720  78.8861380  38.7237280
  88.5724830  75.7086160  45.4323900  88.1596010  76.5339870  45.6863890
  87.8400780  75.1231200  45.2400260  80.7057620  78.4946060  40.2942570
  80.3014620  77.7823310  39.7988470  80.7920740  78.1499300  41.1830610
  81.1739320  82.1813620  42.4581780  80.8767610  81.5759090  41.7789560
  82.1239140  82.2190930  42.3471140  79.4186240  75.2689270  44.0741610
  79.9700830  75.3784610  43.2994860  79.9329750  75.6426870  44.7896840
  89.2624930  85.7545490  46.1204880  88.7855490  86.5617680  45.9277490
  88.5786720  85.1023820  46.2731090  80.2657750  81.9195310  49.1089580
  79.3686280  82.1435280  49.3562980  80.2910620  82.0430250  48.1600980
  87.3062970  78.7688430  35.0230840  87.7456250  77.9310860  34.8768660
  88.0191390  79.4017830  35.1094980  79.0928970  78.7908630  47.6846950
  78.9536740  79.6631430  48.0534350  78.2110330  78.4481440  47.5394890
  85.4158350  83.7084500  38.9912080  85.8554260  84.4508830  38.5767470
  85.3545240  83.9511070  39.9151040  80.8909320  84.7330330  49.8932100
  80.8624750  85.1373280  49.0260530  80.7274290  83.8040690  49.7303700
  77.4062250  77.3891040  37.7949220  77.2859850  78.1153130  37.1830490
  77.0963140  76.6193950  37.3177130  75.0447620  80.5606180  43.6017860
  75.1228040  80.6954950  42.6573580  75.6589300  79.8522070  43.7945980
  76.2895250  82.2606370  40.0124040  75.8823330  82.4020960  39.1577640
  77.1808260  81.9766530  39.8095250  86.1074130  86.4098280  46.9191090
  86.6218800  86.3206290  47.7213520  85.2643210  86.7557980  47.2119000
  88.0828530  86.6953620  36.3475090  87.9229670  86.4056560  37.2456920
  87.9175240  85.9193750  35.8120320  80.5616910  86.4752150  38.1246710
  80.3859390  85.5587690  37.9114510  79.7072650  86.8339440  38.3644510
  87.7854660  84.2041180  34.9073090  87.0919820  84.2018470  34.2475370
  88.5277520  83.7800500  34.4767260  87.3504590  85.8303890  38.9821580
  87.8061540  85.0493270  39.2960200  87.6897110  86.5410710  39.5262760
  75.1007140  81.6020350  46.1412320  75.2638180  81.1325710  45.3231690
  75.5659590  81.0943910  46.8061160  79.8725910  70.7326110  41.1772890
  79.4294060  71.5135650  40.8457410  80.4310900  71.0556000  41.8843830
  84.1595720  73.5994630  46.7808210  83.6975090  73.8077650  47.5928150
  83.7573830  72.7853980  46.4778880  89.1600230  74.8203580  47.9104870
  88.3093820  74.5209330  48.2313940  89.0002020  75.0645590  46.9988690
  86.2549940  76.3205330  50.0103660  86.5803350  75.4869080  49.6705890
  87.0430270  76.8433850  50.1581990  82.9884730  70.3536810  36.0578720
  82.3638910  70.3496680  36.7832030  82.9014850  69.4867770  35.6614690
  81.9101810  71.2773440  43.0362490  82.2074140  72.1836270  42.9554510
  82.4587370  70.7892220  42.4222060  79.6640130  75.8559680  38.9054140
  79.4381050  75.6396850  39.8100760  78.8832660  76.2888140  38.5600110
  86.8937890  75.8623050  37.5044790  86.2946780  76.5858850  37.3208410
  87.4417500  75.7999830  36.7221240  82.1039340  76.7545260  49.5714410
  82.0082940  75.8139990  49.4214810  82.9471320  76.9760330  49.1762480
  85.5002760  74.4986590  39.5348070  85.8932330  74.8158790  38.7216760
  85.8619610  73.6198470  39.6492590  77.2349880  73.1658930  47.7248190
  76.8413270  74.0134140  47.9320970  76.5468280  72.5285300  47.9156830
  83.8094930  73.2493900  50.7944930  83.1193250  73.0566100  51.4291020
  84.5527230  73.5328540  51.3269230  74.5366930  71.0887390  41.7578270
  74.2479980  71.6590250  42.4703250  75.2812690  70.6091840  42.1209500
  74.7237160  75.0307510  32.9680990  74.6411830  75.9738270  33.1095980
  74.3720220  74.8882420  32.0893340  86.0857900  77.0892340  43.6298850
  85.3539020  77.5979150  43.9788950  85.6882240  76.2722320  43.3287630
  82.5235290  73.7646540  42.0351340  82.5271350  73.3236490  41.1855880
  83.4186410  74.0863870  42.1423160  78.3737670  73.6473030  40.9945550
  78.0337720  74.1248260  41.7512600  77.6114990  73.1938150  40.6346650
  82.5855440  74.7658620  35.0258100  82.7068260  74.7245100  35.9743920
  82.2003950  75.6282770  34.8704830  86.5483810  72.5426020  43.0421790
  86.5656550  72.9934670  43.8863640  86.2999390  71.6431660  43.2555230
  81.5976940  77.0759760  34.4241400  81.0293840  76.6278010  33.7977310
  82.3065940  77.4352540  33.8906550  89.9754560  69.9558200  48.8808170
  90.3000330  69.2247860  49.4066150  90.0111070  69.6371840  47.9789160
  76.6746120  80.9771780  48.3008130  76.2900910  80.3365450  48.8991090
  76.9858310  81.6807900  48.8702860  82.8243260  77.8248320  43.7816750
  83.1913390  77.3506890  44.5278090  82.6348320  78.6989890  44.1225090
  75.6883750  72.5692010  39.9110220  75.4030670  72.2047680  40.7488840
  75.6262610  71.8372470  39.2973360  80.6142630  76.8656960  46.1000960
  80.3099700  77.7448940  46.3251320  81.5689090  76.9256750  46.1358400
  79.1424420  81.0717950  36.6967810  78.3686680  80.5315570  36.5366530
  79.8719050  80.5524560  36.3585570  89.9012400  80.0683310  42.4894200
  90.6211520  80.5638600  42.0990310  89.6994220  79.3901200  41.8448070
  85.3622340  71.4621270  36.6323590  84.5486950  70.9634440  36.5568900
  85.1684290  72.3019520  36.2159940  85.2831200  80.1392370  48.3763200
  85.2168510  79.2188040  48.1220790  84.6536340  80.2367810  49.0907840
  88.0770730  75.8340920  34.9285750  88.9650350  76.1458150  34.7537090
  88.0475820  74.9613170  34.5366330  79.1861820  80.7398330  40.3346620
  79.7040490  79.9366590  40.2803510  78.7345840  80.6777470  41.1763450
  84.0731320  82.0064610  35.6073920  84.4147020  82.7506840  35.1117240
  83.2444030  82.3195730  35.9698750  76.6706360  77.7059700  47.2472320
  76.3121300  78.3713550  47.8345660  76.3760920  76.8743250  47.6184940
  79.8719480  78.1643940  50.1311870  79.5719620  78.3101120  49.2339690
  80.6430720  77.6049230  50.0385260  85.2147930  82.9612940  48.1267000
  85.2292470  82.0293900  47.9085910  84.5073030  83.0472700  48.7656770
  86.9558730  81.3280450  40.9719430  87.3082550  80.7308580  40.3120800
  86.0721060  81.0024680  41.1427680  83.0422010  82.0878140  38.3789840
  83.7293140  82.6347350  38.7597430  82.2554430  82.6318870  38.4139450
  75.1814410  77.7050960  33.8706920  76.0509260  77.9875760  34.1542840
  74.6904730  78.5186830  33.7555730  82.3449220  79.0924170  37.9915200
  82.8012000  79.9029420  38.2175390  81.9937430  78.7747310  38.8233690
  84.6481830  84.6030510  45.2207500  85.2924050  84.8089890  45.8980920
  85.0111270  83.8418910  44.7678350  78.2461000  69.4361820  38.4637720
  78.1175630  69.4279720  39.4122640  77.4223020  69.7744910  38.1128730
  85.9213910  82.6062860  43.9384950  86.5636140  81.9056020  44.0517120
  86.4463260  83.3861300  43.7581840  89.7669630  82.8911480  33.6624090
  89.5407210  82.1741920  34.2548730  89.3765830  82.6423920  32.8245840
  87.6951530  83.4057760  47.1421010  88.0307770  83.9924450  47.8198930
  86.7751870  83.2750470  47.3718800  75.5485660  86.9178340  34.4368550
  75.9083300  87.5167680  33.7825820  75.4078000  87.4638230  35.2103580
  75.2454930  71.1952940  47.9244420  74.5313450  71.3949860  48.5297030
  75.6649970  70.4192510  48.2959220  89.3485880  80.8083420  35.3238250
  89.0607580  81.2696110  36.1116130  90.1438050  80.3481190  35.5922470
  75.5327520  85.1833200  48.9110950  75.6418640  84.2427940  48.7706340
  74.8808080  85.4487950  48.2624680  83.5240110  83.4549090  50.3109070
  83.2036980  82.7358330  50.8554760  82.8498470  84.1304160  50.3845130
  81.5654280  84.3009540  35.2542220  81.5564380  85.0339230  34.6386730
  80.6452640  84.0541120  35.3469180  77.1660920  79.5224430  35.9988980
  76.5588870  80.2623330  36.0084280  77.6410270  79.6123790  35.1727180
  86.7393710  73.6875250  45.6745870  87.1074530  72.8670460  46.0025440
  85.8791910  73.7477140  46.0901520  90.1055740  72.6432190  36.4833430
  89.4768900  72.7477860  35.7691660  89.6107660  72.8628970  37.2727310
  84.5513880  84.3637780  33.9167410  84.6525860  84.1601770  32.9869390
  83.6515620  84.1096060  34.1215190  82.0739770  74.9218140  37.8991310
  81.3655920  75.3904480  38.3404920  82.3584250  74.2640150  38.5336500
  83.6995700  76.3414840  45.8983840  84.1980950  76.8160660  46.5635690
  83.8418650  75.4178360  46.1053870  86.1055200  71.6468800  39.3387100
  85.9822980  71.6654930  38.3896610  87.0539760  71.6947740  39.4585500
  83.1931990  86.8824100  38.6115080  83.4473490  86.8445490  37.6894450
  82.2444470  86.7557430  38.6043330  80.2774790  73.2303220  35.2742020
  81.1265320  73.6673370  35.2082210  79.9106060  73.5423480  36.1014080
  89.1984570  77.8015980  40.1873590  88.2574710  77.8166210  40.3621280
  89.5128640  77.0151940  40.6333890  79.1766210  79.4835580  33.7477550
  79.9429480  79.3716940  34.3102980  79.2540900  78.7873550  33.0954320
  77.8712970  76.9160650  34.4310440  77.9516560  75.9688160  34.5427840
  78.7632720  77.2467530  34.5371100  78.6727680  87.0656040  41.5344980
  79.4090160  86.5171500  41.8053550  79.0568600  87.9312050  41.3950970
  75.5573160  83.1329610  37.4086490  74.6312940  83.3750750  37.3991900
  76.0229590  83.9603870  37.2871240  77.6785960  86.2502110  50.7230560
  78.4798690  86.5714160  51.1365960  77.1637780  85.8897690  51.4450470
  81.7829990  86.2386350  33.3570550  82.5758600  86.5275180  32.9052340
  81.2634340  85.8078520  32.6783030  86.5150590  82.3581980  50.6705970
  85.9088750  82.3813580  49.9301720  86.2104700  81.6265020  51.2073220
  87.9450960  86.0862270  49.2815380  88.8972710  86.0020290  49.2315620
  87.7979180  86.7503980  49.9549170  75.3983770  78.7375570  49.6666610
  75.9022790  78.1582850  50.2382840  74.6591190  79.0215800  50.2042980
  82.3007390  81.4589760  33.2212900  82.1958030  80.8442110  33.9474280
  82.1331610  80.9355650  32.4375910  82.4521710  80.1446560  49.2002130
  81.6867380  80.7131560  49.1156800  82.6337670  79.8522770  48.3070360
  85.5410120  80.5209790  33.8254890  84.9920220  80.9679090  34.4697630
  86.1629380  80.0159040  34.3492560  89.5945060  81.8751890  49.7577150
  90.3354530  82.2127650  49.2544610  88.8317740  82.0443950  49.2046920
  77.4306850  76.8805160  50.5616680  77.4712190  76.5819030  51.4701910
  78.2852350  77.2812770  50.4024200  81.2085240  79.4800710  35.7220190
  81.6301660  79.3140580  36.5651580  81.3336080  78.6700940  35.2275330
  79.3712660  75.4597260  48.5291170  78.8409120  74.9688210  47.9014510
  80.0400730  75.8881460  47.9949100  83.7212880  78.5038320  32.9697290
  84.2418540  77.7887340  32.6038440  84.3681280  79.1424190  33.2697800
  88.2690720  79.9266720  48.2932360  88.6831740  80.0811800  49.1422780
  87.3341720  80.0521940  48.4558140  88.7412890  77.2662880  50.2971510
  89.3233660  76.5115200  50.2091990  88.9174660  77.7970320  49.5202990
  79.8584960  72.4259630  48.6088460  79.7641830  71.8080380  47.8839330
  79.2782350  73.1525920  48.3818370  82.6246400  70.9832870  45.6415850
  82.1763700  71.0057130  44.7961400  81.9911600  70.5851890  46.2386150
  83.0305950  79.8787200  46.2628290  83.4494060  80.7219930  46.0904530
  82.1114580  80.0159240  46.0335070  85.3669850  77.6103380  47.6466130
  85.4866060  77.0144520  48.3860970  86.2263850  77.6473070  47.2267430
  87.7057750  78.1640570  46.2228640  87.1792970  78.6883190  45.6193780
  88.0489090  78.7967960  46.8538370  80.1044140  75.5533940  32.6678350
  79.9033200  74.6901300  33.0291690  79.9336190  75.4667300  31.7299950
  80.8813370  86.1840210  47.3786020  80.3434460  86.9086270  47.0594720
  81.1347330  85.7070550  46.5883360  82.1338620  74.1524730  48.9041950
  82.7238310  73.8440580  49.5919770  81.3158860  73.6804480  49.0601850
  86.9532050  73.7690540  49.1374970  86.2647570  73.1072080  49.0724960
  87.6738070  73.3228810  49.5823430  87.5832450  70.3642170  35.1965230
  87.8634740  69.5210070  35.5524650  86.8098180  70.5965280  35.7103980
  78.9026940  72.6534560  32.6556230  79.2052840  72.6601990  31.7475380
  79.6421530  72.3032420  33.1523890  83.7375580  87.4191420  47.6372670
  83.6634280  88.3226560  47.9445040  82.8354420  87.1003320  47.6094740
  82.1211870  71.5969180  33.6412430  81.7733870  70.9193170  33.0614880
  82.3224640  71.1358690  34.4555820  84.2860910  86.5849930  35.2599030
  85.1811700  86.9234900  35.2817790  84.3178540  85.8629340  34.6323310
  77.9257070  81.9576980  33.4886030  78.3631940  82.5006650  34.1443610
  78.4104800  81.1323930  33.4982370  75.1402870  84.7466010  40.9406290
  75.4705880  83.8787070  40.7084930  75.5693870  84.9524530  41.7711250
  79.7364790  83.0775020  38.6008260  79.4360330  82.9539990  39.5012170
  79.6302280  82.2183610  38.1923990  75.6293080  85.6136600  43.6787920
  75.1924070  85.7937400  44.5112070  76.1970760  86.3711220  43.5369640
  75.4617510  78.1256830  40.0376800  74.8066350  77.8568470  39.3936500
  76.2995460  78.0161310  39.5878780  89.9506900  81.8405580  46.0641390
  89.1366740  82.2702740  46.3267180  90.3581100  82.4523990  45.4510440
  88.4107950  72.9198120  34.2595290  88.8292830  72.7329100  33.4191950
  88.1044010  72.0677170  34.5698220  76.4993440  78.5109400  44.5780140
  76.8666480  78.4236800  45.4576160  75.9304260  77.7475950  44.4787000
  76.0509440  75.4218490  48.4838560  75.1565490  75.3885250  48.8232270
  76.5906990  75.6205280  49.2489810  89.7385370  72.2050210  50.3690310
  90.6155550  72.2133610  50.7524310  89.7506210  71.4681050  49.7582660
  74.6755590  75.3355760  35.9802130  73.7719670  75.5985960  35.8053790
  75.1596210  75.6066930  35.2002090  77.2182800  74.3921300  33.8896510
  77.9274500  73.9704520  33.4043790  76.5022740  74.4596530  33.2579860
  76.8656960  70.4460630  32.9299160  77.5885090  70.9869570  33.2480380
  77.1381480  70.1724050  32.0540700  76.5549150  69.6966820  42.8321780
  77.2025340  69.1464200  42.3916940  76.9750990  69.9509970  43.6537590
  90.0082950  86.5924180  39.5909660  90.6042020  86.2708750  38.9144080
  90.2661100  86.1196000  40.3822930  76.3081150  69.8522490  45.5747100
  75.9595970  70.3086310  46.3405280  75.9768850  68.9579620  45.6569530
  77.9145520  83.0242090  49.7400290  77.8715150  82.6535000  50.6214750
  78.0456530  83.9619660  49.8802110  81.6151550  84.5801680  45.3410010
  81.3742910  84.8476240  44.4540530  82.5554190  84.7507410  45.3960870
  83.8205970  71.0434370  49.0966520  83.7594860  71.6356200  49.8461930
  84.7606350  70.9360330  48.9516780  86.4580530  70.7004430  48.7358810
  87.0720940  71.0183720  48.0739890  87.0030090  70.2153020  49.3554670
  76.9801790  69.3798690  48.8497870  77.5284780  69.1986740  48.0863980
  77.0457100  68.5892800  49.3854180  77.7533550  85.9704340  46.8598070
  77.1593870  85.8389040  47.5988110  77.7457390  85.1342480  46.3940170
  87.1988570  69.2636570  45.0628100  86.3248410  69.5971680  44.8601030
  87.0899320  68.7909750  45.8879970  88.1060550  71.4707440  46.4469820
  87.7773910  70.6559200  46.0671550  89.0542850  71.4277250  46.3235510
  90.5595160  87.2419480  43.4207390  90.0998130  87.9935290  43.0465410
  89.9307620  86.5225950  43.3622190  77.3845780  83.3362720  45.8106110
  76.6579840  82.7168010  45.7432060  77.4454930  83.7303330  44.9404190
  80.9890880  85.5507720  42.5955520  81.5055900  84.9395080  42.0703780
  81.6388260  86.0536500  43.0866530  83.7286380  86.4416210  43.4224500
  84.0164190  86.1870510  42.5457510  84.2409600  85.8893570  44.0130070
  84.9463390  70.1806410  44.0021010  84.1635180  70.6551910  44.2817770
  84.6526320  69.2761240  43.8934190  89.4984460  70.8829510  42.0470100
  89.9392550  70.8274610  41.1991700  89.2292050  71.7987520  42.1180280
  75.6675780  86.6537110  39.0202870  75.4997820  86.0207790  39.7184760
  74.8010290  86.8596510  38.6697060  76.2903800  70.4853890  36.5234730
  77.0483160  70.5982770  35.9498760  75.8280970  71.3223090  36.4778160
  82.8317610  72.5993160  39.5137040  82.0192120  72.2250050  39.1732920
  83.3359250  71.8438240  39.8158230  87.3342590  69.2635610  40.7520110
  87.9371960  69.8355820  41.2268630  86.5935580  69.8275050  40.5294010
  77.2738480  85.3470340  36.4653010  76.7486100  85.7278370  35.7614970
  77.1983060  85.9721110  37.1862720  78.6628950  71.0117940  35.0636700
  79.1921710  70.2247740  34.9344650  79.2957270  71.6909130  35.2972230
  80.8566790  70.7493080  38.1182090  80.2269530  70.0480390  38.2852220
  80.3171930  71.5097210  37.9015250  83.7958740  87.3632310  50.7892700
  84.7226050  87.1276580  50.8328660  83.7809170  88.1904310  50.3078730
  80.9822350  70.0277060  50.5534580  80.7006620  70.5310660  49.7895400
  81.3642050  69.2298810  50.1876710  79.8731450  87.2952720  35.3402260
  80.6050270  87.0112000  34.7926150  80.1325120  87.0566000  36.2301640
  79.0346240  83.4117450  35.3448590  78.4055120  83.8802550  35.8934420
  79.1494070  82.5666670  35.7794780  87.5837810  69.4430640  51.1315050
  87.4703260  69.7625250  52.0266570  88.4007550  69.8443150  50.8352330
  86.4895960  77.4623110  21.4949790  86.4090010  76.5477720  21.2241500
  86.0760380  77.9590180  20.7889500  84.6214000  79.2402130  23.3759060
  83.8456100  78.7602570  23.6657630  85.2726930  78.5607780  23.2015220
  78.6379830  79.5521940  24.2534820  77.8064710  79.2970650  24.6531330
  79.2460810  79.6232710  24.9892740  88.6421430  83.6462320  22.1558190
  88.1802960  82.8749560  22.4845360  89.4546980  83.6728390  22.6610640
  78.6181090  83.5862030  24.4492840  78.9209130  82.6959770  24.2703060
  79.3624680  84.1432250  24.2215090  77.0471780  74.5123830  18.0377210
  76.1588480  74.8539800  17.9357090  77.3312970  74.3124150  17.1458040
  75.0104790  77.1129480  23.9216910  75.5820900  76.3451680  23.9220550
  75.0106330  77.4118240  23.0123520  84.8684740  85.9320330  21.7762180
  84.2496180  86.3877830  21.2056620  85.7236520  86.0871790  21.3751880
  84.0622990  81.9159320  23.3829220  83.9931270  80.9749260  23.2218350
  84.8242850  82.0060730  23.9551790  76.2529660  72.5213840  25.7085840
  76.0732500  71.6239590  25.9888600  75.8509740  73.0685710  26.3832790
  85.0928160  74.7229700  23.6098150  85.4692980  73.8501580  23.4971820
  84.9947670  75.0588400  22.7188590  79.2233170  73.0955330  19.0715590
  79.3299920  73.9959060  19.3784350  78.3125530  73.0473300  18.7810240
  88.8752280  72.2180140  20.5426490  89.6961900  71.7276710  20.5851970
  88.9086360  72.8077800  21.2958330  76.8716330  75.0174340  24.3168180
  77.5526440  75.2812710  24.9355580  76.5564380  74.1775210  24.6506190
  81.0640900  76.0641700  23.4040770  81.5719120  76.5622670  24.0445790
  81.5954140  75.2876900  23.2280130  79.3477000  70.7040260  27.6704190
  79.3495440  71.2212650  26.8650090  78.5181310  70.2270440  27.6474120
  85.7348090  80.8159570  19.1694090  85.1165360  81.2809020  18.6056810
  86.2471340  81.5087050  19.5863600  80.5979850  80.3435440  25.8477690
  80.2649230  80.9704360  26.4898760  80.7746530  80.8697320  25.0679360
  89.1113760  74.1580520  23.3154030  88.4069330  74.4465410  23.8957140
  89.4725920  74.9680630  22.9553590  79.0292330  72.4150220  25.6774640
  79.3709140  73.2592270  25.3828510  78.0908140  72.5633960  25.7939980
  79.8098950  82.3116240  27.6626870  80.4272950  82.9867320  27.3811320
  78.9492070  82.7204220  27.5714370  75.1031290  81.5016100  16.5433720
  74.7259270  81.9903200  15.8118620  75.3604360  82.1741380  17.1740250
  82.7120220  69.9032490  22.0019230  83.0195200  69.3479380  21.2854730
  81.7820920  70.0376950  21.8192220  88.2635280  85.6199780  24.2926690
  88.2762440  85.2162070  23.4248950  87.7110500  86.3947070  24.1888120
  89.5580700  82.3416000  19.3816860  89.4477030  81.3990330  19.5066280
  89.5548950  82.7031640  20.2679620  87.6620720  80.5229620  25.6209300
  88.0789510  80.3089730  24.7862760  88.3860540  80.7802410  26.1917920
  85.1000980  77.9681320  18.7379350  84.1730260  77.9018700  18.9667820
  85.2525800  78.9061450  18.6234590  85.0870060  74.2398320  15.7346510
  84.1473730  74.4012280  15.8198970  85.4053320  74.9584000  15.1882500
  89.1298270  79.5301620  19.2414600  88.5110690  79.1921170  18.5940900
  89.1122720  78.8861380  19.9493790  88.5724830  75.7086160  26.6580410
  88.1596010  76.5339870  26.9120400  87.8400780  75.1231200  26.4656770
  80.7057620  78.4946060  21.5199080  80.3014620  77.7823310  21.0244980
  80.7920740  78.1499300  22.4087120  81.1739320  82.1813620  23.6838290
  80.8767610  81.5759090  23.0046070  82.1239140  82.2190930  23.5727650
  79.4186240  75.2689270  25.2998120  79.9700830  75.3784610  24.5251370
  79.9329750  75.6426870  26.0153350  89.2624930  85.7545490  27.3461390
  88.7855490  86.5617680  27.1534000  88.5786720  85.1023820  27.4987600
  80.2657750  81.9195310  30.3346090  79.3686280  82.1435280  30.5819490
  80.2910620  82.0430250  29.3857490  87.3062970  78.7688430  16.2487350
  87.7456250  77.9310860  16.1025170  88.0191390  79.4017830  16.3351490
  79.0928970  78.7908630  28.9103460  78.9536740  79.6631430  29.2790860
  78.2110330  78.4481440  28.7651400  85.4158350  83.7084500  20.2168590
  85.8554260  84.4508830  19.8023980  85.3545240  83.9511070  21.1407550
  80.8909320  84.7330330  31.1188610  80.8624750  85.1373280  30.2517040
  80.7274290  83.8040690  30.9560210  77.4062250  77.3891040  19.0205730
  77.2859850  78.1153130  18.4087000  77.0963140  76.6193950  18.5433640
  75.0447620  80.5606180  24.8274370  75.1228040  80.6954950  23.8830090
  75.6589300  79.8522070  25.0202490  76.2895250  82.2606370  21.2380550
  75.8823330  82.4020960  20.3834150  77.1808260  81.9766530  21.0351760
  86.1074130  86.4098280  28.1447600  86.6218800  86.3206290  28.9470030
  85.2643210  86.7557980  28.4375510  88.0828530  86.6953620  17.5731600
  87.9229670  86.4056560  18.4713430  87.9175240  85.9193750  17.0376830
  80.5616910  86.4752150  19.3503220  80.3859390  85.5587690  19.1371020
  79.7072650  86.8339440  19.5901020  87.7854660  84.2041180  16.1329600
  87.0919820  84.2018470  15.4731880  88.5277520  83.7800500  15.7023770
  87.3504590  85.8303890  20.2078090  87.8061540  85.0493270  20.5216710
  87.6897110  86.5410710  20.7519270  75.1007140  81.6020350  27.3668830
  75.2638180  81.1325710  26.5488200  75.5659590  81.0943910  28.0317670
  79.8725910  70.7326110  22.4029400  79.4294060  71.5135650  22.0713920
  80.4310900  71.0556000  23.1100340  84.1595720  73.5994630  28.0064720
  83.6975090  73.8077650  28.8184660  83.7573830  72.7853980  27.7035390
  89.1600230  74.8203580  29.1361380  88.3093820  74.5209330  29.4570450
  89.0002020  75.0645590  28.2245200  86.2549940  76.3205330  31.2360170
  86.5803350  75.4869080  30.8962400  87.0430270  76.8433850  31.3838500
  82.9884730  70.3536810  17.2835230  82.3638910  70.3496680  18.0088540
  82.9014850  69.4867770  16.8871200  81.9101810  71.2773440  24.2619000
  82.2074140  72.1836270  24.1811020  82.4587370  70.7892220  23.6478570
  79.6640130  75.8559680  20.1310650  79.4381050  75.6396850  21.0357270
  78.8832660  76.2888140  19.7856620  86.8937890  75.8623050  18.7301300
  86.2946780  76.5858850  18.5464920  87.4417500  75.7999830  17.9477750
  82.1039340  76.7545260  30.7970920  82.0082940  75.8139990  30.6471320
  82.9471320  76.9760330  30.4018990  85.5002760  74.4986590  20.7604580
  85.8932330  74.8158790  19.9473270  85.8619610  73.6198470  20.8749100
  77.2349880  73.1658930  28.9504700  76.8413270  74.0134140  29.1577480
  76.5468280  72.5285300  29.1413340  83.8094930  73.2493900  32.0201440
  83.1193250  73.0566100  32.6547530  84.5527230  73.5328540  32.5525740
  74.5366930  71.0887390  22.9834780  74.2479980  71.6590250  23.6959760
  75.2812690  70.6091840  23.3466010  74.7237160  75.0307510  14.1937500
  74.6411830  75.9738270  14.3352490  74.3720220  74.8882420  13.3149850
  86.0857900  77.0892340  24.8555360  85.3539020  77.5979150  25.2045460
  85.6882240  76.2722320  24.5544140  82.5235290  73.7646540  23.2607850
  82.5271350  73.3236490  22.4112390  83.4186410  74.0863870  23.3679670
  78.3737670  73.6473030  22.2202060  78.0337720  74.1248260  22.9769110
  77.6114990  73.1938150  21.8603160  82.5855440  74.7658620  16.2514610
  82.7068260  74.7245100  17.2000430  82.2003950  75.6282770  16.0961340
  86.5483810  72.5426020  24.2678300  86.5656550  72.9934670  25.1120150
  86.2999390  71.6431660  24.4811740  81.5976940  77.0759760  15.6497910
  81.0293840  76.6278010  15.0233820  82.3065940  77.4352540  15.1163060
  89.9754560  69.9558200  30.1064680  90.3000330  69.2247860  30.6322660
  90.0111070  69.6371840  29.2045670  76.6746120  80.9771780  29.5264640
  76.2900910  80.3365450  30.1247600  76.9858310  81.6807900  30.0959370
  82.8243260  77.8248320  25.0073260  83.1913390  77.3506890  25.7534600
  82.6348320  78.6989890  25.3481600  75.6883750  72.5692010  21.1366730
  75.4030670  72.2047680  21.9745350  75.6262610  71.8372470  20.5229870
  80.6142630  76.8656960  27.3257470  80.3099700  77.7448940  27.5507830
  81.5689090  76.9256750  27.3614910  79.1424420  81.0717950  17.9224320
  78.3686680  80.5315570  17.7623040  79.8719050  80.5524560  17.5842080
  89.9012400  80.0683310  23.7150710  90.6211520  80.5638600  23.3246820
  89.6994220  79.3901200  23.0704580  85.3622340  71.4621270  17.8580100
  84.5486950  70.9634440  17.7825410  85.1684290  72.3019520  17.4416450
  85.2831200  80.1392370  29.6019710  85.2168510  79.2188040  29.3477300
  84.6536340  80.2367810  30.3164350  88.0770730  75.8340920  16.1542260
  88.9650350  76.1458150  15.9793600  88.0475820  74.9613170  15.7622840
  79.1861820  80.7398330  21.5603130  79.7040490  79.9366590  21.5060020
  78.7345840  80.6777470  22.4019960  84.0731320  82.0064610  16.8330430
  84.4147020  82.7506840  16.3373750  83.2444030  82.3195730  17.1955260
  76.6706360  77.7059700  28.4728830  76.3121300  78.3713550  29.0602170
  76.3760920  76.8743250  28.8441450  79.8719480  78.1643940  31.3568380
  79.5719620  78.3101120  30.4596200  80.6430720  77.6049230  31.2641770
  85.2147930  82.9612940  29.3523510  85.2292470  82.0293900  29.1342420
  84.5073030  83.0472700  29.9913280  86.9558730  81.3280450  22.1975940
  87.3082550  80.7308580  21.5377310  86.0721060  81.0024680  22.3684190
  83.0422010  82.0878140  19.6046350  83.7293140  82.6347350  19.9853940
  82.2554430  82.6318870  19.6395960  75.1814410  77.7050960  15.0963430
  76.0509260  77.9875760  15.3799350  74.6904730  78.5186830  14.9812240
  82.3449220  79.0924170  19.2171710  82.8012000  79.9029420  19.4431900
  81.9937430  78.7747310  20.0490200  84.6481830  84.6030510  26.4464010
  85.2924050  84.8089890  27.1237430  85.0111270  83.8418910  25.9934860
  78.2461000  69.4361820  19.6894230  78.1175630  69.4279720  20.6379150
  77.4223020  69.7744910  19.3385240  85.9213910  82.6062860  25.1641460
  86.5636140  81.9056020  25.2773630  86.4463260  83.3861300  24.9838350
  89.7669630  82.8911480  14.8880600  89.5407210  82.1741920  15.4805240
  89.3765830  82.6423920  14.0502350  87.6951530  83.4057760  28.3677520
  88.0307770  83.9924450  29.0455440  86.7751870  83.2750470  28.5975310
  75.5485660  86.9178340  15.6625060  75.9083300  87.5167680  15.0082330
  75.4078000  87.4638230  16.4360090  75.2454930  71.1952940  29.1500930
  74.5313450  71.3949860  29.7553540  75.6649970  70.4192510  29.5215730
  89.3485880  80.8083420  16.5494760  89.0607580  81.2696110  17.3372640
  90.1438050  80.3481190  16.8178980  75.5327520  85.1833200  30.1367460
  75.6418640  84.2427940  29.9962850  74.8808080  85.4487950  29.4881190
  83.5240110  83.4549090  31.5365580  83.2036980  82.7358330  32.0811270
  82.8498470  84.1304160  31.6101640  81.5654280  84.3009540  16.4798730
  81.5564380  85.0339230  15.8643240  80.6452640  84.0541120  16.5725690
  77.1660920  79.5224430  17.2245490  76.5588870  80.2623330  17.2340790
  77.6410270  79.6123790  16.3983690  86.7393710  73.6875250  26.9002380
  87.1074530  72.8670460  27.2281950  85.8791910  73.7477140  27.3158030
  90.1055740  72.6432190  17.7089940  89.4768900  72.7477860  16.9948170
  89.6107660  72.8628970  18.4983820  84.5513880  84.3637780  15.1423920
  84.6525860  84.1601770  14.2125900  83.6515620  84.1096060  15.3471700
  82.0739770  74.9218140  19.1247820  81.3655920  75.3904480  19.5661430
  82.3584250  74.2640150  19.7593010  83.6995700  76.3414840  27.1240350
  84.1980950  76.8160660  27.7892200  83.8418650  75.4178360  27.3310380
  86.1055200  71.6468800  20.5643610  85.9822980  71.6654930  19.6153120
  87.0539760  71.6947740  20.6842010  83.1931990  86.8824100  19.8371590
  83.4473490  86.8445490  18.9150960  82.2444470  86.7557430  19.8299840
  80.2774790  73.2303220  16.4998530  81.1265320  73.6673370  16.4338720
  79.9106060  73.5423480  17.3270590  89.1984570  77.8015980  21.4130100
  88.2574710  77.8166210  21.5877790  89.5128640  77.0151940  21.8590400
  79.1766210  79.4835580  14.9734060  79.9429480  79.3716940  15.5359490
  79.2540900  78.7873550  14.3210830  77.8712970  76.9160650  15.6566950
  77.9516560  75.9688160  15.7684350  78.7632720  77.2467530  15.7627610
  78.6727680  87.0656040  22.7601490  79.4090160  86.5171500  23.0310060
  79.0568600  87.9312050  22.6207480  75.5573160  83.1329610  18.6343000
  74.6312940  83.3750750  18.6248410  76.0229590  83.9603870  18.5127750
  77.6785960  86.2502110  31.9487070  78.4798690  86.5714160  32.3622470
  77.1637780  85.8897690  32.6706980  81.7829990  86.2386350  14.5827060
  82.5758600  86.5275180  14.1308850  81.2634340  85.8078520  13.9039540
  86.5150590  82.3581980  31.8962480  85.9088750  82.3813580  31.1558230
  86.2104700  81.6265020  32.4329730  87.9450960  86.0862270  30.5071890
  88.8972710  86.0020290  30.4572130  87.7979180  86.7503980  31.1805680
  75.3983770  78.7375570  30.8923120  75.9022790  78.1582850  31.4639350
  74.6591190  79.0215800  31.4299490  82.3007390  81.4589760  14.4469410
  82.1958030  80.8442110  15.1730790  82.1331610  80.9355650  13.6632420
  82.4521710  80.1446560  30.4258640  81.6867380  80.7131560  30.3413310
  82.6337670  79.8522770  29.5326870  85.5410120  80.5209790  15.0511400
  84.9920220  80.9679090  15.6954140  86.1629380  80.0159040  15.5749070
  89.5945060  81.8751890  30.9833660  90.3354530  82.2127650  30.4801120
  88.8317740  82.0443950  30.4303430  77.4306850  76.8805160  31.7873190
  77.4712190  76.5819030  32.6958420  78.2852350  77.2812770  31.6280710
  81.2085240  79.4800710  16.9476700  81.6301660  79.3140580  17.7908090
  81.3336080  78.6700940  16.4531840  79.3712660  75.4597260  29.7547680
  78.8409120  74.9688210  29.1271020  80.0400730  75.8881460  29.2205610
  83.7212880  78.5038320  14.1953800  84.2418540  77.7887340  13.8294950
  84.3681280  79.1424190  14.4954310  88.2690720  79.9266720  29.5188870
  88.6831740  80.0811800  30.3679290  87.3341720  80.0521940  29.6814650
  88.7412890  77.2662880  31.5228020  89.3233660  76.5115200  31.4348500
  88.9174660  77.7970320  30.7459500  79.8584960  72.4259630  29.8344970
  79.7641830  71.8080380  29.1095840  79.2782350  73.1525920  29.6074880
  82.6246400  70.9832870  26.8672360  82.1763700  71.0057130  26.0217910
  81.9911600  70.5851890  27.4642660  83.0305950  79.8787200  27.4884800
  83.4494060  80.7219930  27.3161040  82.1114580  80.0159240  27.2591580
  85.3669850  77.6103380  28.8722640  85.4866060  77.0144520  29.6117480
  86.2263850  77.6473070  28.4523940  87.7057750  78.1640570  27.4485150
  87.1792970  78.6883190  26.8450290  88.0489090  78.7967960  28.0794880
  80.1044140  75.5533940  13.8934860  79.9033200  74.6901300  14.2548200
  79.9336190  75.4667300  12.9556460  80.8813370  86.1840210  28.6042530
  80.3434460  86.9086270  28.2851230  81.1347330  85.7070550  27.8139870
  82.1338620  74.1524730  30.1298460  82.7238310  73.8440580  30.8176280
  81.3158860  73.6804480  30.2858360  86.9532050  73.7690540  30.3631480
  86.2647570  73.1072080  30.2981470  87.6738070  73.3228810  30.8079940
  87.5832450  70.3642170  16.4221740  87.8634740  69.5210070  16.7781160
  86.8098180  70.5965280  16.9360490  78.9026940  72.6534560  13.8812740
  79.2052840  72.6601990  12.9731890  79.6421530  72.3032420  14.3780400
  83.7375580  87.4191420  28.8629180  83.6634280  88.3226560  29.1701550
  82.8354420  87.1003320  28.8351250  82.1211870  71.5969180  14.8668940
  81.7733870  70.9193170  14.2871390  82.3224640  71.1358690  15.6812330
  84.2860910  86.5849930  16.4855540  85.1811700  86.9234900  16.5074300
  84.3178540  85.8629340  15.8579820  77.9257070  81.9576980  14.7142540
  78.3631940  82.5006650  15.3700120  78.4104800  81.1323930  14.7238880
  75.1402870  84.7466010  22.1662800  75.4705880  83.8787070  21.9341440
  75.5693870  84.9524530  22.9967760  79.7364790  83.0775020  19.8264770
  79.4360330  82.9539990  20.7268680  79.6302280  82.2183610  19.4180500
  75.6293080  85.6136600  24.9044430  75.1924070  85.7937400  25.7368580
  76.1970760  86.3711220  24.7626150  75.4617510  78.1256830  21.2633310
  74.8066350  77.8568470  20.6193010  76.2995460  78.0161310  20.8135290
  89.9506900  81.8405580  27.2897900  89.1366740  82.2702740  27.5523690
  90.3581100  82.4523990  26.6766950  88.4107950  72.9198120  15.4851800
  88.8292830  72.7329100  14.6448460  88.1044010  72.0677170  15.7954730
  76.4993440  78.5109400  25.8036650  76.8666480  78.4236800  26.6832670
  75.9304260  77.7475950  25.7043510  76.0509440  75.4218490  29.7095070
  75.1565490  75.3885250  30.0488780  76.5906990  75.6205280  30.4746320
  89.7385370  72.2050210  31.5946820  90.6155550  72.2133610  31.9780820
  89.7506210  71.4681050  30.9839170  74.6755590  75.3355760  17.2058640
  73.7719670  75.5985960  17.0310300  75.1596210  75.6066930  16.4258600
  77.2182800  74.3921300  15.1153020  77.9274500  73.9704520  14.6300300
  76.5022740  74.4596530  14.4836370  76.8656960  70.4460630  14.1555670
  77.5885090  70.9869570  14.4736890  77.1381480  70.1724050  13.2797210
  76.5549150  69.6966820  24.0578290  77.2025340  69.1464200  23.6173450
  76.9750990  69.9509970  24.8794100  90.0082950  86.5924180  20.8166170
  90.6042020  86.2708750  20.1400590  90.2661100  86.1196000  21.6079440
  76.3081150  69.8522490  26.8003610  75.9595970  70.3086310  27.5661790
  75.9768850  68.9579620  26.8826040  77.9145520  83.0242090  30.9656800
  77.8715150  82.6535000  31.8471260  78.0456530  83.9619660  31.1058620
  81.6151550  84.5801680  26.5666520  81.3742910  84.8476240  25.6797040
  82.5554190  84.7507410  26.6217380  83.8205970  71.0434370  30.3223030
  83.7594860  71.6356200  31.0718440  84.7606350  70.9360330  30.1773290
  86.4580530  70.7004430  29.9615320  87.0720940  71.0183720  29.2996400
  87.0030090  70.2153020  30.5811180  76.9801790  69.3798690  30.0754380
  77.5284780  69.1986740  29.3120490  77.0457100  68.5892800  30.6110690
  77.7533550  85.9704340  28.0854580  77.1593870  85.8389040  28.8244620
  77.7457390  85.1342480  27.6196680  87.1988570  69.2636570  26.2884610
  86.3248410  69.5971680  26.0857540  87.0899320  68.7909750  27.1136480
  88.1060550  71.4707440  27.6726330  87.7773910  70.6559200  27.2928060
  89.0542850  71.4277250  27.5492020  90.5595160  87.2419480  24.6463900
  90.0998130  87.9935290  24.2721920  89.9307620  86.5225950  24.5878700
  77.3845780  83.3362720  27.0362620  76.6579840  82.7168010  26.9688570
  77.4454930  83.7303330  26.1660700  80.9890880  85.5507720  23.8212030
  81.5055900  84.9395080  23.2960290  81.6388260  86.0536500  24.3123040
  83.7286380  86.4416210  24.6481010  84.0164190  86.1870510  23.7714020
  84.2409600  85.8893570  25.2386580  84.9463390  70.1806410  25.2277520
  84.1635180  70.6551910  25.5074280  84.6526320  69.2761240  25.1190700
  89.4984460  70.8829510  23.2726610  89.9392550  70.8274610  22.4248210
  89.2292050  71.7987520  23.3436790  75.6675780  86.6537110  20.2459380
  75.4997820  86.0207790  20.9441270  74.8010290  86.8596510  19.8953570
  76.2903800  70.4853890  17.7491240  77.0483160  70.5982770  17.1755270
  75.8280970  71.3223090  17.7034670  82.8317610  72.5993160  20.7393550
  82.0192120  72.2250050  20.3989430  83.3359250  71.8438240  21.0414740
  87.3342590  69.2635610  21.9776620  87.9371960  69.8355820  22.4525140
  86.5935580  69.8275050  21.7550520  77.2738480  85.3470340  17.6909520
  76.7486100  85.7278370  16.9871480  77.1983060  85.9721110  18.4119230
  78.6628950  71.0117940  16.2893210  79.1921710  70.2247740  16.1601160
  79.2957270  71.6909130  16.5228740  80.8566790  70.7493080  19.3438600
  80.2269530  70.0480390  19.5108730  80.3171930  71.5097210  19.1271760
  83.7958740  87.3632310  32.0149210  84.7226050  87.1276580  32.0585170
  83.7809170  88.1904310  31.5335240  80.9822350  70.0277060  31.7791090
  80.7006620  70.5310660  31.0151910  81.3642050  69.2298810  31.4133220
  79.8731450  87.2952720  16.5658770  80.6050270  87.0112000  16.0182660
  80.1325120  87.0566000  17.4558150  79.0346240  83.4117450  16.5705100
  78.4055120  83.8802550  17.1190930  79.1494070  82.5666670  17.0051290
  87.5837810  69.4430640  32.3571560  87.4703260  69.7625250  33.2523080
  88.4007550  69.8443150  32.0608840  86.4895960  77.4623110   2.7206300
  86.4090010  76.5477720   2.4498010  86.0760380  77.9590180   2.0146010
  84.6214000  79.2402130   4.6015570  83.8456100  78.7602570   4.8914140
  85.2726930  78.5607780   4.4271730  78.6379830  79.5521940   5.4791330
  77.8064710  79.2970650   5.8787840  79.2460810  79.6232710   6.2149250
  88.6421430  83.6462320   3.3814700  88.1802960  82.8749560   3.7101870
  89.4546980  83.6728390   3.8867150  78.6181090  83.5862030   5.6749350
  78.9209130  82.6959770   5.4959570  79.3624680  84.1432250   5.4471600
  75.0104790  77.1129480   5.1473420  75.5820900  76.3451680   5.1477060
  75.0106330  77.4118240   4.2380030  84.8684740  85.9320330   3.0018690
  84.2496180  86.3877830   2.4313130  85.7236520  86.0871790   2.6008390
  84.0622990  81.9159320   4.6085730  83.9931270  80.9749260   4.4474860
  84.8242850  82.0060730   5.1808300  76.2529660  72.5213840   6.9342350
  76.0732500  71.6239590   7.2145110  75.8509740  73.0685710   7.6089300
  85.0928160  74.7229700   4.8354660  85.4692980  73.8501580   4.7228330
  84.9947670  75.0588400   3.9445100  88.8752280  72.2180140   1.7683000
  89.6961900  71.7276710   1.8108480  88.9086360  72.8077800   2.5214840
  76.8716330  75.0174340   5.5424690  77.5526440  75.2812710   6.1612090
  76.5564380  74.1775210   5.8762700  81.0640900  76.0641700   4.6297280
  81.5719120  76.5622670   5.2702300  81.5954140  75.2876900   4.4536640
  79.3477000  70.7040260   8.8960700  79.3495440  71.2212650   8.0906600
  78.5181310  70.2270440   8.8730630  80.5979850  80.3435440   7.0734200
  80.2649230  80.9704360   7.7155270  80.7746530  80.8697320   6.2935870
  89.1113760  74.1580520   4.5410540  88.4069330  74.4465410   5.1213650
  89.4725920  74.9680630   4.1810100  79.0292330  72.4150220   6.9031150
  79.3709140  73.2592270   6.6085020  78.0908140  72.5633960   7.0196490
  79.8098950  82.3116240   8.8883380  80.4272950  82.9867320   8.6067830
  78.9492070  82.7204220   8.7970880  82.7120220  69.9032490   3.2275740
  83.0195200  69.3479380   2.5111240  81.7820920  70.0376950   3.0448730
  88.2635280  85.6199780   5.5183200  88.2762440  85.2162070   4.6505460
  87.7110500  86.3947070   5.4144630  87.6620720  80.5229620   6.8465810
  88.0789510  80.3089730   6.0119270  88.3860540  80.7802410   7.4174430
  88.5724830  75.7086160   7.8836920  88.1596010  76.5339870   8.1376910
  87.8400780  75.1231200   7.6913280  80.7057620  78.4946060   2.7455590
  80.3014620  77.7823310   2.2501490  80.7920740  78.1499300   3.6343630
  81.1739320  82.1813620   4.9094800  80.8767610  81.5759090   4.2302580
  82.1239140  82.2190930   4.7984160  79.4186240  75.2689270   6.5254630
  79.9700830  75.3784610   5.7507880  79.9329750  75.6426870   7.2409860
  89.2624930  85.7545490   8.5717900  88.7855490  86.5617680   8.3790510
  88.5786720  85.1023820   8.7244110  80.2657750  81.9195310  11.5602600
  79.3686280  82.1435280  11.8076000  80.2910620  82.0430250  10.6114000
  79.0928970  78.7908630  10.1359970  78.9536740  79.6631430  10.5047370
  78.2110330  78.4481440   9.9907910  80.8909320  84.7330330  12.3445120
  80.8624750  85.1373280  11.4773550  80.7274290  83.8040690  12.1816720
  75.0447620  80.5606180   6.0530880  75.1228040  80.6954950   5.1086600
  75.6589300  79.8522070   6.2459000  76.2895250  82.2606370   2.4637060
  75.8823330  82.4020960   1.6090660  77.1808260  81.9766530   2.2608270
  86.1074130  86.4098280   9.3704110  86.6218800  86.3206290  10.1726540
  85.2643210  86.7557980   9.6632020  75.1007140  81.6020350   8.5925340
  75.2638180  81.1325710   7.7744710  75.5659590  81.0943910   9.2574180
  79.8725910  70.7326110   3.6285910  79.4294060  71.5135650   3.2970430
  80.4310900  71.0556000   4.3356850  84.1595720  73.5994630   9.2321230
  83.6975090  73.8077650  10.0441170  83.7573830  72.7853980   8.9291900
  89.1600230  74.8203580  10.3617890  88.3093820  74.5209330  10.6826960
  89.0002020  75.0645590   9.4501710  86.2549940  76.3205330  12.4616680
  86.5803350  75.4869080  12.1218910  87.0430270  76.8433850  12.6095010
  81.9101810  71.2773440   5.4875510  82.2074140  72.1836270   5.4067530
  82.4587370  70.7892220   4.8735080  82.1039340  76.7545260  12.0227430
  82.0082940  75.8139990  11.8727830  82.9471320  76.9760330  11.6275500
  77.2349880  73.1658930  10.1761210  76.8413270  74.0134140  10.3833990
  76.5468280  72.5285300  10.3669850  83.8094930  73.2493900  13.2457950
  83.1193250  73.0566100  13.8804040  84.5527230  73.5328540  13.7782250
  74.5366930  71.0887390   4.2091290  74.2479980  71.6590250   4.9216270
  75.2812690  70.6091840   4.5722520  86.0857900  77.0892340   6.0811870
  85.3539020  77.5979150   6.4301970  85.6882240  76.2722320   5.7800650
  82.5235290  73.7646540   4.4864360  82.5271350  73.3236490   3.6368900
  83.4186410  74.0863870   4.5936180  78.3737670  73.6473030   3.4458570
  78.0337720  74.1248260   4.2025620  77.6114990  73.1938150   3.0859670
  86.5483810  72.5426020   5.4934810  86.5656550  72.9934670   6.3376660
  86.2999390  71.6431660   5.7068250  89.9754560  69.9558200  11.3321190
  90.3000330  69.2247860  11.8579170  90.0111070  69.6371840  10.4302180
  76.6746120  80.9771780  10.7521150  76.2900910  80.3365450  11.3504110
  76.9858310  81.6807900  11.3215880  82.8243260  77.8248320   6.2329770
  83.1913390  77.3506890   6.9791110  82.6348320  78.6989890   6.5738110
  75.6883750  72.5692010   2.3623240  75.4030670  72.2047680   3.2001860
  75.6262610  71.8372470   1.7486380  80.6142630  76.8656960   8.5513980
  80.3099700  77.7448940   8.7764340  81.5689090  76.9256750   8.5871420
  89.9012400  80.0683310   4.9407220  90.6211520  80.5638600   4.5503330
  89.6994220  79.3901200   4.2961090  85.2831200  80.1392370  10.8276220
  85.2168510  79.2188040  10.5733810  84.6536340  80.2367810  11.5420860
  79.1861820  80.7398330   2.7859640  79.7040490  79.9366590   2.7316530
  78.7345840  80.6777470   3.6276470  76.6706360  77.7059700   9.6985340
  76.3121300  78.3713550  10.2858680  76.3760920  76.8743250  10.0697960
  79.8719480  78.1643940  12.5824890  79.5719620  78.3101120  11.6852710
  80.6430720  77.6049230  12.4898280  85.2147930  82.9612940  10.5780020
  85.2292470  82.0293900  10.3598930  84.5073030  83.0472700  11.2169790
  86.9558730  81.3280450   3.4232450  87.3082550  80.7308580   2.7633820
  86.0721060  81.0024680   3.5940700  84.6481830  84.6030510   7.6720520
  85.2924050  84.8089890   8.3493940  85.0111270  83.8418910   7.2191370
  85.9213910  82.6062860   6.3897970  86.5636140  81.9056020   6.5030140
  86.4463260  83.3861300   6.2094860  87.6951530  83.4057760   9.5934030
  88.0307770  83.9924450  10.2711950  86.7751870  83.2750470   9.8231820
  75.2454930  71.1952940  10.3757440  74.5313450  71.3949860  10.9810050
  75.6649970  70.4192510  10.7472240  75.5327520  85.1833200  11.3623970
  75.6418640  84.2427940  11.2219360  74.8808080  85.4487950  10.7137700
  83.5240110  83.4549090  12.7622090  83.2036980  82.7358330  13.3067780
  82.8498470  84.1304160  12.8358150  86.7393710  73.6875250   8.1258890
  87.1074530  72.8670460   8.4538460  85.8791910  73.7477140   8.5414540
  83.6995700  76.3414840   8.3496860  84.1980950  76.8160660   9.0148710
  83.8418650  75.4178360   8.5566890  89.1984570  77.8015980   2.6386610
  88.2574710  77.8166210   2.8134300  89.5128640  77.0151940   3.0846910
  78.6727680  87.0656040   3.9858000  79.4090160  86.5171500   4.2566570
  79.0568600  87.9312050   3.8463990  77.6785960  86.2502110  13.1743580
  78.4798690  86.5714160  13.5878980  77.1637780  85.8897690  13.8963490
  86.5150590  82.3581980  13.1218990  85.9088750  82.3813580  12.3814740
  86.2104700  81.6265020  13.6586240  87.9450960  86.0862270  11.7328400
  88.8972710  86.0020290  11.6828640  87.7979180  86.7503980  12.4062190
  75.3983770  78.7375570  12.1179630  75.9022790  78.1582850  12.6895860
  74.6591190  79.0215800  12.6556000  82.4521710  80.1446560  11.6515150
  81.6867380  80.7131560  11.5669820  82.6337670  79.8522770  10.7583380
  89.5945060  81.8751890  12.2090170  90.3354530  82.2127650  11.7057630
  88.8317740  82.0443950  11.6559940  77.4306850  76.8805160  13.0129700
  77.4712190  76.5819030  13.9214930  78.2852350  77.2812770  12.8537220
  79.3712660  75.4597260  10.9804190  78.8409120  74.9688210  10.3527530
  80.0400730  75.8881460  10.4462120  88.2690720  79.9266720  10.7445380
  88.6831740  80.0811800  11.5935800  87.3341720  80.0521940  10.9071160
  88.7412890  77.2662880  12.7484530  89.3233660  76.5115200  12.6605010
  88.9174660  77.7970320  11.9716010  79.8584960  72.4259630  11.0601480
  79.7641830  71.8080380  10.3352350  79.2782350  73.1525920  10.8331390
  82.6246400  70.9832870   8.0928870  82.1763700  71.0057130   7.2474420
  81.9911600  70.5851890   8.6899170  83.0305950  79.8787200   8.7141310
  83.4494060  80.7219930   8.5417550  82.1114580  80.0159240   8.4848090
  85.3669850  77.6103380  10.0979150  85.4866060  77.0144520  10.8373990
  86.2263850  77.6473070   9.6780450  87.7057750  78.1640570   8.6741660
  87.1792970  78.6883190   8.0706800  88.0489090  78.7967960   9.3051390
  80.8813370  86.1840210   9.8299040  80.3434460  86.9086270   9.5107740
  81.1347330  85.7070550   9.0396380  82.1338620  74.1524730  11.3554970
  82.7238310  73.8440580  12.0432790  81.3158860  73.6804480  11.5114870
  86.9532050  73.7690540  11.5887990  86.2647570  73.1072080  11.5237980
  87.6738070  73.3228810  12.0336450  83.7375580  87.4191420  10.0885690
  83.6634280  88.3226560  10.3958060  82.8354420  87.1003320  10.0607760
  75.1402870  84.7466010   3.3919310  75.4705880  83.8787070   3.1597950
  75.5693870  84.9524530   4.2224270  75.6293080  85.6136600   6.1300940
  75.1924070  85.7937400   6.9625090  76.1970760  86.3711220   5.9882660
  75.4617510  78.1256830   2.4889820  74.8066350  77.8568470   1.8449520
  76.2995460  78.0161310   2.0391800  89.9506900  81.8405580   8.5154410
  89.1366740  82.2702740   8.7780200  90.3581100  82.4523990   7.9023460
  76.4993440  78.5109400   7.0293160  76.8666480  78.4236800   7.9089180
  75.9304260  77.7475950   6.9300020  76.0509440  75.4218490  10.9351580
  75.1565490  75.3885250  11.2745290  76.5906990  75.6205280  11.7002830
  89.7385370  72.2050210  12.8203330  90.6155550  72.2133610  13.2037330
  89.7506210  71.4681050  12.2095680  76.5549150  69.6966820   5.2834800
  77.2025340  69.1464200   4.8429960  76.9750990  69.9509970   6.1050610
  76.3081150  69.8522490   8.0260120  75.9595970  70.3086310   8.7918300
  75.9768850  68.9579620   8.1082550  77.9145520  83.0242090  12.1913310
  77.8715150  82.6535000  13.0727770  78.0456530  83.9619660  12.3315130
  81.6151550  84.5801680   7.7923030  81.3742910  84.8476240   6.9053550
  82.5554190  84.7507410   7.8473890  83.8205970  71.0434370  11.5479540
  83.7594860  71.6356200  12.2974950  84.7606350  70.9360330  11.4029800
  86.4580530  70.7004430  11.1871830  87.0720940  71.0183720  10.5252910
  87.0030090  70.2153020  11.8067690  76.9801790  69.3798690  11.3010890
  77.5284780  69.1986740  10.5377000  77.0457100  68.5892800  11.8367200
  77.7533550  85.9704340   9.3111090  77.1593870  85.8389040  10.0501130
  77.7457390  85.1342480   8.8453190  87.1988570  69.2636570   7.5141120
  86.3248410  69.5971680   7.3114050  87.0899320  68.7909750   8.3392990
  88.1060550  71.4707440   8.8982840  87.7773910  70.6559200   8.5184570
  89.0542850  71.4277250   8.7748530  90.5595160  87.2419480   5.8720410
  90.0998130  87.9935290   5.4978430  89.9307620  86.5225950   5.8135210
  77.3845780  83.3362720   8.2619130  76.6579840  82.7168010   8.1945080
  77.4454930  83.7303330   7.3917210  80.9890880  85.5507720   5.0468540
  81.5055900  84.9395080   4.5216800  81.6388260  86.0536500   5.5379550
  83.7286380  86.4416210   5.8737520  84.0164190  86.1870510   4.9970530
  84.2409600  85.8893570   6.4643090  84.9463390  70.1806410   6.4534030
  84.1635180  70.6551910   6.7330790  84.6526320  69.2761240   6.3447210
  89.4984460  70.8829510   4.4983120  89.9392550  70.8274610   3.6504720
  89.2292050  71.7987520   4.5693300  82.8317610  72.5993160   1.9650060
  82.0192120  72.2250050   1.6245940  83.3359250  71.8438240   2.2671250
  87.3342590  69.2635610   3.2033130  87.9371960  69.8355820   3.6781650
  86.5935580  69.8275050   2.9807030  83.7958740  87.3632310  13.2405720
  84.7226050  87.1276580  13.2841680  83.7809170  88.1904310  12.7591750
  80.9822350  70.0277060  13.0047600  80.7006620  70.5310660  12.2408420
  81.3642050  69.2298810  12.6389730  87.5837810  69.4430640  13.5828070
  87.4703260  69.7625250  14.4779590  88.4007550  69.8443150  13.2865350
  86.4895960  58.6879620  59.0436770  86.4090010  57.7734230  58.7728480
  86.0760380  59.1846690  58.3376480  84.6214000  60.4658640  60.9246040
  83.8456100  59.9859080  61.2144610  85.2726930  59.7864290  60.7502200
  78.6379830  60.7778450  61.8021800  77.8064710  60.5227160  62.2018310
  79.2460810  60.8489220  62.5379720  88.6421430  64.8718830  59.7045170
  88.1802960  64.1006070  60.0332340  89.4546980  64.8984900  60.2097620
  78.6181090  64.8118540  61.9979820  78.9209130  63.9216280  61.8190040
  79.3624680  65.3688760  61.7702070  77.0471780  55.7380340  55.5864190
  76.1588480  56.0796310  55.4844070  77.3312970  55.5380660  54.6945020
  75.0104790  58.3385990  61.4703890  75.5820900  57.5708190  61.4707530
  75.0106330  58.6374750  60.5610500  84.8684740  67.1576840  59.3249160
  84.2496180  67.6134340  58.7543600  85.7236520  67.3128300  58.9238860
  84.0622990  63.1415830  60.9316200  83.9931270  62.2005770  60.7705330
  84.8242850  63.2317240  61.5038770  85.0928160  55.9486210  61.1585130
  85.4692980  55.0758090  61.0458800  84.9947670  56.2844910  60.2675570
  79.2233170  54.3211840  56.6202570  79.3299920  55.2215570  56.9271330
  78.3125530  54.2729810  56.3297220  88.8752280  53.4436650  58.0913470
  89.6961900  52.9533220  58.1338950  88.9086360  54.0334310  58.8445310
  76.8716330  56.2430850  61.8655160  77.5526440  56.5069220  62.4842560
  76.5564380  55.4031720  62.1993170  81.0640900  57.2898210  60.9527750
  81.5719120  57.7879180  61.5932770  81.5954140  56.5133410  60.7767110
  85.7348090  62.0416080  56.7181070  85.1165360  62.5065530  56.1543790
  86.2471340  62.7343560  57.1350580  89.1113760  55.3837030  60.8641010
  88.4069330  55.6721920  61.4444120  89.4725920  56.1937140  60.5040570
  79.0292330  53.6406730  63.2261620  79.3709140  54.4848780  62.9315490
  78.0908140  53.7890470  63.3426960  75.1031290  62.7272610  54.0920700
  74.7259270  63.2159710  53.3605600  75.3604360  63.3997890  54.7227230
  82.7120220  51.1289000  59.5506210  83.0195200  50.5735890  58.8341710
  81.7820920  51.2633460  59.3679200  88.2635280  66.8456290  61.8413670
  88.2762440  66.4418580  60.9735930  87.7110500  67.6203580  61.7375100
  89.5580700  63.5672510  56.9303840  89.4477030  62.6246840  57.0553260
  89.5548950  63.9288150  57.8166600  85.1000980  59.1937830  56.2866330
  84.1730260  59.1275210  56.5154800  85.2525800  60.1317960  56.1721570
  85.0870060  55.4654830  53.2833490  84.1473730  55.6268790  53.3685950
  85.4053320  56.1840510  52.7369480  89.1298270  60.7558130  56.7901580
  88.5110690  60.4177680  56.1427880  89.1122720  60.1117890  57.4980770
  80.7057620  59.7202570  59.0686060  80.3014620  59.0079820  58.5731960
  80.7920740  59.3755810  59.9574100  81.1739320  63.4070130  61.2325270
  80.8767610  62.8015600  60.5533050  82.1239140  63.4447440  61.1214630
  87.3062970  59.9944940  53.7974330  87.7456250  59.1567370  53.6512150
  88.0191390  60.6274340  53.8838470  85.4158350  64.9341010  57.7655570
  85.8554260  65.6765340  57.3510960  85.3545240  65.1767580  58.6894530
  77.4062250  58.6147550  56.5692710  77.2859850  59.3409640  55.9573980
  77.0963140  57.8450460  56.0920620  75.0447620  61.7862690  62.3761350
  75.1228040  61.9211460  61.4317070  75.6589300  61.0778580  62.5689470
  76.2895250  63.4862880  58.7867530  75.8823330  63.6277470  57.9321130
  77.1808260  63.2023040  58.5838740  88.0828530  67.9210130  55.1218580
  87.9229670  67.6313070  56.0200410  87.9175240  67.1450260  54.5863810
  80.5616910  67.7008660  56.8990200  80.3859390  66.7844200  56.6858000
  79.7072650  68.0595950  57.1388000  87.7854660  65.4297690  53.6816580
  87.0919820  65.4274980  53.0218860  88.5277520  65.0057010  53.2510750
  87.3504590  67.0560400  57.7565070  87.8061540  66.2749780  58.0703690
  87.6897110  67.7667220  58.3006250  79.8725910  51.9582620  59.9516380
  79.4294060  52.7392160  59.6200900  80.4310900  52.2812510  60.6587320
  82.9884730  51.5793320  54.8322210  82.3638910  51.5753190  55.5575520
  82.9014850  50.7124280  54.4358180  81.9101810  52.5029950  61.8105980
  82.2074140  53.4092780  61.7298000  82.4587370  52.0148730  61.1965550
  79.6640130  57.0816190  57.6797630  79.4381050  56.8653360  58.5844250
  78.8832660  57.5144650  57.3343600  86.8937890  57.0879560  56.2788280
  86.2946780  57.8115360  56.0951900  87.4417500  57.0256340  55.4964730
  85.5002760  55.7243100  58.3091560  85.8932330  56.0415300  57.4960250
  85.8619610  54.8454980  58.4236080  74.5366930  52.3143900  60.5321760
  74.2479980  52.8846760  61.2446740  75.2812690  51.8348350  60.8952990
  74.7237160  56.2564020  51.7424480  74.6411830  57.1994780  51.8839470
  74.3720220  56.1138930  50.8636830  86.0857900  58.3148850  62.4042340
  85.3539020  58.8235660  62.7532440  85.6882240  57.4978830  62.1031120
  82.5235290  54.9903050  60.8094830  82.5271350  54.5493000  59.9599370
  83.4186410  55.3120380  60.9166650  78.3737670  54.8729540  59.7689040
  78.0337720  55.3504770  60.5256090  77.6114990  54.4194660  59.4090140
  82.5855440  55.9915130  53.8001590  82.7068260  55.9501610  54.7487410
  82.2003950  56.8539280  53.6448320  86.5483810  53.7682530  61.8165280
  86.5656550  54.2191180  62.6607130  86.2999390  52.8688170  62.0298720
  81.5976940  58.3016270  53.1984890  81.0293840  57.8534520  52.5720800
  82.3065940  58.6609050  52.6650040  82.8243260  59.0504830  62.5560240
  83.1913390  58.5763400  63.3021580  82.6348320  59.9246400  62.8968580
  75.6883750  53.7948520  58.6853710  75.4030670  53.4304190  59.5232330
  75.6262610  53.0628980  58.0716850  79.1424420  62.2974460  55.4711300
  78.3686680  61.7572080  55.3110020  79.8719050  61.7781070  55.1329060
  89.9012400  61.2939820  61.2637690  90.6211520  61.7895110  60.8733800
  89.6994220  60.6157710  60.6191560  85.3622340  52.6877780  55.4067080
  84.5486950  52.1890950  55.3312390  85.1684290  53.5276030  54.9903430
  88.0770730  57.0597430  53.7029240  88.9650350  57.3714660  53.5280580
  88.0475820  56.1869680  53.3109820  79.1861820  61.9654840  59.1090110
  79.7040490  61.1623100  59.0547000  78.7345840  61.9033980  59.9506940
  84.0731320  63.2321120  54.3817410  84.4147020  63.9763350  53.8860730
  83.2444030  63.5452240  54.7442240  86.9558730  62.5536960  59.7462920
  87.3082550  61.9565090  59.0864290  86.0721060  62.2281190  59.9171170
  83.0422010  63.3134650  57.1533330  83.7293140  63.8603860  57.5340920
  82.2554430  63.8575380  57.1882940  75.1814410  58.9307470  52.6450410
  76.0509260  59.2132270  52.9286330  74.6904730  59.7443340  52.5299220
  82.3449220  60.3180680  56.7658690  82.8012000  61.1285930  56.9918880
  81.9937430  60.0003820  57.5977180  78.2461000  50.6618330  57.2381210
  78.1175630  50.6536230  58.1866130  77.4223020  51.0001420  56.8872220
  85.9213910  63.8319370  62.7128440  86.5636140  63.1312530  62.8260610
  86.4463260  64.6117810  62.5325330  89.7669630  64.1167990  52.4367580
  89.5407210  63.3998430  53.0292220  89.3765830  63.8680430  51.5989330
  75.5485660  68.1434850  53.2112040  75.9083300  68.7424190  52.5569310
  75.4078000  68.6894740  53.9847070  89.3485880  62.0339930  54.0981740
  89.0607580  62.4952620  54.8859620  90.1438050  61.5737700  54.3665960
  81.5654280  65.5266050  54.0285710  81.5564380  66.2595740  53.4130220
  80.6452640  65.2797630  54.1212670  77.1660920  60.7480940  54.7732470
  76.5588870  61.4879840  54.7827770  77.6410270  60.8380300  53.9470670
  90.1055740  53.8688700  55.2576920  89.4768900  53.9734370  54.5435150
  89.6107660  54.0885480  56.0470800  84.5513880  65.5894290  52.6910900
  84.6525860  65.3858280  51.7612880  83.6515620  65.3352570  52.8958680
  82.0739770  56.1474650  56.6734800  81.3655920  56.6160990  57.1148410
  82.3584250  55.4896660  57.3079990  86.1055200  52.8725310  58.1130590
  85.9822980  52.8911440  57.1640100  87.0539760  52.9204250  58.2328990
  83.1931990  68.1080610  57.3858570  83.4473490  68.0702000  56.4637940
  82.2444470  67.9813940  57.3786820  80.2774790  54.4559730  54.0485510
  81.1265320  54.8929880  53.9825700  79.9106060  54.7679990  54.8757570
  89.1984570  59.0272490  58.9617080  88.2574710  59.0422720  59.1364770
  89.5128640  58.2408450  59.4077380  79.1766210  60.7092090  52.5221040
  79.9429480  60.5973450  53.0846470  79.2540900  60.0130060  51.8697810
  77.8712970  58.1417160  53.2053930  77.9516560  57.1944670  53.3171330
  78.7632720  58.4724040  53.3114590  78.6727680  68.2912550  60.3088470
  79.4090160  67.7428010  60.5797040  79.0568600  69.1568560  60.1694460
  75.5573160  64.3586120  56.1829980  74.6312940  64.6007260  56.1735390
  76.0229590  65.1860380  56.0614730  81.7829990  67.4642860  52.1314040
  82.5758600  67.7531690  51.6795830  81.2634340  67.0335030  51.4526520
  82.3007390  62.6846270  51.9956390  82.1958030  62.0698620  52.7217770
  82.1331610  62.1612160  51.2119400  85.5410120  61.7466300  52.5998380
  84.9920220  62.1935600  53.2441120  86.1629380  61.2415550  53.1236050
  81.2085240  60.7057220  54.4963680  81.6301660  60.5397090  55.3395070
  81.3336080  59.8957450  54.0018820  83.7212880  59.7294830  51.7440780
  84.2418540  59.0143850  51.3781930  84.3681280  60.3680700  52.0441290
  80.1044140  56.7790450  51.4421840  79.9033200  55.9157810  51.8035180
  79.9336190  56.6923810  50.5043440  87.5832450  51.5898680  53.9708720
  87.8634740  50.7466580  54.3268140  86.8098180  51.8221790  54.4847470
  78.9026940  53.8791070  51.4299720  79.2052840  53.8858500  50.5218870
  79.6421530  53.5288930  51.9267380  82.1211870  52.8225690  52.4155920
  81.7733870  52.1449680  51.8358370  82.3224640  52.3615200  53.2299310
  84.2860910  67.8106440  54.0342520  85.1811700  68.1491410  54.0561280
  84.3178540  67.0885850  53.4066800  77.9257070  63.1833490  52.2629520
  78.3631940  63.7263160  52.9187100  78.4104800  62.3580440  52.2725860
  75.1402870  65.9722520  59.7149780  75.4705880  65.1043580  59.4828420
  75.5693870  66.1781040  60.5454740  79.7364790  64.3031530  57.3751750
  79.4360330  64.1796500  58.2755660  79.6302280  63.4440120  56.9667480
  75.6293080  66.8393110  62.4531410  75.1924070  67.0193910  63.2855560
  76.1970760  67.5967730  62.3113130  75.4617510  59.3513340  58.8120290
  74.8066350  59.0824980  58.1679990  76.2995460  59.2417820  58.3622270
  88.4107950  54.1454630  53.0338780  88.8292830  53.9585610  52.1935440
  88.1044010  53.2933680  53.3441710  74.6755590  56.5612270  54.7545620
  73.7719670  56.8242470  54.5797280  75.1596210  56.8323440  53.9745580
  77.2182800  55.6177810  52.6640000  77.9274500  55.1961030  52.1787280
  76.5022740  55.6853040  52.0323350  76.8656960  51.6717140  51.7042650
  77.5885090  52.2126080  52.0223870  77.1381480  51.3980560  50.8284190
  76.5549150  50.9223330  61.6065270  77.2025340  50.3720710  61.1660430
  76.9750990  51.1766480  62.4281080  90.0082950  67.8180690  58.3653150
  90.6042020  67.4965260  57.6887570  90.2661100  67.3452510  59.1566420
  90.5595160  68.4675990  62.1950880  90.0998130  69.2191800  61.8208900
  89.9307620  67.7482460  62.1365680  80.9890880  66.7764230  61.3699010
  81.5055900  66.1651590  60.8447270  81.6388260  67.2793010  61.8610020
  83.7286380  67.6672720  62.1967990  84.0164190  67.4127020  61.3201000
  84.2409600  67.1150080  62.7873560  84.9463390  51.4062920  62.7764500
  84.1635180  51.8808420  63.0561260  84.6526320  50.5017750  62.6677680
  89.4984460  52.1086020  60.8213590  89.9392550  52.0531120  59.9735190
  89.2292050  53.0244030  60.8923770  75.6675780  67.8793620  57.7946360
  75.4997820  67.2464300  58.4928250  74.8010290  68.0853020  57.4440550
  76.2903800  51.7110400  55.2978220  77.0483160  51.8239280  54.7242250
  75.8280970  52.5479600  55.2521650  82.8317610  53.8249670  58.2880530
  82.0192120  53.4506560  57.9476410  83.3359250  53.0694750  58.5901720
  87.3342590  50.4892120  59.5263600  87.9371960  51.0612330  60.0012120
  86.5935580  51.0531560  59.3037500  77.2738480  66.5726850  55.2396500
  76.7486100  66.9534880  54.5358460  77.1983060  67.1977620  55.9606210
  78.6628950  52.2374450  53.8380190  79.1921710  51.4504250  53.7088140
  79.2957270  52.9165640  54.0715720  80.8566790  51.9749590  56.8925580
  80.2269530  51.2736900  57.0595710  80.3171930  52.7353720  56.6758740
  79.8731450  68.5209230  54.1145750  80.6050270  68.2368510  53.5669640
  80.1325120  68.2822510  55.0045130  79.0346240  64.6373960  54.1192080
  78.4055120  65.1059060  54.6677910  79.1494070  63.7923180  54.5538270
  86.4895960  58.6879620  40.2693280  86.4090010  57.7734230  39.9984990
  86.0760380  59.1846690  39.5632990  84.6214000  60.4658640  42.1502550
  83.8456100  59.9859080  42.4401120  85.2726930  59.7864290  41.9758710
  78.6379830  60.7778450  43.0278310  77.8064710  60.5227160  43.4274820
  79.2460810  60.8489220  43.7636230  88.6421430  64.8718830  40.9301680
  88.1802960  64.1006070  41.2588850  89.4546980  64.8984900  41.4354130
  78.6181090  64.8118540  43.2236330  78.9209130  63.9216280  43.0446550
  79.3624680  65.3688760  42.9958580  77.0471780  55.7380340  36.8120700
  76.1588480  56.0796310  36.7100580  77.3312970  55.5380660  35.9201530
  75.0104790  58.3385990  42.6960400  75.5820900  57.5708190  42.6964040
  75.0106330  58.6374750  41.7867010  84.8684740  67.1576840  40.5505670
  84.2496180  67.6134340  39.9800110  85.7236520  67.3128300  40.1495370
  84.0622990  63.1415830  42.1572710  83.9931270  62.2005770  41.9961840
  84.8242850  63.2317240  42.7295280  76.2529660  53.7470350  44.4829330
  76.0732500  52.8496100  44.7632090  75.8509740  54.2942220  45.1576280
  85.0928160  55.9486210  42.3841640  85.4692980  55.0758090  42.2715310
  84.9947670  56.2844910  41.4932080  79.2233170  54.3211840  37.8459080
  79.3299920  55.2215570  38.1527840  78.3125530  54.2729810  37.5553730
  88.8752280  53.4436650  39.3169980  89.6961900  52.9533220  39.3595460
  88.9086360  54.0334310  40.0701820  76.8716330  56.2430850  43.0911670
  77.5526440  56.5069220  43.7099070  76.5564380  55.4031720  43.4249680
  81.0640900  57.2898210  42.1784260  81.5719120  57.7879180  42.8189280
  81.5954140  56.5133410  42.0023620  79.3477000  51.9296770  46.4447680
  79.3495440  52.4469160  45.6393580  78.5181310  51.4526950  46.4217610
  85.7348090  62.0416080  37.9437580  85.1165360  62.5065530  37.3800300
  86.2471340  62.7343560  38.3607090  80.5979850  61.5691950  44.6221180
  80.2649230  62.1960870  45.2642250  80.7746530  62.0953830  43.8422850
  89.1113760  55.3837030  42.0897520  88.4069330  55.6721920  42.6700630
  89.4725920  56.1937140  41.7297080  79.0292330  53.6406730  44.4518130
  79.3709140  54.4848780  44.1572000  78.0908140  53.7890470  44.5683470
  79.8098950  63.5372750  46.4370360  80.4272950  64.2123830  46.1554810
  78.9492070  63.9460730  46.3457860  75.1031290  62.7272610  35.3177210
  74.7259270  63.2159710  34.5862110  75.3604360  63.3997890  35.9483740
  82.7120220  51.1289000  40.7762720  83.0195200  50.5735890  40.0598220
  81.7820920  51.2633460  40.5935710  88.2635280  66.8456290  43.0670180
  88.2762440  66.4418580  42.1992440  87.7110500  67.6203580  42.9631610
  89.5580700  63.5672510  38.1560350  89.4477030  62.6246840  38.2809770
  89.5548950  63.9288150  39.0423110  87.6620720  61.7486130  44.3952790
  88.0789510  61.5346240  43.5606250  88.3860540  62.0058920  44.9661410
  85.1000980  59.1937830  37.5122840  84.1730260  59.1275210  37.7411310
  85.2525800  60.1317960  37.3978080  85.0870060  55.4654830  34.5090000
  84.1473730  55.6268790  34.5942460  85.4053320  56.1840510  33.9625990
  89.1298270  60.7558130  38.0158090  88.5110690  60.4177680  37.3684390
  89.1122720  60.1117890  38.7237280  88.5724830  56.9342670  45.4323900
  88.1596010  57.7596380  45.6863890  87.8400780  56.3487710  45.2400260
  80.7057620  59.7202570  40.2942570  80.3014620  59.0079820  39.7988470
  80.7920740  59.3755810  41.1830610  81.1739320  63.4070130  42.4581780
  80.8767610  62.8015600  41.7789560  82.1239140  63.4447440  42.3471140
  79.4186240  56.4945780  44.0741610  79.9700830  56.6041120  43.2994860
  79.9329750  56.8683380  44.7896840  89.2624930  66.9802000  46.1204880
  88.7855490  67.7874190  45.9277490  88.5786720  66.3280330  46.2731090
  80.2657750  63.1451820  49.1089580  79.3686280  63.3691790  49.3562980
  80.2910620  63.2686760  48.1600980  87.3062970  59.9944940  35.0230840
  87.7456250  59.1567370  34.8768660  88.0191390  60.6274340  35.1094980
  79.0928970  60.0165140  47.6846950  78.9536740  60.8887940  48.0534350
  78.2110330  59.6737950  47.5394890  85.4158350  64.9341010  38.9912080
  85.8554260  65.6765340  38.5767470  85.3545240  65.1767580  39.9151040
  80.8909320  65.9586840  49.8932100  80.8624750  66.3629790  49.0260530
  80.7274290  65.0297200  49.7303700  77.4062250  58.6147550  37.7949220
  77.2859850  59.3409640  37.1830490  77.0963140  57.8450460  37.3177130
  75.0447620  61.7862690  43.6017860  75.1228040  61.9211460  42.6573580
  75.6589300  61.0778580  43.7945980  76.2895250  63.4862880  40.0124040
  75.8823330  63.6277470  39.1577640  77.1808260  63.2023040  39.8095250
  86.1074130  67.6354790  46.9191090  86.6218800  67.5462800  47.7213520
  85.2643210  67.9814490  47.2119000  88.0828530  67.9210130  36.3475090
  87.9229670  67.6313070  37.2456920  87.9175240  67.1450260  35.8120320
  80.5616910  67.7008660  38.1246710  80.3859390  66.7844200  37.9114510
  79.7072650  68.0595950  38.3644510  87.7854660  65.4297690  34.9073090
  87.0919820  65.4274980  34.2475370  88.5277520  65.0057010  34.4767260
  87.3504590  67.0560400  38.9821580  87.8061540  66.2749780  39.2960200
  87.6897110  67.7667220  39.5262760  75.1007140  62.8276860  46.1412320
  75.2638180  62.3582220  45.3231690  75.5659590  62.3200420  46.8061160
  79.8725910  51.9582620  41.1772890  79.4294060  52.7392160  40.8457410
  80.4310900  52.2812510  41.8843830  84.1595720  54.8251140  46.7808210
  83.6975090  55.0334160  47.5928150  83.7573830  54.0110490  46.4778880
  89.1600230  56.0460090  47.9104870  88.3093820  55.7465840  48.2313940
  89.0002020  56.2902100  46.9988690  86.2549940  57.5461840  50.0103660
  86.5803350  56.7125590  49.6705890  87.0430270  58.0690360  50.1581990
  82.9884730  51.5793320  36.0578720  82.3638910  51.5753190  36.7832030
  82.9014850  50.7124280  35.6614690  81.9101810  52.5029950  43.0362490
  82.2074140  53.4092780  42.9554510  82.4587370  52.0148730  42.4222060
  79.6640130  57.0816190  38.9054140  79.4381050  56.8653360  39.8100760
  78.8832660  57.5144650  38.5600110  86.8937890  57.0879560  37.5044790
  86.2946780  57.8115360  37.3208410  87.4417500  57.0256340  36.7221240
  82.1039340  57.9801770  49.5714410  82.0082940  57.0396500  49.4214810
  82.9471320  58.2016840  49.1762480  85.5002760  55.7243100  39.5348070
  85.8932330  56.0415300  38.7216760  85.8619610  54.8454980  39.6492590
  77.2349880  54.3915440  47.7248190  76.8413270  55.2390650  47.9320970
  76.5468280  53.7541810  47.9156830  83.8094930  54.4750410  50.7944930
  83.1193250  54.2822610  51.4291020  84.5527230  54.7585050  51.3269230
  74.5366930  52.3143900  41.7578270  74.2479980  52.8846760  42.4703250
  75.2812690  51.8348350  42.1209500  74.7237160  56.2564020  32.9680990
  74.6411830  57.1994780  33.1095980  74.3720220  56.1138930  32.0893340
  86.0857900  58.3148850  43.6298850  85.3539020  58.8235660  43.9788950
  85.6882240  57.4978830  43.3287630  82.5235290  54.9903050  42.0351340
  82.5271350  54.5493000  41.1855880  83.4186410  55.3120380  42.1423160
  78.3737670  54.8729540  40.9945550  78.0337720  55.3504770  41.7512600
  77.6114990  54.4194660  40.6346650  82.5855440  55.9915130  35.0258100
  82.7068260  55.9501610  35.9743920  82.2003950  56.8539280  34.8704830
  86.5483810  53.7682530  43.0421790  86.5656550  54.2191180  43.8863640
  86.2999390  52.8688170  43.2555230  81.5976940  58.3016270  34.4241400
  81.0293840  57.8534520  33.7977310  82.3065940  58.6609050  33.8906550
  89.9754560  51.1814710  48.8808170  90.3000330  50.4504370  49.4066150
  90.0111070  50.8628350  47.9789160  76.6746120  62.2028290  48.3008130
  76.2900910  61.5621960  48.8991090  76.9858310  62.9064410  48.8702860
  82.8243260  59.0504830  43.7816750  83.1913390  58.5763400  44.5278090
  82.6348320  59.9246400  44.1225090  75.6883750  53.7948520  39.9110220
  75.4030670  53.4304190  40.7488840  75.6262610  53.0628980  39.2973360
  80.6142630  58.0913470  46.1000960  80.3099700  58.9705450  46.3251320
  81.5689090  58.1513260  46.1358400  79.1424420  62.2974460  36.6967810
  78.3686680  61.7572080  36.5366530  79.8719050  61.7781070  36.3585570
  89.9012400  61.2939820  42.4894200  90.6211520  61.7895110  42.0990310
  89.6994220  60.6157710  41.8448070  85.3622340  52.6877780  36.6323590
  84.5486950  52.1890950  36.5568900  85.1684290  53.5276030  36.2159940
  85.2831200  61.3648880  48.3763200  85.2168510  60.4444550  48.1220790
  84.6536340  61.4624320  49.0907840  88.0770730  57.0597430  34.9285750
  88.9650350  57.3714660  34.7537090  88.0475820  56.1869680  34.5366330
  79.1861820  61.9654840  40.3346620  79.7040490  61.1623100  40.2803510
  78.7345840  61.9033980  41.1763450  84.0731320  63.2321120  35.6073920
  84.4147020  63.9763350  35.1117240  83.2444030  63.5452240  35.9698750
  76.6706360  58.9316210  47.2472320  76.3121300  59.5970060  47.8345660
  76.3760920  58.0999760  47.6184940  79.8719480  59.3900450  50.1311870
  79.5719620  59.5357630  49.2339690  80.6430720  58.8305740  50.0385260
  85.2147930  64.1869450  48.1267000  85.2292470  63.2550410  47.9085910
  84.5073030  64.2729210  48.7656770  86.9558730  62.5536960  40.9719430
  87.3082550  61.9565090  40.3120800  86.0721060  62.2281190  41.1427680
  83.0422010  63.3134650  38.3789840  83.7293140  63.8603860  38.7597430
  82.2554430  63.8575380  38.4139450  75.1814410  58.9307470  33.8706920
  76.0509260  59.2132270  34.1542840  74.6904730  59.7443340  33.7555730
  82.3449220  60.3180680  37.9915200  82.8012000  61.1285930  38.2175390
  81.9937430  60.0003820  38.8233690  84.6481830  65.8287020  45.2207500
  85.2924050  66.0346400  45.8980920  85.0111270  65.0675420  44.7678350
  78.2461000  50.6618330  38.4637720  78.1175630  50.6536230  39.4122640
  77.4223020  51.0001420  38.1128730  85.9213910  63.8319370  43.9384950
  86.5636140  63.1312530  44.0517120  86.4463260  64.6117810  43.7581840
  89.7669630  64.1167990  33.6624090  89.5407210  63.3998430  34.2548730
  89.3765830  63.8680430  32.8245840  87.6951530  64.6314270  47.1421010
  88.0307770  65.2180960  47.8198930  86.7751870  64.5006980  47.3718800
  75.5485660  68.1434850  34.4368550  75.9083300  68.7424190  33.7825820
  75.4078000  68.6894740  35.2103580  75.2454930  52.4209450  47.9244420
  74.5313450  52.6206370  48.5297030  75.6649970  51.6449020  48.2959220
  89.3485880  62.0339930  35.3238250  89.0607580  62.4952620  36.1116130
  90.1438050  61.5737700  35.5922470  75.5327520  66.4089710  48.9110950
  75.6418640  65.4684450  48.7706340  74.8808080  66.6744460  48.2624680
  83.5240110  64.6805600  50.3109070  83.2036980  63.9614840  50.8554760
  82.8498470  65.3560670  50.3845130  81.5654280  65.5266050  35.2542220
  81.5564380  66.2595740  34.6386730  80.6452640  65.2797630  35.3469180
  77.1660920  60.7480940  35.9988980  76.5588870  61.4879840  36.0084280
  77.6410270  60.8380300  35.1727180  86.7393710  54.9131760  45.6745870
  87.1074530  54.0926970  46.0025440  85.8791910  54.9733650  46.0901520
  90.1055740  53.8688700  36.4833430  89.4768900  53.9734370  35.7691660
  89.6107660  54.0885480  37.2727310  84.5513880  65.5894290  33.9167410
  84.6525860  65.3858280  32.9869390  83.6515620  65.3352570  34.1215190
  82.0739770  56.1474650  37.8991310  81.3655920  56.6160990  38.3404920
  82.3584250  55.4896660  38.5336500  83.6995700  57.5671350  45.8983840
  84.1980950  58.0417170  46.5635690  83.8418650  56.6434870  46.1053870
  86.1055200  52.8725310  39.3387100  85.9822980  52.8911440  38.3896610
  87.0539760  52.9204250  39.4585500  83.1931990  68.1080610  38.6115080
  83.4473490  68.0702000  37.6894450  82.2444470  67.9813940  38.6043330
  80.2774790  54.4559730  35.2742020  81.1265320  54.8929880  35.2082210
  79.9106060  54.7679990  36.1014080  89.1984570  59.0272490  40.1873590
  88.2574710  59.0422720  40.3621280  89.5128640  58.2408450  40.6333890
  79.1766210  60.7092090  33.7477550  79.9429480  60.5973450  34.3102980
  79.2540900  60.0130060  33.0954320  77.8712970  58.1417160  34.4310440
  77.9516560  57.1944670  34.5427840  78.7632720  58.4724040  34.5371100
  78.6727680  68.2912550  41.5344980  79.4090160  67.7428010  41.8053550
  79.0568600  69.1568560  41.3950970  75.5573160  64.3586120  37.4086490
  74.6312940  64.6007260  37.3991900  76.0229590  65.1860380  37.2871240
  77.6785960  67.4758620  50.7230560  78.4798690  67.7970670  51.1365960
  77.1637780  67.1154200  51.4450470  81.7829990  67.4642860  33.3570550
  82.5758600  67.7531690  32.9052340  81.2634340  67.0335030  32.6783030
  86.5150590  63.5838490  50.6705970  85.9088750  63.6070090  49.9301720
  86.2104700  62.8521530  51.2073220  87.9450960  67.3118780  49.2815380
  88.8972710  67.2276800  49.2315620  87.7979180  67.9760490  49.9549170
  75.3983770  59.9632080  49.6666610  75.9022790  59.3839360  50.2382840
  74.6591190  60.2472310  50.2042980  82.3007390  62.6846270  33.2212900
  82.1958030  62.0698620  33.9474280  82.1331610  62.1612160  32.4375910
  82.4521710  61.3703070  49.2002130  81.6867380  61.9388070  49.1156800
  82.6337670  61.0779280  48.3070360  85.5410120  61.7466300  33.8254890
  84.9920220  62.1935600  34.4697630  86.1629380  61.2415550  34.3492560
  89.5945060  63.1008400  49.7577150  90.3354530  63.4384160  49.2544610
  88.8317740  63.2700460  49.2046920  77.4306850  58.1061670  50.5616680
  77.4712190  57.8075540  51.4701910  78.2852350  58.5069280  50.4024200
  81.2085240  60.7057220  35.7220190  81.6301660  60.5397090  36.5651580
  81.3336080  59.8957450  35.2275330  79.3712660  56.6853770  48.5291170
  78.8409120  56.1944720  47.9014510  80.0400730  57.1137970  47.9949100
  83.7212880  59.7294830  32.9697290  84.2418540  59.0143850  32.6038440
  84.3681280  60.3680700  33.2697800  88.2690720  61.1523230  48.2932360
  88.6831740  61.3068310  49.1422780  87.3341720  61.2778450  48.4558140
  88.7412890  58.4919390  50.2971510  89.3233660  57.7371710  50.2091990
  88.9174660  59.0226830  49.5202990  79.8584960  53.6516140  48.6088460
  79.7641830  53.0336890  47.8839330  79.2782350  54.3782430  48.3818370
  82.6246400  52.2089380  45.6415850  82.1763700  52.2313640  44.7961400
  81.9911600  51.8108400  46.2386150  83.0305950  61.1043710  46.2628290
  83.4494060  61.9476440  46.0904530  82.1114580  61.2415750  46.0335070
  85.3669850  58.8359890  47.6466130  85.4866060  58.2401030  48.3860970
  86.2263850  58.8729580  47.2267430  87.7057750  59.3897080  46.2228640
  87.1792970  59.9139700  45.6193780  88.0489090  60.0224470  46.8538370
  80.1044140  56.7790450  32.6678350  79.9033200  55.9157810  33.0291690
  79.9336190  56.6923810  31.7299950  80.8813370  67.4096720  47.3786020
  80.3434460  68.1342780  47.0594720  81.1347330  66.9327060  46.5883360
  82.1338620  55.3781240  48.9041950  82.7238310  55.0697090  49.5919770
  81.3158860  54.9060990  49.0601850  86.9532050  54.9947050  49.1374970
  86.2647570  54.3328590  49.0724960  87.6738070  54.5485320  49.5823430
  87.5832450  51.5898680  35.1965230  87.8634740  50.7466580  35.5524650
  86.8098180  51.8221790  35.7103980  78.9026940  53.8791070  32.6556230
  79.2052840  53.8858500  31.7475380  79.6421530  53.5288930  33.1523890
  83.7375580  68.6447930  47.6372670  83.6634280  69.5483070  47.9445040
  82.8354420  68.3259830  47.6094740  82.1211870  52.8225690  33.6412430
  81.7733870  52.1449680  33.0614880  82.3224640  52.3615200  34.4555820
  84.2860910  67.8106440  35.2599030  85.1811700  68.1491410  35.2817790
  84.3178540  67.0885850  34.6323310  77.9257070  63.1833490  33.4886030
  78.3631940  63.7263160  34.1443610  78.4104800  62.3580440  33.4982370
  75.1402870  65.9722520  40.9406290  75.4705880  65.1043580  40.7084930
  75.5693870  66.1781040  41.7711250  79.7364790  64.3031530  38.6008260
  79.4360330  64.1796500  39.5012170  79.6302280  63.4440120  38.1923990
  75.6293080  66.8393110  43.6787920  75.1924070  67.0193910  44.5112070
  76.1970760  67.5967730  43.5369640  75.4617510  59.3513340  40.0376800
  74.8066350  59.0824980  39.3936500  76.2995460  59.2417820  39.5878780
  89.9506900  63.0662090  46.0641390  89.1366740  63.4959250  46.3267180
  90.3581100  63.6780500  45.4510440  88.4107950  54.1454630  34.2595290
  88.8292830  53.9585610  33.4191950  88.1044010  53.2933680  34.5698220
  76.4993440  59.7365910  44.5780140  76.8666480  59.6493310  45.4576160
  75.9304260  58.9732460  44.4787000  76.0509440  56.6475000  48.4838560
  75.1565490  56.6141760  48.8232270  76.5906990  56.8461790  49.2489810
  89.7385370  53.4306720  50.3690310  90.6155550  53.4390120  50.7524310
  89.7506210  52.6937560  49.7582660  74.6755590  56.5612270  35.9802130
  73.7719670  56.8242470  35.8053790  75.1596210  56.8323440  35.2002090
  77.2182800  55.6177810  33.8896510  77.9274500  55.1961030  33.4043790
  76.5022740  55.6853040  33.2579860  76.8656960  51.6717140  32.9299160
  77.5885090  52.2126080  33.2480380  77.1381480  51.3980560  32.0540700
  76.5549150  50.9223330  42.8321780  77.2025340  50.3720710  42.3916940
  76.9750990  51.1766480  43.6537590  90.0082950  67.8180690  39.5909660
  90.6042020  67.4965260  38.9144080  90.2661100  67.3452510  40.3822930
  76.3081150  51.0779000  45.5747100  75.9595970  51.5342820  46.3405280
  75.9768850  50.1836130  45.6569530  77.9145520  64.2498600  49.7400290
  77.8715150  63.8791510  50.6214750  78.0456530  65.1876170  49.8802110
  81.6151550  65.8058190  45.3410010  81.3742910  66.0732750  44.4540530
  82.5554190  65.9763920  45.3960870  83.8205970  52.2690880  49.0966520
  83.7594860  52.8612710  49.8461930  84.7606350  52.1616840  48.9516780
  86.4580530  51.9260940  48.7358810  87.0720940  52.2440230  48.0739890
  87.0030090  51.4409530  49.3554670  76.9801790  50.6055200  48.8497870
  77.5284780  50.4243250  48.0863980  77.0457100  49.8149310  49.3854180
  77.7533550  67.1960850  46.8598070  77.1593870  67.0645550  47.5988110
  77.7457390  66.3598990  46.3940170  87.1988570  50.4893080  45.0628100
  86.3248410  50.8228190  44.8601030  87.0899320  50.0166260  45.8879970
  88.1060550  52.6963950  46.4469820  87.7773910  51.8815710  46.0671550
  89.0542850  52.6533760  46.3235510  90.5595160  68.4675990  43.4207390
  90.0998130  69.2191800  43.0465410  89.9307620  67.7482460  43.3622190
  77.3845780  64.5619230  45.8106110  76.6579840  63.9424520  45.7432060
  77.4454930  64.9559840  44.9404190  80.9890880  66.7764230  42.5955520
  81.5055900  66.1651590  42.0703780  81.6388260  67.2793010  43.0866530
  83.7286380  67.6672720  43.4224500  84.0164190  67.4127020  42.5457510
  84.2409600  67.1150080  44.0130070  84.9463390  51.4062920  44.0021010
  84.1635180  51.8808420  44.2817770  84.6526320  50.5017750  43.8934190
  89.4984460  52.1086020  42.0470100  89.9392550  52.0531120  41.1991700
  89.2292050  53.0244030  42.1180280  75.6675780  67.8793620  39.0202870
  75.4997820  67.2464300  39.7184760  74.8010290  68.0853020  38.6697060
  76.2903800  51.7110400  36.5234730  77.0483160  51.8239280  35.9498760
  75.8280970  52.5479600  36.4778160  82.8317610  53.8249670  39.5137040
  82.0192120  53.4506560  39.1732920  83.3359250  53.0694750  39.8158230
  87.3342590  50.4892120  40.7520110  87.9371960  51.0612330  41.2268630
  86.5935580  51.0531560  40.5294010  77.2738480  66.5726850  36.4653010
  76.7486100  66.9534880  35.7614970  77.1983060  67.1977620  37.1862720
  78.6628950  52.2374450  35.0636700  79.1921710  51.4504250  34.9344650
  79.2957270  52.9165640  35.2972230  80.8566790  51.9749590  38.1182090
  80.2269530  51.2736900  38.2852220  80.3171930  52.7353720  37.9015250
  83.7958740  68.5888820  50.7892700  84.7226050  68.3533090  50.8328660
  83.7809170  69.4160820  50.3078730  80.9822350  51.2533570  50.5534580
  80.7006620  51.7567170  49.7895400  81.3642050  50.4555320  50.1876710
  79.8731450  68.5209230  35.3402260  80.6050270  68.2368510  34.7926150
  80.1325120  68.2822510  36.2301640  79.0346240  64.6373960  35.3448590
  78.4055120  65.1059060  35.8934420  79.1494070  63.7923180  35.7794780
  87.5837810  50.6687150  51.1315050  87.4703260  50.9881760  52.0266570
  88.4007550  51.0699660  50.8352330  86.4895960  58.6879620  21.4949790
  86.4090010  57.7734230  21.2241500  86.0760380  59.1846690  20.7889500
  84.6214000  60.4658640  23.3759060  83.8456100  59.9859080  23.6657630
  85.2726930  59.7864290  23.2015220  78.6379830  60.7778450  24.2534820
  77.8064710  60.5227160  24.6531330  79.2460810  60.8489220  24.9892740
  88.6421430  64.8718830  22.1558190  88.1802960  64.1006070  22.4845360
  89.4546980  64.8984900  22.6610640  78.6181090  64.8118540  24.4492840
  78.9209130  63.9216280  24.2703060  79.3624680  65.3688760  24.2215090
  77.0471780  55.7380340  18.0377210  76.1588480  56.0796310  17.9357090
  77.3312970  55.5380660  17.1458040  75.0104790  58.3385990  23.9216910
  75.5820900  57.5708190  23.9220550  75.0106330  58.6374750  23.0123520
  84.8684740  67.1576840  21.7762180  84.2496180  67.6134340  21.2056620
  85.7236520  67.3128300  21.3751880  84.0622990  63.1415830  23.3829220
  83.9931270  62.2005770  23.2218350  84.8242850  63.2317240  23.9551790
  76.2529660  53.7470350  25.7085840  76.0732500  52.8496100  25.9888600
  75.8509740  54.2942220  26.3832790  85.0928160  55.9486210  23.6098150
  85.4692980  55.0758090  23.4971820  84.9947670  56.2844910  22.7188590
  79.2233170  54.3211840  19.0715590  79.3299920  55.2215570  19.3784350
  78.3125530  54.2729810  18.7810240  88.8752280  53.4436650  20.5426490
  89.6961900  52.9533220  20.5851970  88.9086360  54.0334310  21.2958330
  76.8716330  56.2430850  24.3168180  77.5526440  56.5069220  24.9355580
  76.5564380  55.4031720  24.6506190  81.0640900  57.2898210  23.4040770
  81.5719120  57.7879180  24.0445790  81.5954140  56.5133410  23.2280130
  79.3477000  51.9296770  27.6704190  79.3495440  52.4469160  26.8650090
  78.5181310  51.4526950  27.6474120  85.7348090  62.0416080  19.1694090
  85.1165360  62.5065530  18.6056810  86.2471340  62.7343560  19.5863600
  80.5979850  61.5691950  25.8477690  80.2649230  62.1960870  26.4898760
  80.7746530  62.0953830  25.0679360  89.1113760  55.3837030  23.3154030
  88.4069330  55.6721920  23.8957140  89.4725920  56.1937140  22.9553590
  79.0292330  53.6406730  25.6774640  79.3709140  54.4848780  25.3828510
  78.0908140  53.7890470  25.7939980  79.8098950  63.5372750  27.6626870
  80.4272950  64.2123830  27.3811320  78.9492070  63.9460730  27.5714370
  75.1031290  62.7272610  16.5433720  74.7259270  63.2159710  15.8118620
  75.3604360  63.3997890  17.1740250  82.7120220  51.1289000  22.0019230
  83.0195200  50.5735890  21.2854730  81.7820920  51.2633460  21.8192220
  88.2635280  66.8456290  24.2926690  88.2762440  66.4418580  23.4248950
  87.7110500  67.6203580  24.1888120  89.5580700  63.5672510  19.3816860
  89.4477030  62.6246840  19.5066280  89.5548950  63.9288150  20.2679620
  87.6620720  61.7486130  25.6209300  88.0789510  61.5346240  24.7862760
  88.3860540  62.0058920  26.1917920  85.1000980  59.1937830  18.7379350
  84.1730260  59.1275210  18.9667820  85.2525800  60.1317960  18.6234590
  85.0870060  55.4654830  15.7346510  84.1473730  55.6268790  15.8198970
  85.4053320  56.1840510  15.1882500  89.1298270  60.7558130  19.2414600
  88.5110690  60.4177680  18.5940900  89.1122720  60.1117890  19.9493790
  88.5724830  56.9342670  26.6580410  88.1596010  57.7596380  26.9120400
  87.8400780  56.3487710  26.4656770  80.7057620  59.7202570  21.5199080
  80.3014620  59.0079820  21.0244980  80.7920740  59.3755810  22.4087120
  81.1739320  63.4070130  23.6838290  80.8767610  62.8015600  23.0046070
  82.1239140  63.4447440  23.5727650  79.4186240  56.4945780  25.2998120
  79.9700830  56.6041120  24.5251370  79.9329750  56.8683380  26.0153350
  89.2624930  66.9802000  27.3461390  88.7855490  67.7874190  27.1534000
  88.5786720  66.3280330  27.4987600  80.2657750  63.1451820  30.3346090
  79.3686280  63.3691790  30.5819490  80.2910620  63.2686760  29.3857490
  87.3062970  59.9944940  16.2487350  87.7456250  59.1567370  16.1025170
  88.0191390  60.6274340  16.3351490  79.0928970  60.0165140  28.9103460
  78.9536740  60.8887940  29.2790860  78.2110330  59.6737950  28.7651400
  85.4158350  64.9341010  20.2168590  85.8554260  65.6765340  19.8023980
  85.3545240  65.1767580  21.1407550  80.8909320  65.9586840  31.1188610
  80.8624750  66.3629790  30.2517040  80.7274290  65.0297200  30.9560210
  77.4062250  58.6147550  19.0205730  77.2859850  59.3409640  18.4087000
  77.0963140  57.8450460  18.5433640  75.0447620  61.7862690  24.8274370
  75.1228040  61.9211460  23.8830090  75.6589300  61.0778580  25.0202490
  76.2895250  63.4862880  21.2380550  75.8823330  63.6277470  20.3834150
  77.1808260  63.2023040  21.0351760  86.1074130  67.6354790  28.1447600
  86.6218800  67.5462800  28.9470030  85.2643210  67.9814490  28.4375510
  88.0828530  67.9210130  17.5731600  87.9229670  67.6313070  18.4713430
  87.9175240  67.1450260  17.0376830  80.5616910  67.7008660  19.3503220
  80.3859390  66.7844200  19.1371020  79.7072650  68.0595950  19.5901020
  87.7854660  65.4297690  16.1329600  87.0919820  65.4274980  15.4731880
  88.5277520  65.0057010  15.7023770  87.3504590  67.0560400  20.2078090
  87.8061540  66.2749780  20.5216710  87.6897110  67.7667220  20.7519270
  75.1007140  62.8276860  27.3668830  75.2638180  62.3582220  26.5488200
  75.5659590  62.3200420  28.0317670  79.8725910  51.9582620  22.4029400
  79.4294060  52.7392160  22.0713920  80.4310900  52.2812510  23.1100340
  84.1595720  54.8251140  28.0064720  83.6975090  55.0334160  28.8184660
  83.7573830  54.0110490  27.7035390  89.1600230  56.0460090  29.1361380
  88.3093820  55.7465840  29.4570450  89.0002020  56.2902100  28.2245200
  86.2549940  57.5461840  31.2360170  86.5803350  56.7125590  30.8962400
  87.0430270  58.0690360  31.3838500  82.9884730  51.5793320  17.2835230
  82.3638910  51.5753190  18.0088540  82.9014850  50.7124280  16.8871200
  81.9101810  52.5029950  24.2619000  82.2074140  53.4092780  24.1811020
  82.4587370  52.0148730  23.6478570  79.6640130  57.0816190  20.1310650
  79.4381050  56.8653360  21.0357270  78.8832660  57.5144650  19.7856620
  86.8937890  57.0879560  18.7301300  86.2946780  57.8115360  18.5464920
  87.4417500  57.0256340  17.9477750  82.1039340  57.9801770  30.7970920
  82.0082940  57.0396500  30.6471320  82.9471320  58.2016840  30.4018990
  85.5002760  55.7243100  20.7604580  85.8932330  56.0415300  19.9473270
  85.8619610  54.8454980  20.8749100  77.2349880  54.3915440  28.9504700
  76.8413270  55.2390650  29.1577480  76.5468280  53.7541810  29.1413340
  83.8094930  54.4750410  32.0201440  83.1193250  54.2822610  32.6547530
  84.5527230  54.7585050  32.5525740  74.5366930  52.3143900  22.9834780
  74.2479980  52.8846760  23.6959760  75.2812690  51.8348350  23.3466010
  74.7237160  56.2564020  14.1937500  74.6411830  57.1994780  14.3352490
  74.3720220  56.1138930  13.3149850  86.0857900  58.3148850  24.8555360
  85.3539020  58.8235660  25.2045460  85.6882240  57.4978830  24.5544140
  82.5235290  54.9903050  23.2607850  82.5271350  54.5493000  22.4112390
  83.4186410  55.3120380  23.3679670  78.3737670  54.8729540  22.2202060
  78.0337720  55.3504770  22.9769110  77.6114990  54.4194660  21.8603160
  82.5855440  55.9915130  16.2514610  82.7068260  55.9501610  17.2000430
  82.2003950  56.8539280  16.0961340  86.5483810  53.7682530  24.2678300
  86.5656550  54.2191180  25.1120150  86.2999390  52.8688170  24.4811740
  81.5976940  58.3016270  15.6497910  81.0293840  57.8534520  15.0233820
  82.3065940  58.6609050  15.1163060  89.9754560  51.1814710  30.1064680
  90.3000330  50.4504370  30.6322660  90.0111070  50.8628350  29.2045670
  76.6746120  62.2028290  29.5264640  76.2900910  61.5621960  30.1247600
  76.9858310  62.9064410  30.0959370  82.8243260  59.0504830  25.0073260
  83.1913390  58.5763400  25.7534600  82.6348320  59.9246400  25.3481600
  75.6883750  53.7948520  21.1366730  75.4030670  53.4304190  21.9745350
  75.6262610  53.0628980  20.5229870  80.6142630  58.0913470  27.3257470
  80.3099700  58.9705450  27.5507830  81.5689090  58.1513260  27.3614910
  79.1424420  62.2974460  17.9224320  78.3686680  61.7572080  17.7623040
  79.8719050  61.7781070  17.5842080  89.9012400  61.2939820  23.7150710
  90.6211520  61.7895110  23.3246820  89.6994220  60.6157710  23.0704580
  85.3622340  52.6877780  17.8580100  84.5486950  52.1890950  17.7825410
  85.1684290  53.5276030  17.4416450  85.2831200  61.3648880  29.6019710
  85.2168510  60.4444550  29.3477300  84.6536340  61.4624320  30.3164350
  88.0770730  57.0597430  16.1542260  88.9650350  57.3714660  15.9793600
  88.0475820  56.1869680  15.7622840  79.1861820  61.9654840  21.5603130
  79.7040490  61.1623100  21.5060020  78.7345840  61.9033980  22.4019960
  84.0731320  63.2321120  16.8330430  84.4147020  63.9763350  16.3373750
  83.2444030  63.5452240  17.1955260  76.6706360  58.9316210  28.4728830
  76.3121300  59.5970060  29.0602170  76.3760920  58.0999760  28.8441450
  79.8719480  59.3900450  31.3568380  79.5719620  59.5357630  30.4596200
  80.6430720  58.8305740  31.2641770  85.2147930  64.1869450  29.3523510
  85.2292470  63.2550410  29.1342420  84.5073030  64.2729210  29.9913280
  86.9558730  62.5536960  22.1975940  87.3082550  61.9565090  21.5377310
  86.0721060  62.2281190  22.3684190  83.0422010  63.3134650  19.6046350
  83.7293140  63.8603860  19.9853940  82.2554430  63.8575380  19.6395960
  75.1814410  58.9307470  15.0963430  76.0509260  59.2132270  15.3799350
  74.6904730  59.7443340  14.9812240  82.3449220  60.3180680  19.2171710
  82.8012000  61.1285930  19.4431900  81.9937430  60.0003820  20.0490200
  84.6481830  65.8287020  26.4464010  85.2924050  66.0346400  27.1237430
  85.0111270  65.0675420  25.9934860  78.2461000  50.6618330  19.6894230
  78.1175630  50.6536230  20.6379150  77.4223020  51.0001420  19.3385240
  85.9213910  63.8319370  25.1641460  86.5636140  63.1312530  25.2773630
  86.4463260  64.6117810  24.9838350  89.7669630  64.1167990  14.8880600
  89.5407210  63.3998430  15.4805240  89.3765830  63.8680430  14.0502350
  87.6951530  64.6314270  28.3677520  88.0307770  65.2180960  29.0455440
  86.7751870  64.5006980  28.5975310  75.5485660  68.1434850  15.6625060
  75.9083300  68.7424190  15.0082330  75.4078000  68.6894740  16.4360090
  75.2454930  52.4209450  29.1500930  74.5313450  52.6206370  29.7553540
  75.6649970  51.6449020  29.5215730  89.3485880  62.0339930  16.5494760
  89.0607580  62.4952620  17.3372640  90.1438050  61.5737700  16.8178980
  75.5327520  66.4089710  30.1367460  75.6418640  65.4684450  29.9962850
  74.8808080  66.6744460  29.4881190  83.5240110  64.6805600  31.5365580
  83.2036980  63.9614840  32.0811270  82.8498470  65.3560670  31.6101640
  81.5654280  65.5266050  16.4798730  81.5564380  66.2595740  15.8643240
  80.6452640  65.2797630  16.5725690  77.1660920  60.7480940  17.2245490
  76.5588870  61.4879840  17.2340790  77.6410270  60.8380300  16.3983690
  86.7393710  54.9131760  26.9002380  87.1074530  54.0926970  27.2281950
  85.8791910  54.9733650  27.3158030  90.1055740  53.8688700  17.7089940
  89.4768900  53.9734370  16.9948170  89.6107660  54.0885480  18.4983820
  84.5513880  65.5894290  15.1423920  84.6525860  65.3858280  14.2125900
  83.6515620  65.3352570  15.3471700  82.0739770  56.1474650  19.1247820
  81.3655920  56.6160990  19.5661430  82.3584250  55.4896660  19.7593010
  83.6995700  57.5671350  27.1240350  84.1980950  58.0417170  27.7892200
  83.8418650  56.6434870  27.3310380  86.1055200  52.8725310  20.5643610
  85.9822980  52.8911440  19.6153120  87.0539760  52.9204250  20.6842010
  83.1931990  68.1080610  19.8371590  83.4473490  68.0702000  18.9150960
  82.2444470  67.9813940  19.8299840  80.2774790  54.4559730  16.4998530
  81.1265320  54.8929880  16.4338720  79.9106060  54.7679990  17.3270590
  89.1984570  59.0272490  21.4130100  88.2574710  59.0422720  21.5877790
  89.5128640  58.2408450  21.8590400  79.1766210  60.7092090  14.9734060
  79.9429480  60.5973450  15.5359490  79.2540900  60.0130060  14.3210830
  77.8712970  58.1417160  15.6566950  77.9516560  57.1944670  15.7684350
  78.7632720  58.4724040  15.7627610  78.6727680  68.2912550  22.7601490
  79.4090160  67.7428010  23.0310060  79.0568600  69.1568560  22.6207480
  75.5573160  64.3586120  18.6343000  74.6312940  64.6007260  18.6248410
  76.0229590  65.1860380  18.5127750  77.6785960  67.4758620  31.9487070
  78.4798690  67.7970670  32.3622470  77.1637780  67.1154200  32.6706980
  81.7829990  67.4642860  14.5827060  82.5758600  67.7531690  14.1308850
  81.2634340  67.0335030  13.9039540  86.5150590  63.5838490  31.8962480
  85.9088750  63.6070090  31.1558230  86.2104700  62.8521530  32.4329730
  87.9450960  67.3118780  30.5071890  88.8972710  67.2276800  30.4572130
  87.7979180  67.9760490  31.1805680  75.3983770  59.9632080  30.8923120
  75.9022790  59.3839360  31.4639350  74.6591190  60.2472310  31.4299490
  82.3007390  62.6846270  14.4469410  82.1958030  62.0698620  15.1730790
  82.1331610  62.1612160  13.6632420  82.4521710  61.3703070  30.4258640
  81.6867380  61.9388070  30.3413310  82.6337670  61.0779280  29.5326870
  85.5410120  61.7466300  15.0511400  84.9920220  62.1935600  15.6954140
  86.1629380  61.2415550  15.5749070  89.5945060  63.1008400  30.9833660
  90.3354530  63.4384160  30.4801120  88.8317740  63.2700460  30.4303430
  77.4306850  58.1061670  31.7873190  77.4712190  57.8075540  32.6958420
  78.2852350  58.5069280  31.6280710  81.2085240  60.7057220  16.9476700
  81.6301660  60.5397090  17.7908090  81.3336080  59.8957450  16.4531840
  79.3712660  56.6853770  29.7547680  78.8409120  56.1944720  29.1271020
  80.0400730  57.1137970  29.2205610  83.7212880  59.7294830  14.1953800
  84.2418540  59.0143850  13.8294950  84.3681280  60.3680700  14.4954310
  88.2690720  61.1523230  29.5188870  88.6831740  61.3068310  30.3679290
  87.3341720  61.2778450  29.6814650  88.7412890  58.4919390  31.5228020
  89.3233660  57.7371710  31.4348500  88.9174660  59.0226830  30.7459500
  79.8584960  53.6516140  29.8344970  79.7641830  53.0336890  29.1095840
  79.2782350  54.3782430  29.6074880  82.6246400  52.2089380  26.8672360
  82.1763700  52.2313640  26.0217910  81.9911600  51.8108400  27.4642660
  83.0305950  61.1043710  27.4884800  83.4494060  61.9476440  27.3161040
  82.1114580  61.2415750  27.2591580  85.3669850  58.8359890  28.8722640
  85.4866060  58.2401030  29.6117480  86.2263850  58.8729580  28.4523940
  87.7057750  59.3897080  27.4485150  87.1792970  59.9139700  26.8450290
  88.0489090  60.0224470  28.0794880  80.1044140  56.7790450  13.8934860
  79.9033200  55.9157810  14.2548200  79.9336190  56.6923810  12.9556460
  80.8813370  67.4096720  28.6042530  80.3434460  68.1342780  28.2851230
  81.1347330  66.9327060  27.8139870  82.1338620  55.3781240  30.1298460
  82.7238310  55.0697090  30.8176280  81.3158860  54.9060990  30.2858360
  86.9532050  54.9947050  30.3631480  86.2647570  54.3328590  30.2981470
  87.6738070  54.5485320  30.8079940  87.5832450  51.5898680  16.4221740
  87.8634740  50.7466580  16.7781160  86.8098180  51.8221790  16.9360490
  78.9026940  53.8791070  13.8812740  79.2052840  53.8858500  12.9731890
  79.6421530  53.5288930  14.3780400  83.7375580  68.6447930  28.8629180
  83.6634280  69.5483070  29.1701550  82.8354420  68.3259830  28.8351250
  82.1211870  52.8225690  14.8668940  81.7733870  52.1449680  14.2871390
  82.3224640  52.3615200  15.6812330  84.2860910  67.8106440  16.4855540
  85.1811700  68.1491410  16.5074300  84.3178540  67.0885850  15.8579820
  77.9257070  63.1833490  14.7142540  78.3631940  63.7263160  15.3700120
  78.4104800  62.3580440  14.7238880  75.1402870  65.9722520  22.1662800
  75.4705880  65.1043580  21.9341440  75.5693870  66.1781040  22.9967760
  79.7364790  64.3031530  19.8264770  79.4360330  64.1796500  20.7268680
  79.6302280  63.4440120  19.4180500  75.6293080  66.8393110  24.9044430
  75.1924070  67.0193910  25.7368580  76.1970760  67.5967730  24.7626150
  75.4617510  59.3513340  21.2633310  74.8066350  59.0824980  20.6193010
  76.2995460  59.2417820  20.8135290  89.9506900  63.0662090  27.2897900
  89.1366740  63.4959250  27.5523690  90.3581100  63.6780500  26.6766950
  88.4107950  54.1454630  15.4851800  88.8292830  53.9585610  14.6448460
  88.1044010  53.2933680  15.7954730  76.4993440  59.7365910  25.8036650
  76.8666480  59.6493310  26.6832670  75.9304260  58.9732460  25.7043510
  76.0509440  56.6475000  29.7095070  75.1565490  56.6141760  30.0488780
  76.5906990  56.8461790  30.4746320  89.7385370  53.4306720  31.5946820
  90.6155550  53.4390120  31.9780820  89.7506210  52.6937560  30.9839170
  74.6755590  56.5612270  17.2058640  73.7719670  56.8242470  17.0310300
  75.1596210  56.8323440  16.4258600  77.2182800  55.6177810  15.1153020
  77.9274500  55.1961030  14.6300300  76.5022740  55.6853040  14.4836370
  76.8656960  51.6717140  14.1555670  77.5885090  52.2126080  14.4736890
  77.1381480  51.3980560  13.2797210  76.5549150  50.9223330  24.0578290
  77.2025340  50.3720710  23.6173450  76.9750990  51.1766480  24.8794100
  90.0082950  67.8180690  20.8166170  90.6042020  67.4965260  20.1400590
  90.2661100  67.3452510  21.6079440  76.3081150  51.0779000  26.8003610
  75.9595970  51.5342820  27.5661790  75.9768850  50.1836130  26.8826040
  77.9145520  64.2498600  30.9656800  77.8715150  63.8791510  31.8471260
  78.0456530  65.1876170  31.1058620  81.6151550  65.8058190  26.5666520
  81.3742910  66.0732750  25.6797040  82.5554190  65.9763920  26.6217380
  83.8205970  52.2690880  30.3223030  83.7594860  52.8612710  31.0718440
  84.7606350  52.1616840  30.1773290  86.4580530  51.9260940  29.9615320
  87.0720940  52.2440230  29.2996400  87.0030090  51.4409530  30.5811180
  76.9801790  50.6055200  30.0754380  77.5284780  50.4243250  29.3120490
  77.0457100  49.8149310  30.6110690  77.7533550  67.1960850  28.0854580
  77.1593870  67.0645550  28.8244620  77.7457390  66.3598990  27.6196680
  87.1988570  50.4893080  26.2884610  86.3248410  50.8228190  26.0857540
  87.0899320  50.0166260  27.1136480  88.1060550  52.6963950  27.6726330
  87.7773910  51.8815710  27.2928060  89.0542850  52.6533760  27.5492020
  90.5595160  68.4675990  24.6463900  90.0998130  69.2191800  24.2721920
  89.9307620  67.7482460  24.5878700  77.3845780  64.5619230  27.0362620
  76.6579840  63.9424520  26.9688570  77.4454930  64.9559840  26.1660700
  80.9890880  66.7764230  23.8212030  81.5055900  66.1651590  23.2960290
  81.6388260  67.2793010  24.3123040  83.7286380  67.6672720  24.6481010
  84.0164190  67.4127020  23.7714020  84.2409600  67.1150080  25.2386580
  84.9463390  51.4062920  25.2277520  84.1635180  51.8808420  25.5074280
  84.6526320  50.5017750  25.1190700  89.4984460  52.1086020  23.2726610
  89.9392550  52.0531120  22.4248210  89.2292050  53.0244030  23.3436790
  75.6675780  67.8793620  20.2459380  75.4997820  67.2464300  20.9441270
  74.8010290  68.0853020  19.8953570  76.2903800  51.7110400  17.7491240
  77.0483160  51.8239280  17.1755270  75.8280970  52.5479600  17.7034670
  82.8317610  53.8249670  20.7393550  82.0192120  53.4506560  20.3989430
  83.3359250  53.0694750  21.0414740  87.3342590  50.4892120  21.9776620
  87.9371960  51.0612330  22.4525140  86.5935580  51.0531560  21.7550520
  77.2738480  66.5726850  17.6909520  76.7486100  66.9534880  16.9871480
  77.1983060  67.1977620  18.4119230  78.6628950  52.2374450  16.2893210
  79.1921710  51.4504250  16.1601160  79.2957270  52.9165640  16.5228740
  80.8566790  51.9749590  19.3438600  80.2269530  51.2736900  19.5108730
  80.3171930  52.7353720  19.1271760  83.7958740  68.5888820  32.0149210
  84.7226050  68.3533090  32.0585170  83.7809170  69.4160820  31.5335240
  80.9822350  51.2533570  31.7791090  80.7006620  51.7567170  31.0151910
  81.3642050  50.4555320  31.4133220  79.8731450  68.5209230  16.5658770
  80.6050270  68.2368510  16.0182660  80.1325120  68.2822510  17.4558150
  79.0346240  64.6373960  16.5705100  78.4055120  65.1059060  17.1190930
  79.1494070  63.7923180  17.0051290  87.5837810  50.6687150  32.3571560
  87.4703260  50.9881760  33.2523080  88.4007550  51.0699660  32.0608840
  86.4895960  58.6879620   2.7206300  86.4090010  57.7734230   2.4498010
  86.0760380  59.1846690   2.0146010  84.6214000  60.4658640   4.6015570
  83.8456100  59.9859080   4.8914140  85.2726930  59.7864290   4.4271730
  78.6379830  60.7778450   5.4791330  77.8064710  60.5227160   5.8787840
  79.2460810  60.8489220   6.2149250  88.6421430  64.8718830   3.3814700
  88.1802960  64.1006070   3.7101870  89.4546980  64.8984900   3.8867150
  78.6181090  64.8118540   5.6749350  78.9209130  63.9216280   5.4959570
  79.3624680  65.3688760   5.4471600  75.0104790  58.3385990   5.1473420
  75.5820900  57.5708190   5.1477060  75.0106330  58.6374750   4.2380030
  84.8684740  67.1576840   3.0018690  84.2496180  67.6134340   2.4313130
  85.7236520  67.3128300   2.6008390  84.0622990  63.1415830   4.6085730
  83.9931270  62.2005770   4.4474860  84.8242850  63.2317240   5.1808300
  76.2529660  53.7470350   6.9342350  76.0732500  52.8496100   7.2145110
  75.8509740  54.2942220   7.6089300  85.0928160  55.9486210   4.8354660
  85.4692980  55.0758090   4.7228330  84.9947670  56.2844910   3.9445100
  88.8752280  53.4436650   1.7683000  89.6961900  52.9533220   1.8108480
  88.9086360  54.0334310   2.5214840  76.8716330  56.2430850   5.5424690
  77.5526440  56.5069220   6.1612090  76.5564380  55.4031720   5.8762700
  81.0640900  57.2898210   4.6297280  81.5719120  57.7879180   5.2702300
  81.5954140  56.5133410   4.4536640  79.3477000  51.9296770   8.8960700
  79.3495440  52.4469160   8.0906600  78.5181310  51.4526950   8.8730630
  80.5979850  61.5691950   7.0734200  80.2649230  62.1960870   7.7155270
  80.7746530  62.0953830   6.2935870  89.1113760  55.3837030   4.5410540
  88.4069330  55.6721920   5.1213650  89.4725920  56.1937140   4.1810100
  79.0292330  53.6406730   6.9031150  79.3709140  54.4848780   6.6085020
  78.0908140  53.7890470   7.0196490  79.8098950  63.5372750   8.8883380
  80.4272950  64.2123830   8.6067830  78.9492070  63.9460730   8.7970880
  82.7120220  51.1289000   3.2275740  83.0195200  50.5735890   2.5111240
  81.7820920  51.2633460   3.0448730  88.2635280  66.8456290   5.5183200
  88.2762440  66.4418580   4.6505460  87.7110500  67.6203580   5.4144630
  87.6620720  61.7486130   6.8465810  88.0789510  61.5346240   6.0119270
  88.3860540  62.0058920   7.4174430  88.5724830  56.9342670   7.8836920
  88.1596010  57.7596380   8.1376910  87.8400780  56.3487710   7.6913280
  80.7057620  59.7202570   2.7455590  80.3014620  59.0079820   2.2501490
  80.7920740  59.3755810   3.6343630  81.1739320  63.4070130   4.9094800
  80.8767610  62.8015600   4.2302580  82.1239140  63.4447440   4.7984160
  79.4186240  56.4945780   6.5254630  79.9700830  56.6041120   5.7507880
  79.9329750  56.8683380   7.2409860  89.2624930  66.9802000   8.5717900
  88.7855490  67.7874190   8.3790510  88.5786720  66.3280330   8.7244110
  80.2657750  63.1451820  11.5602600  79.3686280  63.3691790  11.8076000
  80.2910620  63.2686760  10.6114000  79.0928970  60.0165140  10.1359970
  78.9536740  60.8887940  10.5047370  78.2110330  59.6737950   9.9907910
  80.8909320  65.9586840  12.3445120  80.8624750  66.3629790  11.4773550
  80.7274290  65.0297200  12.1816720  75.0447620  61.7862690   6.0530880
  75.1228040  61.9211460   5.1086600  75.6589300  61.0778580   6.2459000
  76.2895250  63.4862880   2.4637060  75.8823330  63.6277470   1.6090660
  77.1808260  63.2023040   2.2608270  86.1074130  67.6354790   9.3704110
  86.6218800  67.5462800  10.1726540  85.2643210  67.9814490   9.6632020
  75.1007140  62.8276860   8.5925340  75.2638180  62.3582220   7.7744710
  75.5659590  62.3200420   9.2574180  79.8725910  51.9582620   3.6285910
  79.4294060  52.7392160   3.2970430  80.4310900  52.2812510   4.3356850
  84.1595720  54.8251140   9.2321230  83.6975090  55.0334160  10.0441170
  83.7573830  54.0110490   8.9291900  89.1600230  56.0460090  10.3617890
  88.3093820  55.7465840  10.6826960  89.0002020  56.2902100   9.4501710
  86.2549940  57.5461840  12.4616680  86.5803350  56.7125590  12.1218910
  87.0430270  58.0690360  12.6095010  81.9101810  52.5029950   5.4875510
  82.2074140  53.4092780   5.4067530  82.4587370  52.0148730   4.8735080
  82.1039340  57.9801770  12.0227430  82.0082940  57.0396500  11.8727830
  82.9471320  58.2016840  11.6275500  77.2349880  54.3915440  10.1761210
  76.8413270  55.2390650  10.3833990  76.5468280  53.7541810  10.3669850
  83.8094930  54.4750410  13.2457950  83.1193250  54.2822610  13.8804040
  84.5527230  54.7585050  13.7782250  74.5366930  52.3143900   4.2091290
  74.2479980  52.8846760   4.9216270  75.2812690  51.8348350   4.5722520
  86.0857900  58.3148850   6.0811870  85.3539020  58.8235660   6.4301970
  85.6882240  57.4978830   5.7800650  82.5235290  54.9903050   4.4864360
  82.5271350  54.5493000   3.6368900  83.4186410  55.3120380   4.5936180
  78.3737670  54.8729540   3.4458570  78.0337720  55.3504770   4.2025620
  77.6114990  54.4194660   3.0859670  86.5483810  53.7682530   5.4934810
  86.5656550  54.2191180   6.3376660  86.2999390  52.8688170   5.7068250
  89.9754560  51.1814710  11.3321190  90.3000330  50.4504370  11.8579170
  90.0111070  50.8628350  10.4302180  76.6746120  62.2028290  10.7521150
  76.2900910  61.5621960  11.3504110  76.9858310  62.9064410  11.3215880
  82.8243260  59.0504830   6.2329770  83.1913390  58.5763400   6.9791110
  82.6348320  59.9246400   6.5738110  75.6883750  53.7948520   2.3623240
  75.4030670  53.4304190   3.2001860  75.6262610  53.0628980   1.7486380
  80.6142630  58.0913470   8.5513980  80.3099700  58.9705450   8.7764340
  81.5689090  58.1513260   8.5871420  89.9012400  61.2939820   4.9407220
  90.6211520  61.7895110   4.5503330  89.6994220  60.6157710   4.2961090
  85.2831200  61.3648880  10.8276220  85.2168510  60.4444550  10.5733810
  84.6536340  61.4624320  11.5420860  79.1861820  61.9654840   2.7859640
  79.7040490  61.1623100   2.7316530  78.7345840  61.9033980   3.6276470
  76.6706360  58.9316210   9.6985340  76.3121300  59.5970060  10.2858680
  76.3760920  58.0999760  10.0697960  79.8719480  59.3900450  12.5824890
  79.5719620  59.5357630  11.6852710  80.6430720  58.8305740  12.4898280
  85.2147930  64.1869450  10.5780020  85.2292470  63.2550410  10.3598930
  84.5073030  64.2729210  11.2169790  86.9558730  62.5536960   3.4232450
  87.3082550  61.9565090   2.7633820  86.0721060  62.2281190   3.5940700
  84.6481830  65.8287020   7.6720520  85.2924050  66.0346400   8.3493940
  85.0111270  65.0675420   7.2191370  85.9213910  63.8319370   6.3897970
  86.5636140  63.1312530   6.5030140  86.4463260  64.6117810   6.2094860
  87.6951530  64.6314270   9.5934030  88.0307770  65.2180960  10.2711950
  86.7751870  64.5006980   9.8231820  75.2454930  52.4209450  10.3757440
  74.5313450  52.6206370  10.9810050  75.6649970  51.6449020  10.7472240
  75.5327520  66.4089710  11.3623970  75.6418640  65.4684450  11.2219360
  74.8808080  66.6744460  10.7137700  83.5240110  64.6805600  12.7622090
  83.2036980  63.9614840  13.3067780  82.8498470  65.3560670  12.8358150
  86.7393710  54.9131760   8.1258890  87.1074530  54.0926970   8.4538460
  85.8791910  54.9733650   8.5414540  83.6995700  57.5671350   8.3496860
  84.1980950  58.0417170   9.0148710  83.8418650  56.6434870   8.5566890
  89.1984570  59.0272490   2.6386610  88.2574710  59.0422720   2.8134300
  89.5128640  58.2408450   3.0846910  78.6727680  68.2912550   3.9858000
  79.4090160  67.7428010   4.2566570  79.0568600  69.1568560   3.8463990
  77.6785960  67.4758620  13.1743580  78.4798690  67.7970670  13.5878980
  77.1637780  67.1154200  13.8963490  86.5150590  63.5838490  13.1218990
  85.9088750  63.6070090  12.3814740  86.2104700  62.8521530  13.6586240
  87.9450960  67.3118780  11.7328400  88.8972710  67.2276800  11.6828640
  87.7979180  67.9760490  12.4062190  75.3983770  59.9632080  12.1179630
  75.9022790  59.3839360  12.6895860  74.6591190  60.2472310  12.6556000
  82.4521710  61.3703070  11.6515150  81.6867380  61.9388070  11.5669820
  82.6337670  61.0779280  10.7583380  89.5945060  63.1008400  12.2090170
  90.3354530  63.4384160  11.7057630  88.8317740  63.2700460  11.6559940
  77.4306850  58.1061670  13.0129700  77.4712190  57.8075540  13.9214930
  78.2852350  58.5069280  12.8537220  79.3712660  56.6853770  10.9804190
  78.8409120  56.1944720  10.3527530  80.0400730  57.1137970  10.4462120
  88.2690720  61.1523230  10.7445380  88.6831740  61.3068310  11.5935800
  87.3341720  61.2778450  10.9071160  88.7412890  58.4919390  12.7484530
  89.3233660  57.7371710  12.6605010  88.9174660  59.0226830  11.9716010
  79.8584960  53.6516140  11.0601480  79.7641830  53.0336890  10.3352350
  79.2782350  54.3782430  10.8331390  82.6246400  52.2089380   8.0928870
  82.1763700  52.2313640   7.2474420  81.9911600  51.8108400   8.6899170
  83.0305950  61.1043710   8.7141310  83.4494060  61.9476440   8.5417550
  82.1114580  61.2415750   8.4848090  85.3669850  58.8359890  10.0979150
  85.4866060  58.2401030  10.8373990  86.2263850  58.8729580   9.6780450
  87.7057750  59.3897080   8.6741660  87.1792970  59.9139700   8.0706800
  88.0489090  60.0224470   9.3051390  80.8813370  67.4096720   9.8299040
  80.3434460  68.1342780   9.5107740  81.1347330  66.9327060   9.0396380
  82.1338620  55.3781240  11.3554970  82.7238310  55.0697090  12.0432790
  81.3158860  54.9060990  11.5114870  86.9532050  54.9947050  11.5887990
  86.2647570  54.3328590  11.5237980  87.6738070  54.5485320  12.0336450
  83.7375580  68.6447930  10.0885690  83.6634280  69.5483070  10.3958060
  82.8354420  68.3259830  10.0607760  75.1402870  65.9722520   3.3919310
  75.4705880  65.1043580   3.1597950  75.5693870  66.1781040   4.2224270
  75.6293080  66.8393110   6.1300940  75.1924070  67.0193910   6.9625090
  76.1970760  67.5967730   5.9882660  75.4617510  59.3513340   2.4889820
  74.8066350  59.0824980   1.8449520  76.2995460  59.2417820   2.0391800
  89.9506900  63.0662090   8.5154410  89.1366740  63.4959250   8.7780200
  90.3581100  63.6780500   7.9023460  76.4993440  59.7365910   7.0293160
  76.8666480  59.6493310   7.9089180  75.9304260  58.9732460   6.9300020
  76.0509440  56.6475000  10.9351580  75.1565490  56.6141760  11.2745290
  76.5906990  56.8461790  11.7002830  89.7385370  53.4306720  12.8203330
  90.6155550  53.4390120  13.2037330  89.7506210  52.6937560  12.2095680
  76.5549150  50.9223330   5.2834800  77.2025340  50.3720710   4.8429960
  76.9750990  51.1766480   6.1050610  76.3081150  51.0779000   8.0260120
  75.9595970  51.5342820   8.7918300  75.9768850  50.1836130   8.1082550
  77.9145520  64.2498600  12.1913310  77.8715150  63.8791510  13.0727770
  78.0456530  65.1876170  12.3315130  81.6151550  65.8058190   7.7923030
  81.3742910  66.0732750   6.9053550  82.5554190  65.9763920   7.8473890
  83.8205970  52.2690880  11.5479540  83.7594860  52.8612710  12.2974950
  84.7606350  52.1616840  11.4029800  86.4580530  51.9260940  11.1871830
  87.0720940  52.2440230  10.5252910  87.0030090  51.4409530  11.8067690
  76.9801790  50.6055200  11.3010890  77.5284780  50.4243250  10.5377000
  77.0457100  49.8149310  11.8367200  77.7533550  67.1960850   9.3111090
  77.1593870  67.0645550  10.0501130  77.7457390  66.3598990   8.8453190
  87.1988570  50.4893080   7.5141120  86.3248410  50.8228190   7.3114050
  87.0899320  50.0166260   8.3392990  88.1060550  52.6963950   8.8982840
  87.7773910  51.8815710   8.5184570  89.0542850  52.6533760   8.7748530
  90.5595160  68.4675990   5.8720410  90.0998130  69.2191800   5.4978430
  89.9307620  67.7482460   5.8135210  77.3845780  64.5619230   8.2619130
  76.6579840  63.9424520   8.1945080  77.4454930  64.9559840   7.3917210
  80.9890880  66.7764230   5.0468540  81.5055900  66.1651590   4.5216800
  81.6388260  67.2793010   5.5379550  83.7286380  67.6672720   5.8737520
  84.0164190  67.4127020   4.9970530  84.2409600  67.1150080   6.4643090
  84.9463390  51.4062920   6.4534030  84.1635180  51.8808420   6.7330790
  84.6526320  50.5017750   6.3447210  89.4984460  52.1086020   4.4983120
  89.9392550  52.0531120   3.6504720  89.2292050  53.0244030   4.5693300
  82.8317610  53.8249670   1.9650060  82.0192120  53.4506560   1.6245940
  83.3359250  53.0694750   2.2671250  87.3342590  50.4892120   3.2033130
  87.9371960  51.0612330   3.6781650  86.5935580  51.0531560   2.9807030
  83.7958740  68.5888820  13.2405720  84.7226050  68.3533090  13.2841680
  83.7809170  69.4160820  12.7591750  80.9822350  51.2533570  13.0047600
  80.7006620  51.7567170  12.2408420  81.3642050  50.4555320  12.6389730
  87.5837810  50.6687150  13.5828070  87.4703260  50.9881760  14.4779590
  88.4007550  51.0699660  13.2865350  86.4895960  39.9136130  59.0436770
  86.4090010  38.9990740  58.7728480  86.0760380  40.4103200  58.3376480
  84.6214000  41.6915150  60.9246040  83.8456100  41.2115590  61.2144610
  85.2726930  41.0120800  60.7502200  78.6379830  42.0034960  61.8021800
  77.8064710  41.7483670  62.2018310  79.2460810  42.0745730  62.5379720
  88.6421430  46.0975340  59.7045170  88.1802960  45.3262580  60.0332340
  89.4546980  46.1241410  60.2097620  78.6181090  46.0375050  61.9979820
  78.9209130  45.1472790  61.8190040  79.3624680  46.5945270  61.7702070
  77.0471780  36.9636850  55.5864190  76.1588480  37.3052820  55.4844070
  77.3312970  36.7637170  54.6945020  75.0104790  39.5642500  61.4703890
  75.5820900  38.7964700  61.4707530  75.0106330  39.8631260  60.5610500
  84.8684740  48.3833350  59.3249160  84.2496180  48.8390850  58.7543600
  85.7236520  48.5384810  58.9238860  84.0622990  44.3672340  60.9316200
  83.9931270  43.4262280  60.7705330  84.8242850  44.4573750  61.5038770
  85.0928160  37.1742720  61.1585130  85.4692980  36.3014600  61.0458800
  84.9947670  37.5101420  60.2675570  79.2233170  35.5468350  56.6202570
  79.3299920  36.4472080  56.9271330  78.3125530  35.4986320  56.3297220
  88.8752280  34.6693160  58.0913470  89.6961900  34.1789730  58.1338950
  88.9086360  35.2590820  58.8445310  76.8716330  37.4687360  61.8655160
  77.5526440  37.7325730  62.4842560  76.5564380  36.6288230  62.1993170
  81.0640900  38.5154720  60.9527750  81.5719120  39.0135690  61.5932770
  81.5954140  37.7389920  60.7767110  85.7348090  43.2672590  56.7181070
  85.1165360  43.7322040  56.1543790  86.2471340  43.9600070  57.1350580
  89.1113760  36.6093540  60.8641010  88.4069330  36.8978430  61.4444120
  89.4725920  37.4193650  60.5040570  79.0292330  34.8663240  63.2261620
  79.3709140  35.7105290  62.9315490  78.0908140  35.0146980  63.3426960
  75.1031290  43.9529120  54.0920700  74.7259270  44.4416220  53.3605600
  75.3604360  44.6254400  54.7227230  82.7120220  32.3545510  59.5506210
  83.0195200  31.7992400  58.8341710  81.7820920  32.4889970  59.3679200
  88.2635280  48.0712800  61.8413670  88.2762440  47.6675090  60.9735930
  87.7110500  48.8460090  61.7375100  89.5580700  44.7929020  56.9303840
  89.4477030  43.8503350  57.0553260  89.5548950  45.1544660  57.8166600
  85.1000980  40.4194340  56.2866330  84.1730260  40.3531720  56.5154800
  85.2525800  41.3574470  56.1721570  85.0870060  36.6911340  53.2833490
  84.1473730  36.8525300  53.3685950  85.4053320  37.4097020  52.7369480
  89.1298270  41.9814640  56.7901580  88.5110690  41.6434190  56.1427880
  89.1122720  41.3374400  57.4980770  80.7057620  40.9459080  59.0686060
  80.3014620  40.2336330  58.5731960  80.7920740  40.6012320  59.9574100
  81.1739320  44.6326640  61.2325270  80.8767610  44.0272110  60.5533050
  82.1239140  44.6703950  61.1214630  87.3062970  41.2201450  53.7974330
  87.7456250  40.3823880  53.6512150  88.0191390  41.8530850  53.8838470
  85.4158350  46.1597520  57.7655570  85.8554260  46.9021850  57.3510960
  85.3545240  46.4024090  58.6894530  77.4062250  39.8404060  56.5692710
  77.2859850  40.5666150  55.9573980  77.0963140  39.0706970  56.0920620
  75.0447620  43.0119200  62.3761350  75.1228040  43.1467970  61.4317070
  75.6589300  42.3035090  62.5689470  76.2895250  44.7119390  58.7867530
  75.8823330  44.8533980  57.9321130  77.1808260  44.4279550  58.5838740
  88.0828530  49.1466640  55.1218580  87.9229670  48.8569580  56.0200410
  87.9175240  48.3706770  54.5863810  80.5616910  48.9265170  56.8990200
  80.3859390  48.0100710  56.6858000  79.7072650  49.2852460  57.1388000
  87.7854660  46.6554200  53.6816580  87.0919820  46.6531490  53.0218860
  88.5277520  46.2313520  53.2510750  87.3504590  48.2816910  57.7565070
  87.8061540  47.5006290  58.0703690  87.6897110  48.9923730  58.3006250
  79.8725910  33.1839130  59.9516380  79.4294060  33.9648670  59.6200900
  80.4310900  33.5069020  60.6587320  82.9884730  32.8049830  54.8322210
  82.3638910  32.8009700  55.5575520  82.9014850  31.9380790  54.4358180
  81.9101810  33.7286460  61.8105980  82.2074140  34.6349290  61.7298000
  82.4587370  33.2405240  61.1965550  79.6640130  38.3072700  57.6797630
  79.4381050  38.0909870  58.5844250  78.8832660  38.7401160  57.3343600
  86.8937890  38.3136070  56.2788280  86.2946780  39.0371870  56.0951900
  87.4417500  38.2512850  55.4964730  85.5002760  36.9499610  58.3091560
  85.8932330  37.2671810  57.4960250  85.8619610  36.0711490  58.4236080
  74.5366930  33.5400410  60.5321760  74.2479980  34.1103270  61.2446740
  75.2812690  33.0604860  60.8952990  74.7237160  37.4820530  51.7424480
  74.6411830  38.4251290  51.8839470  74.3720220  37.3395440  50.8636830
  86.0857900  39.5405360  62.4042340  85.3539020  40.0492170  62.7532440
  85.6882240  38.7235340  62.1031120  82.5235290  36.2159560  60.8094830
  82.5271350  35.7749510  59.9599370  83.4186410  36.5376890  60.9166650
  78.3737670  36.0986050  59.7689040  78.0337720  36.5761280  60.5256090
  77.6114990  35.6451170  59.4090140  82.5855440  37.2171640  53.8001590
  82.7068260  37.1758120  54.7487410  82.2003950  38.0795790  53.6448320
  86.5483810  34.9939040  61.8165280  86.5656550  35.4447690  62.6607130
  86.2999390  34.0944680  62.0298720  81.5976940  39.5272780  53.1984890
  81.0293840  39.0791030  52.5720800  82.3065940  39.8865560  52.6650040
  82.8243260  40.2761340  62.5560240  83.1913390  39.8019910  63.3021580
  82.6348320  41.1502910  62.8968580  75.6883750  35.0205030  58.6853710
  75.4030670  34.6560700  59.5232330  75.6262610  34.2885490  58.0716850
  79.1424420  43.5230970  55.4711300  78.3686680  42.9828590  55.3110020
  79.8719050  43.0037580  55.1329060  89.9012400  42.5196330  61.2637690
  90.6211520  43.0151620  60.8733800  89.6994220  41.8414220  60.6191560
  85.3622340  33.9134290  55.4067080  84.5486950  33.4147460  55.3312390
  85.1684290  34.7532540  54.9903430  88.0770730  38.2853940  53.7029240
  88.9650350  38.5971170  53.5280580  88.0475820  37.4126190  53.3109820
  79.1861820  43.1911350  59.1090110  79.7040490  42.3879610  59.0547000
  78.7345840  43.1290490  59.9506940  84.0731320  44.4577630  54.3817410
  84.4147020  45.2019860  53.8860730  83.2444030  44.7708750  54.7442240
  86.9558730  43.7793470  59.7462920  87.3082550  43.1821600  59.0864290
  86.0721060  43.4537700  59.9171170  83.0422010  44.5391160  57.1533330
  83.7293140  45.0860370  57.5340920  82.2554430  45.0831890  57.1882940
  75.1814410  40.1563980  52.6450410  76.0509260  40.4388780  52.9286330
  74.6904730  40.9699850  52.5299220  82.3449220  41.5437190  56.7658690
  82.8012000  42.3542440  56.9918880  81.9937430  41.2260330  57.5977180
  78.2461000  31.8874840  57.2381210  78.1175630  31.8792740  58.1866130
  77.4223020  32.2257930  56.8872220  85.9213910  45.0575880  62.7128440
  86.5636140  44.3569040  62.8260610  86.4463260  45.8374320  62.5325330
  89.7669630  45.3424500  52.4367580  89.5407210  44.6254940  53.0292220
  89.3765830  45.0936940  51.5989330  75.5485660  49.3691360  53.2112040
  75.9083300  49.9680700  52.5569310  75.4078000  49.9151250  53.9847070
  89.3485880  43.2596440  54.0981740  89.0607580  43.7209130  54.8859620
  90.1438050  42.7994210  54.3665960  81.5654280  46.7522560  54.0285710
  81.5564380  47.4852250  53.4130220  80.6452640  46.5054140  54.1212670
  77.1660920  41.9737450  54.7732470  76.5588870  42.7136350  54.7827770
  77.6410270  42.0636810  53.9470670  90.1055740  35.0945210  55.2576920
  89.4768900  35.1990880  54.5435150  89.6107660  35.3141990  56.0470800
  84.5513880  46.8150800  52.6910900  84.6525860  46.6114790  51.7612880
  83.6515620  46.5609080  52.8958680  82.0739770  37.3731160  56.6734800
  81.3655920  37.8417500  57.1148410  82.3584250  36.7153170  57.3079990
  86.1055200  34.0981820  58.1130590  85.9822980  34.1167950  57.1640100
  87.0539760  34.1460760  58.2328990  83.1931990  49.3337120  57.3858570
  83.4473490  49.2958510  56.4637940  82.2444470  49.2070450  57.3786820
  80.2774790  35.6816240  54.0485510  81.1265320  36.1186390  53.9825700
  79.9106060  35.9936500  54.8757570  89.1984570  40.2529000  58.9617080
  88.2574710  40.2679230  59.1364770  89.5128640  39.4664960  59.4077380
  79.1766210  41.9348600  52.5221040  79.9429480  41.8229960  53.0846470
  79.2540900  41.2386570  51.8697810  77.8712970  39.3673670  53.2053930
  77.9516560  38.4201180  53.3171330  78.7632720  39.6980550  53.3114590
  78.6727680  49.5169060  60.3088470  79.4090160  48.9684520  60.5797040
  79.0568600  50.3825070  60.1694460  75.5573160  45.5842630  56.1829980
  74.6312940  45.8263770  56.1735390  76.0229590  46.4116890  56.0614730
  81.7829990  48.6899370  52.1314040  82.5758600  48.9788200  51.6795830
  81.2634340  48.2591540  51.4526520  82.3007390  43.9102780  51.9956390
  82.1958030  43.2955130  52.7217770  82.1331610  43.3868670  51.2119400
  85.5410120  42.9722810  52.5998380  84.9920220  43.4192110  53.2441120
  86.1629380  42.4672060  53.1236050  81.2085240  41.9313730  54.4963680
  81.6301660  41.7653600  55.3395070  81.3336080  41.1213960  54.0018820
  83.7212880  40.9551340  51.7440780  84.2418540  40.2400360  51.3781930
  84.3681280  41.5937210  52.0441290  80.1044140  38.0046960  51.4421840
  79.9033200  37.1414320  51.8035180  79.9336190  37.9180320  50.5043440
  87.5832450  32.8155190  53.9708720  87.8634740  31.9723090  54.3268140
  86.8098180  33.0478300  54.4847470  78.9026940  35.1047580  51.4299720
  79.2052840  35.1115010  50.5218870  79.6421530  34.7545440  51.9267380
  82.1211870  34.0482200  52.4155920  81.7733870  33.3706190  51.8358370
  82.3224640  33.5871710  53.2299310  84.2860910  49.0362950  54.0342520
  85.1811700  49.3747920  54.0561280  84.3178540  48.3142360  53.4066800
  77.9257070  44.4090000  52.2629520  78.3631940  44.9519670  52.9187100
  78.4104800  43.5836950  52.2725860  75.1402870  47.1979030  59.7149780
  75.4705880  46.3300090  59.4828420  75.5693870  47.4037550  60.5454740
  79.7364790  45.5288040  57.3751750  79.4360330  45.4053010  58.2755660
  79.6302280  44.6696630  56.9667480  75.6293080  48.0649620  62.4531410
  75.1924070  48.2450420  63.2855560  76.1970760  48.8224240  62.3113130
  75.4617510  40.5769850  58.8120290  74.8066350  40.3081490  58.1679990
  76.2995460  40.4674330  58.3622270  88.4107950  35.3711140  53.0338780
  88.8292830  35.1842120  52.1935440  88.1044010  34.5190190  53.3441710
  74.6755590  37.7868780  54.7545620  73.7719670  38.0498980  54.5797280
  75.1596210  38.0579950  53.9745580  77.2182800  36.8434320  52.6640000
  77.9274500  36.4217540  52.1787280  76.5022740  36.9109550  52.0323350
  76.8656960  32.8973650  51.7042650  77.5885090  33.4382590  52.0223870
  77.1381480  32.6237070  50.8284190  76.5549150  32.1479840  61.6065270
  77.2025340  31.5977220  61.1660430  76.9750990  32.4022990  62.4281080
  90.0082950  49.0437200  58.3653150  90.6042020  48.7221770  57.6887570
  90.2661100  48.5709020  59.1566420  90.5595160  49.6932500  62.1950880
  90.0998130  50.4448310  61.8208900  89.9307620  48.9738970  62.1365680
  80.9890880  48.0020740  61.3699010  81.5055900  47.3908100  60.8447270
  81.6388260  48.5049520  61.8610020  83.7286380  48.8929230  62.1967990
  84.0164190  48.6383530  61.3201000  84.2409600  48.3406590  62.7873560
  84.9463390  32.6319430  62.7764500  84.1635180  33.1064930  63.0561260
  84.6526320  31.7274260  62.6677680  89.4984460  33.3342530  60.8213590
  89.9392550  33.2787630  59.9735190  89.2292050  34.2500540  60.8923770
  75.6675780  49.1050130  57.7946360  75.4997820  48.4720810  58.4928250
  74.8010290  49.3109530  57.4440550  76.2903800  32.9366910  55.2978220
  77.0483160  33.0495790  54.7242250  75.8280970  33.7736110  55.2521650
  82.8317610  35.0506180  58.2880530  82.0192120  34.6763070  57.9476410
  83.3359250  34.2951260  58.5901720  87.3342590  31.7148630  59.5263600
  87.9371960  32.2868840  60.0012120  86.5935580  32.2788070  59.3037500
  77.2738480  47.7983360  55.2396500  76.7486100  48.1791390  54.5358460
  77.1983060  48.4234130  55.9606210  78.6628950  33.4630960  53.8380190
  79.1921710  32.6760760  53.7088140  79.2957270  34.1422150  54.0715720
  80.8566790  33.2006100  56.8925580  80.2269530  32.4993410  57.0595710
  80.3171930  33.9610230  56.6758740  79.8731450  49.7465740  54.1145750
  80.6050270  49.4625020  53.5669640  80.1325120  49.5079020  55.0045130
  79.0346240  45.8630470  54.1192080  78.4055120  46.3315570  54.6677910
  79.1494070  45.0179690  54.5538270  86.4895960  39.9136130  40.2693280
  86.4090010  38.9990740  39.9984990  86.0760380  40.4103200  39.5632990
  84.6214000  41.6915150  42.1502550  83.8456100  41.2115590  42.4401120
  85.2726930  41.0120800  41.9758710  78.6379830  42.0034960  43.0278310
  77.8064710  41.7483670  43.4274820  79.2460810  42.0745730  43.7636230
  88.6421430  46.0975340  40.9301680  88.1802960  45.3262580  41.2588850
  89.4546980  46.1241410  41.4354130  78.6181090  46.0375050  43.2236330
  78.9209130  45.1472790  43.0446550  79.3624680  46.5945270  42.9958580
  77.0471780  36.9636850  36.8120700  76.1588480  37.3052820  36.7100580
  77.3312970  36.7637170  35.9201530  75.0104790  39.5642500  42.6960400
  75.5820900  38.7964700  42.6964040  75.0106330  39.8631260  41.7867010
  84.8684740  48.3833350  40.5505670  84.2496180  48.8390850  39.9800110
  85.7236520  48.5384810  40.1495370  84.0622990  44.3672340  42.1572710
  83.9931270  43.4262280  41.9961840  84.8242850  44.4573750  42.7295280
  76.2529660  34.9726860  44.4829330  76.0732500  34.0752610  44.7632090
  75.8509740  35.5198730  45.1576280  85.0928160  37.1742720  42.3841640
  85.4692980  36.3014600  42.2715310  84.9947670  37.5101420  41.4932080
  79.2233170  35.5468350  37.8459080  79.3299920  36.4472080  38.1527840
  78.3125530  35.4986320  37.5553730  88.8752280  34.6693160  39.3169980
  89.6961900  34.1789730  39.3595460  88.9086360  35.2590820  40.0701820
  76.8716330  37.4687360  43.0911670  77.5526440  37.7325730  43.7099070
  76.5564380  36.6288230  43.4249680  81.0640900  38.5154720  42.1784260
  81.5719120  39.0135690  42.8189280  81.5954140  37.7389920  42.0023620
  79.3477000  33.1553280  46.4447680  79.3495440  33.6725670  45.6393580
  78.5181310  32.6783460  46.4217610  85.7348090  43.2672590  37.9437580
  85.1165360  43.7322040  37.3800300  86.2471340  43.9600070  38.3607090
  80.5979850  42.7948460  44.6221180  80.2649230  43.4217380  45.2642250
  80.7746530  43.3210340  43.8422850  89.1113760  36.6093540  42.0897520
  88.4069330  36.8978430  42.6700630  89.4725920  37.4193650  41.7297080
  79.0292330  34.8663240  44.4518130  79.3709140  35.7105290  44.1572000
  78.0908140  35.0146980  44.5683470  79.8098950  44.7629260  46.4370360
  80.4272950  45.4380340  46.1554810  78.9492070  45.1717240  46.3457860
  75.1031290  43.9529120  35.3177210  74.7259270  44.4416220  34.5862110
  75.3604360  44.6254400  35.9483740  82.7120220  32.3545510  40.7762720
  83.0195200  31.7992400  40.0598220  81.7820920  32.4889970  40.5935710
  88.2635280  48.0712800  43.0670180  88.2762440  47.6675090  42.1992440
  87.7110500  48.8460090  42.9631610  89.5580700  44.7929020  38.1560350
  89.4477030  43.8503350  38.2809770  89.5548950  45.1544660  39.0423110
  87.6620720  42.9742640  44.3952790  88.0789510  42.7602750  43.5606250
  88.3860540  43.2315430  44.9661410  85.1000980  40.4194340  37.5122840
  84.1730260  40.3531720  37.7411310  85.2525800  41.3574470  37.3978080
  85.0870060  36.6911340  34.5090000  84.1473730  36.8525300  34.5942460
  85.4053320  37.4097020  33.9625990  89.1298270  41.9814640  38.0158090
  88.5110690  41.6434190  37.3684390  89.1122720  41.3374400  38.7237280
  88.5724830  38.1599180  45.4323900  88.1596010  38.9852890  45.6863890
  87.8400780  37.5744220  45.2400260  80.7057620  40.9459080  40.2942570
  80.3014620  40.2336330  39.7988470  80.7920740  40.6012320  41.1830610
  81.1739320  44.6326640  42.4581780  80.8767610  44.0272110  41.7789560
  82.1239140  44.6703950  42.3471140  79.4186240  37.7202290  44.0741610
  79.9700830  37.8297630  43.2994860  79.9329750  38.0939890  44.7896840
  89.2624930  48.2058510  46.1204880  88.7855490  49.0130700  45.9277490
  88.5786720  47.5536840  46.2731090  80.2657750  44.3708330  49.1089580
  79.3686280  44.5948300  49.3562980  80.2910620  44.4943270  48.1600980
  87.3062970  41.2201450  35.0230840  87.7456250  40.3823880  34.8768660
  88.0191390  41.8530850  35.1094980  79.0928970  41.2421650  47.6846950
  78.9536740  42.1144450  48.0534350  78.2110330  40.8994460  47.5394890
  85.4158350  46.1597520  38.9912080  85.8554260  46.9021850  38.5767470
  85.3545240  46.4024090  39.9151040  80.8909320  47.1843350  49.8932100
  80.8624750  47.5886300  49.0260530  80.7274290  46.2553710  49.7303700
  77.4062250  39.8404060  37.7949220  77.2859850  40.5666150  37.1830490
  77.0963140  39.0706970  37.3177130  75.0447620  43.0119200  43.6017860
  75.1228040  43.1467970  42.6573580  75.6589300  42.3035090  43.7945980
  76.2895250  44.7119390  40.0124040  75.8823330  44.8533980  39.1577640
  77.1808260  44.4279550  39.8095250  86.1074130  48.8611300  46.9191090
  86.6218800  48.7719310  47.7213520  85.2643210  49.2071000  47.2119000
  88.0828530  49.1466640  36.3475090  87.9229670  48.8569580  37.2456920
  87.9175240  48.3706770  35.8120320  80.5616910  48.9265170  38.1246710
  80.3859390  48.0100710  37.9114510  79.7072650  49.2852460  38.3644510
  87.7854660  46.6554200  34.9073090  87.0919820  46.6531490  34.2475370
  88.5277520  46.2313520  34.4767260  87.3504590  48.2816910  38.9821580
  87.8061540  47.5006290  39.2960200  87.6897110  48.9923730  39.5262760
  75.1007140  44.0533370  46.1412320  75.2638180  43.5838730  45.3231690
  75.5659590  43.5456930  46.8061160  79.8725910  33.1839130  41.1772890
  79.4294060  33.9648670  40.8457410  80.4310900  33.5069020  41.8843830
  84.1595720  36.0507650  46.7808210  83.6975090  36.2590670  47.5928150
  83.7573830  35.2367000  46.4778880  89.1600230  37.2716600  47.9104870
  88.3093820  36.9722350  48.2313940  89.0002020  37.5158610  46.9988690
  86.2549940  38.7718350  50.0103660  86.5803350  37.9382100  49.6705890
  87.0430270  39.2946870  50.1581990  82.9884730  32.8049830  36.0578720
  82.3638910  32.8009700  36.7832030  82.9014850  31.9380790  35.6614690
  81.9101810  33.7286460  43.0362490  82.2074140  34.6349290  42.9554510
  82.4587370  33.2405240  42.4222060  79.6640130  38.3072700  38.9054140
  79.4381050  38.0909870  39.8100760  78.8832660  38.7401160  38.5600110
  86.8937890  38.3136070  37.5044790  86.2946780  39.0371870  37.3208410
  87.4417500  38.2512850  36.7221240  82.1039340  39.2058280  49.5714410
  82.0082940  38.2653010  49.4214810  82.9471320  39.4273350  49.1762480
  85.5002760  36.9499610  39.5348070  85.8932330  37.2671810  38.7216760
  85.8619610  36.0711490  39.6492590  77.2349880  35.6171950  47.7248190
  76.8413270  36.4647160  47.9320970  76.5468280  34.9798320  47.9156830
  83.8094930  35.7006920  50.7944930  83.1193250  35.5079120  51.4291020
  84.5527230  35.9841560  51.3269230  74.5366930  33.5400410  41.7578270
  74.2479980  34.1103270  42.4703250  75.2812690  33.0604860  42.1209500
  74.7237160  37.4820530  32.9680990  74.6411830  38.4251290  33.1095980
  74.3720220  37.3395440  32.0893340  86.0857900  39.5405360  43.6298850
  85.3539020  40.0492170  43.9788950  85.6882240  38.7235340  43.3287630
  82.5235290  36.2159560  42.0351340  82.5271350  35.7749510  41.1855880
  83.4186410  36.5376890  42.1423160  78.3737670  36.0986050  40.9945550
  78.0337720  36.5761280  41.7512600  77.6114990  35.6451170  40.6346650
  82.5855440  37.2171640  35.0258100  82.7068260  37.1758120  35.9743920
  82.2003950  38.0795790  34.8704830  86.5483810  34.9939040  43.0421790
  86.5656550  35.4447690  43.8863640  86.2999390  34.0944680  43.2555230
  81.5976940  39.5272780  34.4241400  81.0293840  39.0791030  33.7977310
  82.3065940  39.8865560  33.8906550  89.9754560  32.4071220  48.8808170
  90.3000330  31.6760880  49.4066150  90.0111070  32.0884860  47.9789160
  76.6746120  43.4284800  48.3008130  76.2900910  42.7878470  48.8991090
  76.9858310  44.1320920  48.8702860  82.8243260  40.2761340  43.7816750
  83.1913390  39.8019910  44.5278090  82.6348320  41.1502910  44.1225090
  75.6883750  35.0205030  39.9110220  75.4030670  34.6560700  40.7488840
  75.6262610  34.2885490  39.2973360  80.6142630  39.3169980  46.1000960
  80.3099700  40.1961960  46.3251320  81.5689090  39.3769770  46.1358400
  79.1424420  43.5230970  36.6967810  78.3686680  42.9828590  36.5366530
  79.8719050  43.0037580  36.3585570  89.9012400  42.5196330  42.4894200
  90.6211520  43.0151620  42.0990310  89.6994220  41.8414220  41.8448070
  85.3622340  33.9134290  36.6323590  84.5486950  33.4147460  36.5568900
  85.1684290  34.7532540  36.2159940  85.2831200  42.5905390  48.3763200
  85.2168510  41.6701060  48.1220790  84.6536340  42.6880830  49.0907840
  88.0770730  38.2853940  34.9285750  88.9650350  38.5971170  34.7537090
  88.0475820  37.4126190  34.5366330  79.1861820  43.1911350  40.3346620
  79.7040490  42.3879610  40.2803510  78.7345840  43.1290490  41.1763450
  84.0731320  44.4577630  35.6073920  84.4147020  45.2019860  35.1117240
  83.2444030  44.7708750  35.9698750  76.6706360  40.1572720  47.2472320
  76.3121300  40.8226570  47.8345660  76.3760920  39.3256270  47.6184940
  79.8719480  40.6156960  50.1311870  79.5719620  40.7614140  49.2339690
  80.6430720  40.0562250  50.0385260  85.2147930  45.4125960  48.1267000
  85.2292470  44.4806920  47.9085910  84.5073030  45.4985720  48.7656770
  86.9558730  43.7793470  40.9719430  87.3082550  43.1821600  40.3120800
  86.0721060  43.4537700  41.1427680  83.0422010  44.5391160  38.3789840
  83.7293140  45.0860370  38.7597430  82.2554430  45.0831890  38.4139450
  75.1814410  40.1563980  33.8706920  76.0509260  40.4388780  34.1542840
  74.6904730  40.9699850  33.7555730  82.3449220  41.5437190  37.9915200
  82.8012000  42.3542440  38.2175390  81.9937430  41.2260330  38.8233690
  84.6481830  47.0543530  45.2207500  85.2924050  47.2602910  45.8980920
  85.0111270  46.2931930  44.7678350  78.2461000  31.8874840  38.4637720
  78.1175630  31.8792740  39.4122640  77.4223020  32.2257930  38.1128730
  85.9213910  45.0575880  43.9384950  86.5636140  44.3569040  44.0517120
  86.4463260  45.8374320  43.7581840  89.7669630  45.3424500  33.6624090
  89.5407210  44.6254940  34.2548730  89.3765830  45.0936940  32.8245840
  87.6951530  45.8570780  47.1421010  88.0307770  46.4437470  47.8198930
  86.7751870  45.7263490  47.3718800  75.5485660  49.3691360  34.4368550
  75.9083300  49.9680700  33.7825820  75.4078000  49.9151250  35.2103580
  75.2454930  33.6465960  47.9244420  74.5313450  33.8462880  48.5297030
  75.6649970  32.8705530  48.2959220  89.3485880  43.2596440  35.3238250
  89.0607580  43.7209130  36.1116130  90.1438050  42.7994210  35.5922470
  75.5327520  47.6346220  48.9110950  75.6418640  46.6940960  48.7706340
  74.8808080  47.9000970  48.2624680  83.5240110  45.9062110  50.3109070
  83.2036980  45.1871350  50.8554760  82.8498470  46.5817180  50.3845130
  81.5654280  46.7522560  35.2542220  81.5564380  47.4852250  34.6386730
  80.6452640  46.5054140  35.3469180  77.1660920  41.9737450  35.9988980
  76.5588870  42.7136350  36.0084280  77.6410270  42.0636810  35.1727180
  86.7393710  36.1388270  45.6745870  87.1074530  35.3183480  46.0025440
  85.8791910  36.1990160  46.0901520  90.1055740  35.0945210  36.4833430
  89.4768900  35.1990880  35.7691660  89.6107660  35.3141990  37.2727310
  84.5513880  46.8150800  33.9167410  84.6525860  46.6114790  32.9869390
  83.6515620  46.5609080  34.1215190  82.0739770  37.3731160  37.8991310
  81.3655920  37.8417500  38.3404920  82.3584250  36.7153170  38.5336500
  83.6995700  38.7927860  45.8983840  84.1980950  39.2673680  46.5635690
  83.8418650  37.8691380  46.1053870  86.1055200  34.0981820  39.3387100
  85.9822980  34.1167950  38.3896610  87.0539760  34.1460760  39.4585500
  83.1931990  49.3337120  38.6115080  83.4473490  49.2958510  37.6894450
  82.2444470  49.2070450  38.6043330  80.2774790  35.6816240  35.2742020
  81.1265320  36.1186390  35.2082210  79.9106060  35.9936500  36.1014080
  89.1984570  40.2529000  40.1873590  88.2574710  40.2679230  40.3621280
  89.5128640  39.4664960  40.6333890  79.1766210  41.9348600  33.7477550
  79.9429480  41.8229960  34.3102980  79.2540900  41.2386570  33.0954320
  77.8712970  39.3673670  34.4310440  77.9516560  38.4201180  34.5427840
  78.7632720  39.6980550  34.5371100  78.6727680  49.5169060  41.5344980
  79.4090160  48.9684520  41.8053550  79.0568600  50.3825070  41.3950970
  75.5573160  45.5842630  37.4086490  74.6312940  45.8263770  37.3991900
  76.0229590  46.4116890  37.2871240  77.6785960  48.7015130  50.7230560
  78.4798690  49.0227180  51.1365960  77.1637780  48.3410710  51.4450470
  81.7829990  48.6899370  33.3570550  82.5758600  48.9788200  32.9052340
  81.2634340  48.2591540  32.6783030  86.5150590  44.8095000  50.6705970
  85.9088750  44.8326600  49.9301720  86.2104700  44.0778040  51.2073220
  87.9450960  48.5375290  49.2815380  88.8972710  48.4533310  49.2315620
  87.7979180  49.2017000  49.9549170  75.3983770  41.1888590  49.6666610
  75.9022790  40.6095870  50.2382840  74.6591190  41.4728820  50.2042980
  82.3007390  43.9102780  33.2212900  82.1958030  43.2955130  33.9474280
  82.1331610  43.3868670  32.4375910  82.4521710  42.5959580  49.2002130
  81.6867380  43.1644580  49.1156800  82.6337670  42.3035790  48.3070360
  85.5410120  42.9722810  33.8254890  84.9920220  43.4192110  34.4697630
  86.1629380  42.4672060  34.3492560  89.5945060  44.3264910  49.7577150
  90.3354530  44.6640670  49.2544610  88.8317740  44.4956970  49.2046920
  77.4306850  39.3318180  50.5616680  77.4712190  39.0332050  51.4701910
  78.2852350  39.7325790  50.4024200  81.2085240  41.9313730  35.7220190
  81.6301660  41.7653600  36.5651580  81.3336080  41.1213960  35.2275330
  79.3712660  37.9110280  48.5291170  78.8409120  37.4201230  47.9014510
  80.0400730  38.3394480  47.9949100  83.7212880  40.9551340  32.9697290
  84.2418540  40.2400360  32.6038440  84.3681280  41.5937210  33.2697800
  88.2690720  42.3779740  48.2932360  88.6831740  42.5324820  49.1422780
  87.3341720  42.5034960  48.4558140  88.7412890  39.7175900  50.2971510
  89.3233660  38.9628220  50.2091990  88.9174660  40.2483340  49.5202990
  79.8584960  34.8772650  48.6088460  79.7641830  34.2593400  47.8839330
  79.2782350  35.6038940  48.3818370  82.6246400  33.4345890  45.6415850
  82.1763700  33.4570150  44.7961400  81.9911600  33.0364910  46.2386150
  83.0305950  42.3300220  46.2628290  83.4494060  43.1732950  46.0904530
  82.1114580  42.4672260  46.0335070  85.3669850  40.0616400  47.6466130
  85.4866060  39.4657540  48.3860970  86.2263850  40.0986090  47.2267430
  87.7057750  40.6153590  46.2228640  87.1792970  41.1396210  45.6193780
  88.0489090  41.2480980  46.8538370  80.1044140  38.0046960  32.6678350
  79.9033200  37.1414320  33.0291690  79.9336190  37.9180320  31.7299950
  80.8813370  48.6353230  47.3786020  80.3434460  49.3599290  47.0594720
  81.1347330  48.1583570  46.5883360  82.1338620  36.6037750  48.9041950
  82.7238310  36.2953600  49.5919770  81.3158860  36.1317500  49.0601850
  86.9532050  36.2203560  49.1374970  86.2647570  35.5585100  49.0724960
  87.6738070  35.7741830  49.5823430  87.5832450  32.8155190  35.1965230
  87.8634740  31.9723090  35.5524650  86.8098180  33.0478300  35.7103980
  78.9026940  35.1047580  32.6556230  79.2052840  35.1115010  31.7475380
  79.6421530  34.7545440  33.1523890  83.7375580  49.8704440  47.6372670
  83.6634280  50.7739580  47.9445040  82.8354420  49.5516340  47.6094740
  82.1211870  34.0482200  33.6412430  81.7733870  33.3706190  33.0614880
  82.3224640  33.5871710  34.4555820  84.2860910  49.0362950  35.2599030
  85.1811700  49.3747920  35.2817790  84.3178540  48.3142360  34.6323310
  77.9257070  44.4090000  33.4886030  78.3631940  44.9519670  34.1443610
  78.4104800  43.5836950  33.4982370  75.1402870  47.1979030  40.9406290
  75.4705880  46.3300090  40.7084930  75.5693870  47.4037550  41.7711250
  79.7364790  45.5288040  38.6008260  79.4360330  45.4053010  39.5012170
  79.6302280  44.6696630  38.1923990  75.6293080  48.0649620  43.6787920
  75.1924070  48.2450420  44.5112070  76.1970760  48.8224240  43.5369640
  75.4617510  40.5769850  40.0376800  74.8066350  40.3081490  39.3936500
  76.2995460  40.4674330  39.5878780  89.9506900  44.2918600  46.0641390
  89.1366740  44.7215760  46.3267180  90.3581100  44.9037010  45.4510440
  88.4107950  35.3711140  34.2595290  88.8292830  35.1842120  33.4191950
  88.1044010  34.5190190  34.5698220  76.4993440  40.9622420  44.5780140
  76.8666480  40.8749820  45.4576160  75.9304260  40.1988970  44.4787000
  76.0509440  37.8731510  48.4838560  75.1565490  37.8398270  48.8232270
  76.5906990  38.0718300  49.2489810  89.7385370  34.6563230  50.3690310
  90.6155550  34.6646630  50.7524310  89.7506210  33.9194070  49.7582660
  74.6755590  37.7868780  35.9802130  73.7719670  38.0498980  35.8053790
  75.1596210  38.0579950  35.2002090  77.2182800  36.8434320  33.8896510
  77.9274500  36.4217540  33.4043790  76.5022740  36.9109550  33.2579860
  76.8656960  32.8973650  32.9299160  77.5885090  33.4382590  33.2480380
  77.1381480  32.6237070  32.0540700  76.5549150  32.1479840  42.8321780
  77.2025340  31.5977220  42.3916940  76.9750990  32.4022990  43.6537590
  90.0082950  49.0437200  39.5909660  90.6042020  48.7221770  38.9144080
  90.2661100  48.5709020  40.3822930  76.3081150  32.3035510  45.5747100
  75.9595970  32.7599330  46.3405280  75.9768850  31.4092640  45.6569530
  77.9145520  45.4755110  49.7400290  77.8715150  45.1048020  50.6214750
  78.0456530  46.4132680  49.8802110  81.6151550  47.0314700  45.3410010
  81.3742910  47.2989260  44.4540530  82.5554190  47.2020430  45.3960870
  83.8205970  33.4947390  49.0966520  83.7594860  34.0869220  49.8461930
  84.7606350  33.3873350  48.9516780  86.4580530  33.1517450  48.7358810
  87.0720940  33.4696740  48.0739890  87.0030090  32.6666040  49.3554670
  76.9801790  31.8311710  48.8497870  77.5284780  31.6499760  48.0863980
  77.0457100  31.0405820  49.3854180  77.7533550  48.4217360  46.8598070
  77.1593870  48.2902060  47.5988110  77.7457390  47.5855500  46.3940170
  87.1988570  31.7149590  45.0628100  86.3248410  32.0484700  44.8601030
  87.0899320  31.2422770  45.8879970  88.1060550  33.9220460  46.4469820
  87.7773910  33.1072220  46.0671550  89.0542850  33.8790270  46.3235510
  90.5595160  49.6932500  43.4207390  90.0998130  50.4448310  43.0465410
  89.9307620  48.9738970  43.3622190  77.3845780  45.7875740  45.8106110
  76.6579840  45.1681030  45.7432060  77.4454930  46.1816350  44.9404190
  80.9890880  48.0020740  42.5955520  81.5055900  47.3908100  42.0703780
  81.6388260  48.5049520  43.0866530  83.7286380  48.8929230  43.4224500
  84.0164190  48.6383530  42.5457510  84.2409600  48.3406590  44.0130070
  84.9463390  32.6319430  44.0021010  84.1635180  33.1064930  44.2817770
  84.6526320  31.7274260  43.8934190  89.4984460  33.3342530  42.0470100
  89.9392550  33.2787630  41.1991700  89.2292050  34.2500540  42.1180280
  75.6675780  49.1050130  39.0202870  75.4997820  48.4720810  39.7184760
  74.8010290  49.3109530  38.6697060  76.2903800  32.9366910  36.5234730
  77.0483160  33.0495790  35.9498760  75.8280970  33.7736110  36.4778160
  82.8317610  35.0506180  39.5137040  82.0192120  34.6763070  39.1732920
  83.3359250  34.2951260  39.8158230  87.3342590  31.7148630  40.7520110
  87.9371960  32.2868840  41.2268630  86.5935580  32.2788070  40.5294010
  77.2738480  47.7983360  36.4653010  76.7486100  48.1791390  35.7614970
  77.1983060  48.4234130  37.1862720  78.6628950  33.4630960  35.0636700
  79.1921710  32.6760760  34.9344650  79.2957270  34.1422150  35.2972230
  80.8566790  33.2006100  38.1182090  80.2269530  32.4993410  38.2852220
  80.3171930  33.9610230  37.9015250  83.7958740  49.8145330  50.7892700
  84.7226050  49.5789600  50.8328660  83.7809170  50.6417330  50.3078730
  80.9822350  32.4790080  50.5534580  80.7006620  32.9823680  49.7895400
  81.3642050  31.6811830  50.1876710  79.8731450  49.7465740  35.3402260
  80.6050270  49.4625020  34.7926150  80.1325120  49.5079020  36.2301640
  79.0346240  45.8630470  35.3448590  78.4055120  46.3315570  35.8934420
  79.1494070  45.0179690  35.7794780  87.5837810  31.8943660  51.1315050
  87.4703260  32.2138270  52.0266570  88.4007550  32.2956170  50.8352330
  86.4895960  39.9136130  21.4949790  86.4090010  38.9990740  21.2241500
  86.0760380  40.4103200  20.7889500  84.6214000  41.6915150  23.3759060
  83.8456100  41.2115590  23.6657630  85.2726930  41.0120800  23.2015220
  78.6379830  42.0034960  24.2534820  77.8064710  41.7483670  24.6531330
  79.2460810  42.0745730  24.9892740  88.6421430  46.0975340  22.1558190
  88.1802960  45.3262580  22.4845360  89.4546980  46.1241410  22.6610640
  78.6181090  46.0375050  24.4492840  78.9209130  45.1472790  24.2703060
  79.3624680  46.5945270  24.2215090  77.0471780  36.9636850  18.0377210
  76.1588480  37.3052820  17.9357090  77.3312970  36.7637170  17.1458040
  75.0104790  39.5642500  23.9216910  75.5820900  38.7964700  23.9220550
  75.0106330  39.8631260  23.0123520  84.8684740  48.3833350  21.7762180
  84.2496180  48.8390850  21.2056620  85.7236520  48.5384810  21.3751880
  84.0622990  44.3672340  23.3829220  83.9931270  43.4262280  23.2218350
  84.8242850  44.4573750  23.9551790  76.2529660  34.9726860  25.7085840
  76.0732500  34.0752610  25.9888600  75.8509740  35.5198730  26.3832790
  85.0928160  37.1742720  23.6098150  85.4692980  36.3014600  23.4971820
  84.9947670  37.5101420  22.7188590  79.2233170  35.5468350  19.0715590
  79.3299920  36.4472080  19.3784350  78.3125530  35.4986320  18.7810240
  88.8752280  34.6693160  20.5426490  89.6961900  34.1789730  20.5851970
  88.9086360  35.2590820  21.2958330  76.8716330  37.4687360  24.3168180
  77.5526440  37.7325730  24.9355580  76.5564380  36.6288230  24.6506190
  81.0640900  38.5154720  23.4040770  81.5719120  39.0135690  24.0445790
  81.5954140  37.7389920  23.2280130  79.3477000  33.1553280  27.6704190
  79.3495440  33.6725670  26.8650090  78.5181310  32.6783460  27.6474120
  85.7348090  43.2672590  19.1694090  85.1165360  43.7322040  18.6056810
  86.2471340  43.9600070  19.5863600  80.5979850  42.7948460  25.8477690
  80.2649230  43.4217380  26.4898760  80.7746530  43.3210340  25.0679360
  89.1113760  36.6093540  23.3154030  88.4069330  36.8978430  23.8957140
  89.4725920  37.4193650  22.9553590  79.0292330  34.8663240  25.6774640
  79.3709140  35.7105290  25.3828510  78.0908140  35.0146980  25.7939980
  79.8098950  44.7629260  27.6626870  80.4272950  45.4380340  27.3811320
  78.9492070  45.1717240  27.5714370  75.1031290  43.9529120  16.5433720
  74.7259270  44.4416220  15.8118620  75.3604360  44.6254400  17.1740250
  82.7120220  32.3545510  22.0019230  83.0195200  31.7992400  21.2854730
  81.7820920  32.4889970  21.8192220  88.2635280  48.0712800  24.2926690
  88.2762440  47.6675090  23.4248950  87.7110500  48.8460090  24.1888120
  89.5580700  44.7929020  19.3816860  89.4477030  43.8503350  19.5066280
  89.5548950  45.1544660  20.2679620  87.6620720  42.9742640  25.6209300
  88.0789510  42.7602750  24.7862760  88.3860540  43.2315430  26.1917920
  85.1000980  40.4194340  18.7379350  84.1730260  40.3531720  18.9667820
  85.2525800  41.3574470  18.6234590  85.0870060  36.6911340  15.7346510
  84.1473730  36.8525300  15.8198970  85.4053320  37.4097020  15.1882500
  89.1298270  41.9814640  19.2414600  88.5110690  41.6434190  18.5940900
  89.1122720  41.3374400  19.9493790  88.5724830  38.1599180  26.6580410
  88.1596010  38.9852890  26.9120400  87.8400780  37.5744220  26.4656770
  80.7057620  40.9459080  21.5199080  80.3014620  40.2336330  21.0244980
  80.7920740  40.6012320  22.4087120  81.1739320  44.6326640  23.6838290
  80.8767610  44.0272110  23.0046070  82.1239140  44.6703950  23.5727650
  79.4186240  37.7202290  25.2998120  79.9700830  37.8297630  24.5251370
  79.9329750  38.0939890  26.0153350  89.2624930  48.2058510  27.3461390
  88.7855490  49.0130700  27.1534000  88.5786720  47.5536840  27.4987600
  80.2657750  44.3708330  30.3346090  79.3686280  44.5948300  30.5819490
  80.2910620  44.4943270  29.3857490  87.3062970  41.2201450  16.2487350
  87.7456250  40.3823880  16.1025170  88.0191390  41.8530850  16.3351490
  79.0928970  41.2421650  28.9103460  78.9536740  42.1144450  29.2790860
  78.2110330  40.8994460  28.7651400  85.4158350  46.1597520  20.2168590
  85.8554260  46.9021850  19.8023980  85.3545240  46.4024090  21.1407550
  80.8909320  47.1843350  31.1188610  80.8624750  47.5886300  30.2517040
  80.7274290  46.2553710  30.9560210  77.4062250  39.8404060  19.0205730
  77.2859850  40.5666150  18.4087000  77.0963140  39.0706970  18.5433640
  75.0447620  43.0119200  24.8274370  75.1228040  43.1467970  23.8830090
  75.6589300  42.3035090  25.0202490  76.2895250  44.7119390  21.2380550
  75.8823330  44.8533980  20.3834150  77.1808260  44.4279550  21.0351760
  86.1074130  48.8611300  28.1447600  86.6218800  48.7719310  28.9470030
  85.2643210  49.2071000  28.4375510  88.0828530  49.1466640  17.5731600
  87.9229670  48.8569580  18.4713430  87.9175240  48.3706770  17.0376830
  80.5616910  48.9265170  19.3503220  80.3859390  48.0100710  19.1371020
  79.7072650  49.2852460  19.5901020  87.7854660  46.6554200  16.1329600
  87.0919820  46.6531490  15.4731880  88.5277520  46.2313520  15.7023770
  87.3504590  48.2816910  20.2078090  87.8061540  47.5006290  20.5216710
  87.6897110  48.9923730  20.7519270  75.1007140  44.0533370  27.3668830
  75.2638180  43.5838730  26.5488200  75.5659590  43.5456930  28.0317670
  79.8725910  33.1839130  22.4029400  79.4294060  33.9648670  22.0713920
  80.4310900  33.5069020  23.1100340  84.1595720  36.0507650  28.0064720
  83.6975090  36.2590670  28.8184660  83.7573830  35.2367000  27.7035390
  89.1600230  37.2716600  29.1361380  88.3093820  36.9722350  29.4570450
  89.0002020  37.5158610  28.2245200  86.2549940  38.7718350  31.2360170
  86.5803350  37.9382100  30.8962400  87.0430270  39.2946870  31.3838500
  82.9884730  32.8049830  17.2835230  82.3638910  32.8009700  18.0088540
  82.9014850  31.9380790  16.8871200  81.9101810  33.7286460  24.2619000
  82.2074140  34.6349290  24.1811020  82.4587370  33.2405240  23.6478570
  79.6640130  38.3072700  20.1310650  79.4381050  38.0909870  21.0357270
  78.8832660  38.7401160  19.7856620  86.8937890  38.3136070  18.7301300
  86.2946780  39.0371870  18.5464920  87.4417500  38.2512850  17.9477750
  82.1039340  39.2058280  30.7970920  82.0082940  38.2653010  30.6471320
  82.9471320  39.4273350  30.4018990  85.5002760  36.9499610  20.7604580
  85.8932330  37.2671810  19.9473270  85.8619610  36.0711490  20.8749100
  77.2349880  35.6171950  28.9504700  76.8413270  36.4647160  29.1577480
  76.5468280  34.9798320  29.1413340  83.8094930  35.7006920  32.0201440
  83.1193250  35.5079120  32.6547530  84.5527230  35.9841560  32.5525740
  74.5366930  33.5400410  22.9834780  74.2479980  34.1103270  23.6959760
  75.2812690  33.0604860  23.3466010  74.7237160  37.4820530  14.1937500
  74.6411830  38.4251290  14.3352490  74.3720220  37.3395440  13.3149850
  86.0857900  39.5405360  24.8555360  85.3539020  40.0492170  25.2045460
  85.6882240  38.7235340  24.5544140  82.5235290  36.2159560  23.2607850
  82.5271350  35.7749510  22.4112390  83.4186410  36.5376890  23.3679670
  78.3737670  36.0986050  22.2202060  78.0337720  36.5761280  22.9769110
  77.6114990  35.6451170  21.8603160  82.5855440  37.2171640  16.2514610
  82.7068260  37.1758120  17.2000430  82.2003950  38.0795790  16.0961340
  86.5483810  34.9939040  24.2678300  86.5656550  35.4447690  25.1120150
  86.2999390  34.0944680  24.4811740  81.5976940  39.5272780  15.6497910
  81.0293840  39.0791030  15.0233820  82.3065940  39.8865560  15.1163060
  89.9754560  32.4071220  30.1064680  90.3000330  31.6760880  30.6322660
  90.0111070  32.0884860  29.2045670  76.6746120  43.4284800  29.5264640
  76.2900910  42.7878470  30.1247600  76.9858310  44.1320920  30.0959370
  82.8243260  40.2761340  25.0073260  83.1913390  39.8019910  25.7534600
  82.6348320  41.1502910  25.3481600  75.6883750  35.0205030  21.1366730
  75.4030670  34.6560700  21.9745350  75.6262610  34.2885490  20.5229870
  80.6142630  39.3169980  27.3257470  80.3099700  40.1961960  27.5507830
  81.5689090  39.3769770  27.3614910  79.1424420  43.5230970  17.9224320
  78.3686680  42.9828590  17.7623040  79.8719050  43.0037580  17.5842080
  89.9012400  42.5196330  23.7150710  90.6211520  43.0151620  23.3246820
  89.6994220  41.8414220  23.0704580  85.3622340  33.9134290  17.8580100
  84.5486950  33.4147460  17.7825410  85.1684290  34.7532540  17.4416450
  85.2831200  42.5905390  29.6019710  85.2168510  41.6701060  29.3477300
  84.6536340  42.6880830  30.3164350  88.0770730  38.2853940  16.1542260
  88.9650350  38.5971170  15.9793600  88.0475820  37.4126190  15.7622840
  79.1861820  43.1911350  21.5603130  79.7040490  42.3879610  21.5060020
  78.7345840  43.1290490  22.4019960  84.0731320  44.4577630  16.8330430
  84.4147020  45.2019860  16.3373750  83.2444030  44.7708750  17.1955260
  76.6706360  40.1572720  28.4728830  76.3121300  40.8226570  29.0602170
  76.3760920  39.3256270  28.8441450  79.8719480  40.6156960  31.3568380
  79.5719620  40.7614140  30.4596200  80.6430720  40.0562250  31.2641770
  85.2147930  45.4125960  29.3523510  85.2292470  44.4806920  29.1342420
  84.5073030  45.4985720  29.9913280  86.9558730  43.7793470  22.1975940
  87.3082550  43.1821600  21.5377310  86.0721060  43.4537700  22.3684190
  83.0422010  44.5391160  19.6046350  83.7293140  45.0860370  19.9853940
  82.2554430  45.0831890  19.6395960  75.1814410  40.1563980  15.0963430
  76.0509260  40.4388780  15.3799350  74.6904730  40.9699850  14.9812240
  82.3449220  41.5437190  19.2171710  82.8012000  42.3542440  19.4431900
  81.9937430  41.2260330  20.0490200  84.6481830  47.0543530  26.4464010
  85.2924050  47.2602910  27.1237430  85.0111270  46.2931930  25.9934860
  78.2461000  31.8874840  19.6894230  78.1175630  31.8792740  20.6379150
  77.4223020  32.2257930  19.3385240  85.9213910  45.0575880  25.1641460
  86.5636140  44.3569040  25.2773630  86.4463260  45.8374320  24.9838350
  89.7669630  45.3424500  14.8880600  89.5407210  44.6254940  15.4805240
  89.3765830  45.0936940  14.0502350  87.6951530  45.8570780  28.3677520
  88.0307770  46.4437470  29.0455440  86.7751870  45.7263490  28.5975310
  75.5485660  49.3691360  15.6625060  75.9083300  49.9680700  15.0082330
  75.4078000  49.9151250  16.4360090  75.2454930  33.6465960  29.1500930
  74.5313450  33.8462880  29.7553540  75.6649970  32.8705530  29.5215730
  89.3485880  43.2596440  16.5494760  89.0607580  43.7209130  17.3372640
  90.1438050  42.7994210  16.8178980  75.5327520  47.6346220  30.1367460
  75.6418640  46.6940960  29.9962850  74.8808080  47.9000970  29.4881190
  83.5240110  45.9062110  31.5365580  83.2036980  45.1871350  32.0811270
  82.8498470  46.5817180  31.6101640  81.5654280  46.7522560  16.4798730
  81.5564380  47.4852250  15.8643240  80.6452640  46.5054140  16.5725690
  77.1660920  41.9737450  17.2245490  76.5588870  42.7136350  17.2340790
  77.6410270  42.0636810  16.3983690  86.7393710  36.1388270  26.9002380
  87.1074530  35.3183480  27.2281950  85.8791910  36.1990160  27.3158030
  90.1055740  35.0945210  17.7089940  89.4768900  35.1990880  16.9948170
  89.6107660  35.3141990  18.4983820  84.5513880  46.8150800  15.1423920
  84.6525860  46.6114790  14.2125900  83.6515620  46.5609080  15.3471700
  82.0739770  37.3731160  19.1247820  81.3655920  37.8417500  19.5661430
  82.3584250  36.7153170  19.7593010  83.6995700  38.7927860  27.1240350
  84.1980950  39.2673680  27.7892200  83.8418650  37.8691380  27.3310380
  86.1055200  34.0981820  20.5643610  85.9822980  34.1167950  19.6153120
  87.0539760  34.1460760  20.6842010  83.1931990  49.3337120  19.8371590
  83.4473490  49.2958510  18.9150960  82.2444470  49.2070450  19.8299840
  80.2774790  35.6816240  16.4998530  81.1265320  36.1186390  16.4338720
  79.9106060  35.9936500  17.3270590  89.1984570  40.2529000  21.4130100
  88.2574710  40.2679230  21.5877790  89.5128640  39.4664960  21.8590400
  79.1766210  41.9348600  14.9734060  79.9429480  41.8229960  15.5359490
  79.2540900  41.2386570  14.3210830  77.8712970  39.3673670  15.6566950
  77.9516560  38.4201180  15.7684350  78.7632720  39.6980550  15.7627610
  78.6727680  49.5169060  22.7601490  79.4090160  48.9684520  23.0310060
  79.0568600  50.3825070  22.6207480  75.5573160  45.5842630  18.6343000
  74.6312940  45.8263770  18.6248410  76.0229590  46.4116890  18.5127750
  77.6785960  48.7015130  31.9487070  78.4798690  49.0227180  32.3622470
  77.1637780  48.3410710  32.6706980  81.7829990  48.6899370  14.5827060
  82.5758600  48.9788200  14.1308850  81.2634340  48.2591540  13.9039540
  86.5150590  44.8095000  31.8962480  85.9088750  44.8326600  31.1558230
  86.2104700  44.0778040  32.4329730  87.9450960  48.5375290  30.5071890
  88.8972710  48.4533310  30.4572130  87.7979180  49.2017000  31.1805680
  75.3983770  41.1888590  30.8923120  75.9022790  40.6095870  31.4639350
  74.6591190  41.4728820  31.4299490  82.3007390  43.9102780  14.4469410
  82.1958030  43.2955130  15.1730790  82.1331610  43.3868670  13.6632420
  82.4521710  42.5959580  30.4258640  81.6867380  43.1644580  30.3413310
  82.6337670  42.3035790  29.5326870  85.5410120  42.9722810  15.0511400
  84.9920220  43.4192110  15.6954140  86.1629380  42.4672060  15.5749070
  89.5945060  44.3264910  30.9833660  90.3354530  44.6640670  30.4801120
  88.8317740  44.4956970  30.4303430  77.4306850  39.3318180  31.7873190
  77.4712190  39.0332050  32.6958420  78.2852350  39.7325790  31.6280710
  81.2085240  41.9313730  16.9476700  81.6301660  41.7653600  17.7908090
  81.3336080  41.1213960  16.4531840  79.3712660  37.9110280  29.7547680
  78.8409120  37.4201230  29.1271020  80.0400730  38.3394480  29.2205610
  83.7212880  40.9551340  14.1953800  84.2418540  40.2400360  13.8294950
  84.3681280  41.5937210  14.4954310  88.2690720  42.3779740  29.5188870
  88.6831740  42.5324820  30.3679290  87.3341720  42.5034960  29.6814650
  88.7412890  39.7175900  31.5228020  89.3233660  38.9628220  31.4348500
  88.9174660  40.2483340  30.7459500  79.8584960  34.8772650  29.8344970
  79.7641830  34.2593400  29.1095840  79.2782350  35.6038940  29.6074880
  82.6246400  33.4345890  26.8672360  82.1763700  33.4570150  26.0217910
  81.9911600  33.0364910  27.4642660  83.0305950  42.3300220  27.4884800
  83.4494060  43.1732950  27.3161040  82.1114580  42.4672260  27.2591580
  85.3669850  40.0616400  28.8722640  85.4866060  39.4657540  29.6117480
  86.2263850  40.0986090  28.4523940  87.7057750  40.6153590  27.4485150
  87.1792970  41.1396210  26.8450290  88.0489090  41.2480980  28.0794880
  80.1044140  38.0046960  13.8934860  79.9033200  37.1414320  14.2548200
  79.9336190  37.9180320  12.9556460  80.8813370  48.6353230  28.6042530
  80.3434460  49.3599290  28.2851230  81.1347330  48.1583570  27.8139870
  82.1338620  36.6037750  30.1298460  82.7238310  36.2953600  30.8176280
  81.3158860  36.1317500  30.2858360  86.9532050  36.2203560  30.3631480
  86.2647570  35.5585100  30.2981470  87.6738070  35.7741830  30.8079940
  87.5832450  32.8155190  16.4221740  87.8634740  31.9723090  16.7781160
  86.8098180  33.0478300  16.9360490  78.9026940  35.1047580  13.8812740
  79.2052840  35.1115010  12.9731890  79.6421530  34.7545440  14.3780400
  83.7375580  49.8704440  28.8629180  83.6634280  50.7739580  29.1701550
  82.8354420  49.5516340  28.8351250  82.1211870  34.0482200  14.8668940
  81.7733870  33.3706190  14.2871390  82.3224640  33.5871710  15.6812330
  84.2860910  49.0362950  16.4855540  85.1811700  49.3747920  16.5074300
  84.3178540  48.3142360  15.8579820  77.9257070  44.4090000  14.7142540
  78.3631940  44.9519670  15.3700120  78.4104800  43.5836950  14.7238880
  75.1402870  47.1979030  22.1662800  75.4705880  46.3300090  21.9341440
  75.5693870  47.4037550  22.9967760  79.7364790  45.5288040  19.8264770
  79.4360330  45.4053010  20.7268680  79.6302280  44.6696630  19.4180500
  75.6293080  48.0649620  24.9044430  75.1924070  48.2450420  25.7368580
  76.1970760  48.8224240  24.7626150  75.4617510  40.5769850  21.2633310
  74.8066350  40.3081490  20.6193010  76.2995460  40.4674330  20.8135290
  89.9506900  44.2918600  27.2897900  89.1366740  44.7215760  27.5523690
  90.3581100  44.9037010  26.6766950  88.4107950  35.3711140  15.4851800
  88.8292830  35.1842120  14.6448460  88.1044010  34.5190190  15.7954730
  76.4993440  40.9622420  25.8036650  76.8666480  40.8749820  26.6832670
  75.9304260  40.1988970  25.7043510  76.0509440  37.8731510  29.7095070
  75.1565490  37.8398270  30.0488780  76.5906990  38.0718300  30.4746320
  89.7385370  34.6563230  31.5946820  90.6155550  34.6646630  31.9780820
  89.7506210  33.9194070  30.9839170  74.6755590  37.7868780  17.2058640
  73.7719670  38.0498980  17.0310300  75.1596210  38.0579950  16.4258600
  77.2182800  36.8434320  15.1153020  77.9274500  36.4217540  14.6300300
  76.5022740  36.9109550  14.4836370  76.8656960  32.8973650  14.1555670
  77.5885090  33.4382590  14.4736890  77.1381480  32.6237070  13.2797210
  76.5549150  32.1479840  24.0578290  77.2025340  31.5977220  23.6173450
  76.9750990  32.4022990  24.8794100  90.0082950  49.0437200  20.8166170
  90.6042020  48.7221770  20.1400590  90.2661100  48.5709020  21.6079440
  76.3081150  32.3035510  26.8003610  75.9595970  32.7599330  27.5661790
  75.9768850  31.4092640  26.8826040  77.9145520  45.4755110  30.9656800
  77.8715150  45.1048020  31.8471260  78.0456530  46.4132680  31.1058620
  81.6151550  47.0314700  26.5666520  81.3742910  47.2989260  25.6797040
  82.5554190  47.2020430  26.6217380  83.8205970  33.4947390  30.3223030
  83.7594860  34.0869220  31.0718440  84.7606350  33.3873350  30.1773290
  86.4580530  33.1517450  29.9615320  87.0720940  33.4696740  29.2996400
  87.0030090  32.6666040  30.5811180  76.9801790  31.8311710  30.0754380
  77.5284780  31.6499760  29.3120490  77.0457100  31.0405820  30.6110690
  77.7533550  48.4217360  28.0854580  77.1593870  48.2902060  28.8244620
  77.7457390  47.5855500  27.6196680  87.1988570  31.7149590  26.2884610
  86.3248410  32.0484700  26.0857540  87.0899320  31.2422770  27.1136480
  88.1060550  33.9220460  27.6726330  87.7773910  33.1072220  27.2928060
  89.0542850  33.8790270  27.5492020  90.5595160  49.6932500  24.6463900
  90.0998130  50.4448310  24.2721920  89.9307620  48.9738970  24.5878700
  77.3845780  45.7875740  27.0362620  76.6579840  45.1681030  26.9688570
  77.4454930  46.1816350  26.1660700  80.9890880  48.0020740  23.8212030
  81.5055900  47.3908100  23.2960290  81.6388260  48.5049520  24.3123040
  83.7286380  48.8929230  24.6481010  84.0164190  48.6383530  23.7714020
  84.2409600  48.3406590  25.2386580  84.9463390  32.6319430  25.2277520
  84.1635180  33.1064930  25.5074280  84.6526320  31.7274260  25.1190700
  89.4984460  33.3342530  23.2726610  89.9392550  33.2787630  22.4248210
  89.2292050  34.2500540  23.3436790  75.6675780  49.1050130  20.2459380
  75.4997820  48.4720810  20.9441270  74.8010290  49.3109530  19.8953570
  76.2903800  32.9366910  17.7491240  77.0483160  33.0495790  17.1755270
  75.8280970  33.7736110  17.7034670  82.8317610  35.0506180  20.7393550
  82.0192120  34.6763070  20.3989430  83.3359250  34.2951260  21.0414740
  87.3342590  31.7148630  21.9776620  87.9371960  32.2868840  22.4525140
  86.5935580  32.2788070  21.7550520  77.2738480  47.7983360  17.6909520
  76.7486100  48.1791390  16.9871480  77.1983060  48.4234130  18.4119230
  78.6628950  33.4630960  16.2893210  79.1921710  32.6760760  16.1601160
  79.2957270  34.1422150  16.5228740  80.8566790  33.2006100  19.3438600
  80.2269530  32.4993410  19.5108730  80.3171930  33.9610230  19.1271760
  83.7958740  49.8145330  32.0149210  84.7226050  49.5789600  32.0585170
  83.7809170  50.6417330  31.5335240  80.9822350  32.4790080  31.7791090
  80.7006620  32.9823680  31.0151910  81.3642050  31.6811830  31.4133220
  79.8731450  49.7465740  16.5658770  80.6050270  49.4625020  16.0182660
  80.1325120  49.5079020  17.4558150  79.0346240  45.8630470  16.5705100
  78.4055120  46.3315570  17.1190930  79.1494070  45.0179690  17.0051290
  87.5837810  31.8943660  32.3571560  87.4703260  32.2138270  33.2523080
  88.4007550  32.2956170  32.0608840  86.4895960  39.9136130   2.7206300
  86.4090010  38.9990740   2.4498010  86.0760380  40.4103200   2.0146010
  84.6214000  41.6915150   4.6015570  83.8456100  41.2115590   4.8914140
  85.2726930  41.0120800   4.4271730  78.6379830  42.0034960   5.4791330
  77.8064710  41.7483670   5.8787840  79.2460810  42.0745730   6.2149250
  88.6421430  46.0975340   3.3814700  88.1802960  45.3262580   3.7101870
  89.4546980  46.1241410   3.8867150  78.6181090  46.0375050   5.6749350
  78.9209130  45.1472790   5.4959570  79.3624680  46.5945270   5.4471600
  75.0104790  39.5642500   5.1473420  75.5820900  38.7964700   5.1477060
  75.0106330  39.8631260   4.2380030  84.8684740  48.3833350   3.0018690
  84.2496180  48.8390850   2.4313130  85.7236520  48.5384810   2.6008390
  84.0622990  44.3672340   4.6085730  83.9931270  43.4262280   4.4474860
  84.8242850  44.4573750   5.1808300  76.2529660  34.9726860   6.9342350
  76.0732500  34.0752610   7.2145110  75.8509740  35.5198730   7.6089300
  85.0928160  37.1742720   4.8354660  85.4692980  36.3014600   4.7228330
  84.9947670  37.5101420   3.9445100  88.8752280  34.6693160   1.7683000
  89.6961900  34.1789730   1.8108480  88.9086360  35.2590820   2.5214840
  76.8716330  37.4687360   5.5424690  77.5526440  37.7325730   6.1612090
  76.5564380  36.6288230   5.8762700  81.0640900  38.5154720   4.6297280
  81.5719120  39.0135690   5.2702300  81.5954140  37.7389920   4.4536640
  79.3477000  33.1553280   8.8960700  79.3495440  33.6725670   8.0906600
  78.5181310  32.6783460   8.8730630  80.5979850  42.7948460   7.0734200
  80.2649230  43.4217380   7.7155270  80.7746530  43.3210340   6.2935870
  89.1113760  36.6093540   4.5410540  88.4069330  36.8978430   5.1213650
  89.4725920  37.4193650   4.1810100  79.0292330  34.8663240   6.9031150
  79.3709140  35.7105290   6.6085020  78.0908140  35.0146980   7.0196490
  79.8098950  44.7629260   8.8883380  80.4272950  45.4380340   8.6067830
  78.9492070  45.1717240   8.7970880  82.7120220  32.3545510   3.2275740
  83.0195200  31.7992400   2.5111240  81.7820920  32.4889970   3.0448730
  88.2635280  48.0712800   5.5183200  88.2762440  47.6675090   4.6505460
  87.7110500  48.8460090   5.4144630  87.6620720  42.9742640   6.8465810
  88.0789510  42.7602750   6.0119270  88.3860540  43.2315430   7.4174430
  88.5724830  38.1599180   7.8836920  88.1596010  38.9852890   8.1376910
  87.8400780  37.5744220   7.6913280  80.7057620  40.9459080   2.7455590
  80.3014620  40.2336330   2.2501490  80.7920740  40.6012320   3.6343630
  81.1739320  44.6326640   4.9094800  80.8767610  44.0272110   4.2302580
  82.1239140  44.6703950   4.7984160  79.4186240  37.7202290   6.5254630
  79.9700830  37.8297630   5.7507880  79.9329750  38.0939890   7.2409860
  89.2624930  48.2058510   8.5717900  88.7855490  49.0130700   8.3790510
  88.5786720  47.5536840   8.7244110  80.2657750  44.3708330  11.5602600
  79.3686280  44.5948300  11.8076000  80.2910620  44.4943270  10.6114000
  79.0928970  41.2421650  10.1359970  78.9536740  42.1144450  10.5047370
  78.2110330  40.8994460   9.9907910  80.8909320  47.1843350  12.3445120
  80.8624750  47.5886300  11.4773550  80.7274290  46.2553710  12.1816720
  75.0447620  43.0119200   6.0530880  75.1228040  43.1467970   5.1086600
  75.6589300  42.3035090   6.2459000  76.2895250  44.7119390   2.4637060
  75.8823330  44.8533980   1.6090660  77.1808260  44.4279550   2.2608270
  86.1074130  48.8611300   9.3704110  86.6218800  48.7719310  10.1726540
  85.2643210  49.2071000   9.6632020  75.1007140  44.0533370   8.5925340
  75.2638180  43.5838730   7.7744710  75.5659590  43.5456930   9.2574180
  79.8725910  33.1839130   3.6285910  79.4294060  33.9648670   3.2970430
  80.4310900  33.5069020   4.3356850  84.1595720  36.0507650   9.2321230
  83.6975090  36.2590670  10.0441170  83.7573830  35.2367000   8.9291900
  89.1600230  37.2716600  10.3617890  88.3093820  36.9722350  10.6826960
  89.0002020  37.5158610   9.4501710  86.2549940  38.7718350  12.4616680
  86.5803350  37.9382100  12.1218910  87.0430270  39.2946870  12.6095010
  81.9101810  33.7286460   5.4875510  82.2074140  34.6349290   5.4067530
  82.4587370  33.2405240   4.8735080  82.1039340  39.2058280  12.0227430
  82.0082940  38.2653010  11.8727830  82.9471320  39.4273350  11.6275500
  77.2349880  35.6171950  10.1761210  76.8413270  36.4647160  10.3833990
  76.5468280  34.9798320  10.3669850  83.8094930  35.7006920  13.2457950
  83.1193250  35.5079120  13.8804040  84.5527230  35.9841560  13.7782250
  74.5366930  33.5400410   4.2091290  74.2479980  34.1103270   4.9216270
  75.2812690  33.0604860   4.5722520  86.0857900  39.5405360   6.0811870
  85.3539020  40.0492170   6.4301970  85.6882240  38.7235340   5.7800650
  82.5235290  36.2159560   4.4864360  82.5271350  35.7749510   3.6368900
  83.4186410  36.5376890   4.5936180  78.3737670  36.0986050   3.4458570
  78.0337720  36.5761280   4.2025620  77.6114990  35.6451170   3.0859670
  86.5483810  34.9939040   5.4934810  86.5656550  35.4447690   6.3376660
  86.2999390  34.0944680   5.7068250  89.9754560  32.4071220  11.3321190
  90.3000330  31.6760880  11.8579170  90.0111070  32.0884860  10.4302180
  76.6746120  43.4284800  10.7521150  76.2900910  42.7878470  11.3504110
  76.9858310  44.1320920  11.3215880  82.8243260  40.2761340   6.2329770
  83.1913390  39.8019910   6.9791110  82.6348320  41.1502910   6.5738110
  75.6883750  35.0205030   2.3623240  75.4030670  34.6560700   3.2001860
  75.6262610  34.2885490   1.7486380  80.6142630  39.3169980   8.5513980
  80.3099700  40.1961960   8.7764340  81.5689090  39.3769770   8.5871420
  89.9012400  42.5196330   4.9407220  90.6211520  43.0151620   4.5503330
  89.6994220  41.8414220   4.2961090  85.2831200  42.5905390  10.8276220
  85.2168510  41.6701060  10.5733810  84.6536340  42.6880830  11.5420860
  79.1861820  43.1911350   2.7859640  79.7040490  42.3879610   2.7316530
  78.7345840  43.1290490   3.6276470  76.6706360  40.1572720   9.6985340
  76.3121300  40.8226570  10.2858680  76.3760920  39.3256270  10.0697960
  79.8719480  40.6156960  12.5824890  79.5719620  40.7614140  11.6852710
  80.6430720  40.0562250  12.4898280  85.2147930  45.4125960  10.5780020
  85.2292470  44.4806920  10.3598930  84.5073030  45.4985720  11.2169790
  86.9558730  43.7793470   3.4232450  87.3082550  43.1821600   2.7633820
  86.0721060  43.4537700   3.5940700  84.6481830  47.0543530   7.6720520
  85.2924050  47.2602910   8.3493940  85.0111270  46.2931930   7.2191370
  85.9213910  45.0575880   6.3897970  86.5636140  44.3569040   6.5030140
  86.4463260  45.8374320   6.2094860  87.6951530  45.8570780   9.5934030
  88.0307770  46.4437470  10.2711950  86.7751870  45.7263490   9.8231820
  75.2454930  33.6465960  10.3757440  74.5313450  33.8462880  10.9810050
  75.6649970  32.8705530  10.7472240  75.5327520  47.6346220  11.3623970
  75.6418640  46.6940960  11.2219360  74.8808080  47.9000970  10.7137700
  83.5240110  45.9062110  12.7622090  83.2036980  45.1871350  13.3067780
  82.8498470  46.5817180  12.8358150  86.7393710  36.1388270   8.1258890
  87.1074530  35.3183480   8.4538460  85.8791910  36.1990160   8.5414540
  83.6995700  38.7927860   8.3496860  84.1980950  39.2673680   9.0148710
  83.8418650  37.8691380   8.5566890  89.1984570  40.2529000   2.6386610
  88.2574710  40.2679230   2.8134300  89.5128640  39.4664960   3.0846910
  78.6727680  49.5169060   3.9858000  79.4090160  48.9684520   4.2566570
  79.0568600  50.3825070   3.8463990  77.6785960  48.7015130  13.1743580
  78.4798690  49.0227180  13.5878980  77.1637780  48.3410710  13.8963490
  86.5150590  44.8095000  13.1218990  85.9088750  44.8326600  12.3814740
  86.2104700  44.0778040  13.6586240  87.9450960  48.5375290  11.7328400
  88.8972710  48.4533310  11.6828640  87.7979180  49.2017000  12.4062190
  75.3983770  41.1888590  12.1179630  75.9022790  40.6095870  12.6895860
  74.6591190  41.4728820  12.6556000  82.4521710  42.5959580  11.6515150
  81.6867380  43.1644580  11.5669820  82.6337670  42.3035790  10.7583380
  89.5945060  44.3264910  12.2090170  90.3354530  44.6640670  11.7057630
  88.8317740  44.4956970  11.6559940  77.4306850  39.3318180  13.0129700
  77.4712190  39.0332050  13.9214930  78.2852350  39.7325790  12.8537220
  79.3712660  37.9110280  10.9804190  78.8409120  37.4201230  10.3527530
  80.0400730  38.3394480  10.4462120  88.2690720  42.3779740  10.7445380
  88.6831740  42.5324820  11.5935800  87.3341720  42.5034960  10.9071160
  88.7412890  39.7175900  12.7484530  89.3233660  38.9628220  12.6605010
  88.9174660  40.2483340  11.9716010  79.8584960  34.8772650  11.0601480
  79.7641830  34.2593400  10.3352350  79.2782350  35.6038940  10.8331390
  82.6246400  33.4345890   8.0928870  82.1763700  33.4570150   7.2474420
  81.9911600  33.0364910   8.6899170  83.0305950  42.3300220   8.7141310
  83.4494060  43.1732950   8.5417550  82.1114580  42.4672260   8.4848090
  85.3669850  40.0616400  10.0979150  85.4866060  39.4657540  10.8373990
  86.2263850  40.0986090   9.6780450  87.7057750  40.6153590   8.6741660
  87.1792970  41.1396210   8.0706800  88.0489090  41.2480980   9.3051390
  80.8813370  48.6353230   9.8299040  80.3434460  49.3599290   9.5107740
  81.1347330  48.1583570   9.0396380  82.1338620  36.6037750  11.3554970
  82.7238310  36.2953600  12.0432790  81.3158860  36.1317500  11.5114870
  86.9532050  36.2203560  11.5887990  86.2647570  35.5585100  11.5237980
  87.6738070  35.7741830  12.0336450  83.7375580  49.8704440  10.0885690
  83.6634280  50.7739580  10.3958060  82.8354420  49.5516340  10.0607760
  75.1402870  47.1979030   3.3919310  75.4705880  46.3300090   3.1597950
  75.5693870  47.4037550   4.2224270  75.6293080  48.0649620   6.1300940
  75.1924070  48.2450420   6.9625090  76.1970760  48.8224240   5.9882660
  75.4617510  40.5769850   2.4889820  74.8066350  40.3081490   1.8449520
  76.2995460  40.4674330   2.0391800  89.9506900  44.2918600   8.5154410
  89.1366740  44.7215760   8.7780200  90.3581100  44.9037010   7.9023460
  76.4993440  40.9622420   7.0293160  76.8666480  40.8749820   7.9089180
  75.9304260  40.1988970   6.9300020  76.0509440  37.8731510  10.9351580
  75.1565490  37.8398270  11.2745290  76.5906990  38.0718300  11.7002830
  89.7385370  34.6563230  12.8203330  90.6155550  34.6646630  13.2037330
  89.7506210  33.9194070  12.2095680  76.5549150  32.1479840   5.2834800
  77.2025340  31.5977220   4.8429960  76.9750990  32.4022990   6.1050610
  76.3081150  32.3035510   8.0260120  75.9595970  32.7599330   8.7918300
  75.9768850  31.4092640   8.1082550  77.9145520  45.4755110  12.1913310
  77.8715150  45.1048020  13.0727770  78.0456530  46.4132680  12.3315130
  81.6151550  47.0314700   7.7923030  81.3742910  47.2989260   6.9053550
  82.5554190  47.2020430   7.8473890  83.8205970  33.4947390  11.5479540
  83.7594860  34.0869220  12.2974950  84.7606350  33.3873350  11.4029800
  86.4580530  33.1517450  11.1871830  87.0720940  33.4696740  10.5252910
  87.0030090  32.6666040  11.8067690  76.9801790  31.8311710  11.3010890
  77.5284780  31.6499760  10.5377000  77.0457100  31.0405820  11.8367200
  77.7533550  48.4217360   9.3111090  77.1593870  48.2902060  10.0501130
  77.7457390  47.5855500   8.8453190  87.1988570  31.7149590   7.5141120
  86.3248410  32.0484700   7.3114050  87.0899320  31.2422770   8.3392990
  88.1060550  33.9220460   8.8982840  87.7773910  33.1072220   8.5184570
  89.0542850  33.8790270   8.7748530  90.5595160  49.6932500   5.8720410
  90.0998130  50.4448310   5.4978430  89.9307620  48.9738970   5.8135210
  77.3845780  45.7875740   8.2619130  76.6579840  45.1681030   8.1945080
  77.4454930  46.1816350   7.3917210  80.9890880  48.0020740   5.0468540
  81.5055900  47.3908100   4.5216800  81.6388260  48.5049520   5.5379550
  83.7286380  48.8929230   5.8737520  84.0164190  48.6383530   4.9970530
  84.2409600  48.3406590   6.4643090  84.9463390  32.6319430   6.4534030
  84.1635180  33.1064930   6.7330790  84.6526320  31.7274260   6.3447210
  89.4984460  33.3342530   4.4983120  89.9392550  33.2787630   3.6504720
  89.2292050  34.2500540   4.5693300  82.8317610  35.0506180   1.9650060
  82.0192120  34.6763070   1.6245940  83.3359250  34.2951260   2.2671250
  87.3342590  31.7148630   3.2033130  87.9371960  32.2868840   3.6781650
  86.5935580  32.2788070   2.9807030  83.7958740  49.8145330  13.2405720
  84.7226050  49.5789600  13.2841680  83.7809170  50.6417330  12.7591750
  80.9822350  32.4790080  13.0047600  80.7006620  32.9823680  12.2408420
  81.3642050  31.6811830  12.6389730  87.5837810  31.8943660  13.5828070
  87.4703260  32.2138270  14.4779590  88.4007550  32.2956170  13.2865350
  86.4895960  21.1392640  59.0436770  86.4090010  20.2247250  58.7728480
  86.0760380  21.6359710  58.3376480  84.6214000  22.9171660  60.9246040
  83.8456100  22.4372100  61.2144610  85.2726930  22.2377310  60.7502200
  78.6379830  23.2291470  61.8021800  77.8064710  22.9740180  62.2018310
  79.2460810  23.3002240  62.5379720  88.6421430  27.3231850  59.7045170
  88.1802960  26.5519090  60.0332340  89.4546980  27.3497920  60.2097620
  78.6181090  27.2631560  61.9979820  78.9209130  26.3729300  61.8190040
  79.3624680  27.8201780  61.7702070  77.0471780  18.1893360  55.5864190
  76.1588480  18.5309330  55.4844070  77.3312970  17.9893680  54.6945020
  75.0104790  20.7899010  61.4703890  75.5820900  20.0221210  61.4707530
  75.0106330  21.0887770  60.5610500  84.8684740  29.6089860  59.3249160
  84.2496180  30.0647360  58.7543600  85.7236520  29.7641320  58.9238860
  84.0622990  25.5928850  60.9316200  83.9931270  24.6518790  60.7705330
  84.8242850  25.6830260  61.5038770  85.0928160  18.3999230  61.1585130
  85.4692980  17.5271110  61.0458800  84.9947670  18.7357930  60.2675570
  79.2233170  16.7724860  56.6202570  79.3299920  17.6728590  56.9271330
  78.3125530  16.7242830  56.3297220  88.8752280  15.8949670  58.0913470
  89.6961900  15.4046240  58.1338950  88.9086360  16.4847330  58.8445310
  76.8716330  18.6943870  61.8655160  77.5526440  18.9582240  62.4842560
  76.5564380  17.8544740  62.1993170  81.0640900  19.7411230  60.9527750
  81.5719120  20.2392200  61.5932770  81.5954140  18.9646430  60.7767110
  85.7348090  24.4929100  56.7181070  85.1165360  24.9578550  56.1543790
  86.2471340  25.1856580  57.1350580  89.1113760  17.8350050  60.8641010
  88.4069330  18.1234940  61.4444120  89.4725920  18.6450160  60.5040570
  79.0292330  16.0919750  63.2261620  79.3709140  16.9361800  62.9315490
  78.0908140  16.2403490  63.3426960  75.1031290  25.1785630  54.0920700
  74.7259270  25.6672730  53.3605600  75.3604360  25.8510910  54.7227230
  82.7120220  13.5802020  59.5506210  83.0195200  13.0248910  58.8341710
  81.7820920  13.7146480  59.3679200  88.2635280  29.2969310  61.8413670
  88.2762440  28.8931600  60.9735930  87.7110500  30.0716600  61.7375100
  89.5580700  26.0185530  56.9303840  89.4477030  25.0759860  57.0553260
  89.5548950  26.3801170  57.8166600  85.1000980  21.6450850  56.2866330
  84.1730260  21.5788230  56.5154800  85.2525800  22.5830980  56.1721570
  85.0870060  17.9167850  53.2833490  84.1473730  18.0781810  53.3685950
  85.4053320  18.6353530  52.7369480  89.1298270  23.2071150  56.7901580
  88.5110690  22.8690700  56.1427880  89.1122720  22.5630910  57.4980770
  80.7057620  22.1715590  59.0686060  80.3014620  21.4592840  58.5731960
  80.7920740  21.8268830  59.9574100  81.1739320  25.8583150  61.2325270
  80.8767610  25.2528620  60.5533050  82.1239140  25.8960460  61.1214630
  87.3062970  22.4457960  53.7974330  87.7456250  21.6080390  53.6512150
  88.0191390  23.0787360  53.8838470  85.4158350  27.3854030  57.7655570
  85.8554260  28.1278360  57.3510960  85.3545240  27.6280600  58.6894530
  77.4062250  21.0660570  56.5692710  77.2859850  21.7922660  55.9573980
  77.0963140  20.2963480  56.0920620  75.0447620  24.2375710  62.3761350
  75.1228040  24.3724480  61.4317070  75.6589300  23.5291600  62.5689470
  76.2895250  25.9375900  58.7867530  75.8823330  26.0790490  57.9321130
  77.1808260  25.6536060  58.5838740  88.0828530  30.3723150  55.1218580
  87.9229670  30.0826090  56.0200410  87.9175240  29.5963280  54.5863810
  80.5616910  30.1521680  56.8990200  80.3859390  29.2357220  56.6858000
  79.7072650  30.5108970  57.1388000  87.7854660  27.8810710  53.6816580
  87.0919820  27.8788000  53.0218860  88.5277520  27.4570030  53.2510750
  87.3504590  29.5073420  57.7565070  87.8061540  28.7262800  58.0703690
  87.6897110  30.2180240  58.3006250  79.8725910  14.4095640  59.9516380
  79.4294060  15.1905180  59.6200900  80.4310900  14.7325530  60.6587320
  82.9884730  14.0306340  54.8322210  82.3638910  14.0266210  55.5575520
  82.9014850  13.1637300  54.4358180  81.9101810  14.9542970  61.8105980
  82.2074140  15.8605800  61.7298000  82.4587370  14.4661750  61.1965550
  79.6640130  19.5329210  57.6797630  79.4381050  19.3166380  58.5844250
  78.8832660  19.9657670  57.3343600  86.8937890  19.5392580  56.2788280
  86.2946780  20.2628380  56.0951900  87.4417500  19.4769360  55.4964730
  85.5002760  18.1756120  58.3091560  85.8932330  18.4928320  57.4960250
  85.8619610  17.2968000  58.4236080  74.5366930  14.7656920  60.5321760
  74.2479980  15.3359780  61.2446740  75.2812690  14.2861370  60.8952990
  74.7237160  18.7077040  51.7424480  74.6411830  19.6507800  51.8839470
  74.3720220  18.5651950  50.8636830  86.0857900  20.7661870  62.4042340
  85.3539020  21.2748680  62.7532440  85.6882240  19.9491850  62.1031120
  82.5235290  17.4416070  60.8094830  82.5271350  17.0006020  59.9599370
  83.4186410  17.7633400  60.9166650  78.3737670  17.3242560  59.7689040
  78.0337720  17.8017790  60.5256090  77.6114990  16.8707680  59.4090140
  82.5855440  18.4428150  53.8001590  82.7068260  18.4014630  54.7487410
  82.2003950  19.3052300  53.6448320  86.5483810  16.2195550  61.8165280
  86.5656550  16.6704200  62.6607130  86.2999390  15.3201190  62.0298720
  81.5976940  20.7529290  53.1984890  81.0293840  20.3047540  52.5720800
  82.3065940  21.1122070  52.6650040  82.8243260  21.5017850  62.5560240
  83.1913390  21.0276420  63.3021580  82.6348320  22.3759420  62.8968580
  75.6883750  16.2461540  58.6853710  75.4030670  15.8817210  59.5232330
  75.6262610  15.5142000  58.0716850  79.1424420  24.7487480  55.4711300
  78.3686680  24.2085100  55.3110020  79.8719050  24.2294090  55.1329060
  89.9012400  23.7452840  61.2637690  90.6211520  24.2408130  60.8733800
  89.6994220  23.0670730  60.6191560  85.3622340  15.1390800  55.4067080
  84.5486950  14.6403970  55.3312390  85.1684290  15.9789050  54.9903430
  88.0770730  19.5110450  53.7029240  88.9650350  19.8227680  53.5280580
  88.0475820  18.6382700  53.3109820  79.1861820  24.4167860  59.1090110
  79.7040490  23.6136120  59.0547000  78.7345840  24.3547000  59.9506940
  84.0731320  25.6834140  54.3817410  84.4147020  26.4276370  53.8860730
  83.2444030  25.9965260  54.7442240  86.9558730  25.0049980  59.7462920
  87.3082550  24.4078110  59.0864290  86.0721060  24.6794210  59.9171170
  83.0422010  25.7647670  57.1533330  83.7293140  26.3116880  57.5340920
  82.2554430  26.3088400  57.1882940  75.1814410  21.3820490  52.6450410
  76.0509260  21.6645290  52.9286330  74.6904730  22.1956360  52.5299220
  82.3449220  22.7693700  56.7658690  82.8012000  23.5798950  56.9918880
  81.9937430  22.4516840  57.5977180  78.2461000  13.1131350  57.2381210
  78.1175630  13.1049250  58.1866130  77.4223020  13.4514440  56.8872220
  85.9213910  26.2832390  62.7128440  86.5636140  25.5825550  62.8260610
  86.4463260  27.0630830  62.5325330  89.7669630  26.5681010  52.4367580
  89.5407210  25.8511450  53.0292220  89.3765830  26.3193450  51.5989330
  75.5485660  30.5947870  53.2112040  75.9083300  31.1937210  52.5569310
  75.4078000  31.1407760  53.9847070  89.3485880  24.4852950  54.0981740
  89.0607580  24.9465640  54.8859620  90.1438050  24.0250720  54.3665960
  81.5654280  27.9779070  54.0285710  81.5564380  28.7108760  53.4130220
  80.6452640  27.7310650  54.1212670  77.1660920  23.1993960  54.7732470
  76.5588870  23.9392860  54.7827770  77.6410270  23.2893320  53.9470670
  90.1055740  16.3201720  55.2576920  89.4768900  16.4247390  54.5435150
  89.6107660  16.5398500  56.0470800  84.5513880  28.0407310  52.6910900
  84.6525860  27.8371300  51.7612880  83.6515620  27.7865590  52.8958680
  82.0739770  18.5987670  56.6734800  81.3655920  19.0674010  57.1148410
  82.3584250  17.9409680  57.3079990  86.1055200  15.3238330  58.1130590
  85.9822980  15.3424460  57.1640100  87.0539760  15.3717270  58.2328990
  83.1931990  30.5593630  57.3858570  83.4473490  30.5215020  56.4637940
  82.2444470  30.4326960  57.3786820  80.2774790  16.9072750  54.0485510
  81.1265320  17.3442900  53.9825700  79.9106060  17.2193010  54.8757570
  89.1984570  21.4785510  58.9617080  88.2574710  21.4935740  59.1364770
  89.5128640  20.6921470  59.4077380  79.1766210  23.1605110  52.5221040
  79.9429480  23.0486470  53.0846470  79.2540900  22.4643080  51.8697810
  77.8712970  20.5930180  53.2053930  77.9516560  19.6457690  53.3171330
  78.7632720  20.9237060  53.3114590  78.6727680  30.7425570  60.3088470
  79.4090160  30.1941030  60.5797040  79.0568600  31.6081580  60.1694460
  75.5573160  26.8099140  56.1829980  74.6312940  27.0520280  56.1735390
  76.0229590  27.6373400  56.0614730  81.7829990  29.9155880  52.1314040
  82.5758600  30.2044710  51.6795830  81.2634340  29.4848050  51.4526520
  82.3007390  25.1359290  51.9956390  82.1958030  24.5211640  52.7217770
  82.1331610  24.6125180  51.2119400  85.5410120  24.1979320  52.5998380
  84.9920220  24.6448620  53.2441120  86.1629380  23.6928570  53.1236050
  81.2085240  23.1570240  54.4963680  81.6301660  22.9910110  55.3395070
  81.3336080  22.3470470  54.0018820  83.7212880  22.1807850  51.7440780
  84.2418540  21.4656870  51.3781930  84.3681280  22.8193720  52.0441290
  80.1044140  19.2303470  51.4421840  79.9033200  18.3670830  51.8035180
  79.9336190  19.1436830  50.5043440  87.5832450  14.0411700  53.9708720
  87.8634740  13.1979600  54.3268140  86.8098180  14.2734810  54.4847470
  78.9026940  16.3304090  51.4299720  79.2052840  16.3371520  50.5218870
  79.6421530  15.9801950  51.9267380  82.1211870  15.2738710  52.4155920
  81.7733870  14.5962700  51.8358370  82.3224640  14.8128220  53.2299310
  84.2860910  30.2619460  54.0342520  85.1811700  30.6004430  54.0561280
  84.3178540  29.5398870  53.4066800  77.9257070  25.6346510  52.2629520
  78.3631940  26.1776180  52.9187100  78.4104800  24.8093460  52.2725860
  75.1402870  28.4235540  59.7149780  75.4705880  27.5556600  59.4828420
  75.5693870  28.6294060  60.5454740  79.7364790  26.7544550  57.3751750
  79.4360330  26.6309520  58.2755660  79.6302280  25.8953140  56.9667480
  75.6293080  29.2906130  62.4531410  75.1924070  29.4706930  63.2855560
  76.1970760  30.0480750  62.3113130  75.4617510  21.8026360  58.8120290
  74.8066350  21.5338000  58.1679990  76.2995460  21.6930840  58.3622270
  88.4107950  16.5967650  53.0338780  88.8292830  16.4098630  52.1935440
  88.1044010  15.7446700  53.3441710  74.6755590  19.0125290  54.7545620
  73.7719670  19.2755490  54.5797280  75.1596210  19.2836460  53.9745580
  77.2182800  18.0690830  52.6640000  77.9274500  17.6474050  52.1787280
  76.5022740  18.1366060  52.0323350  76.8656960  14.1230160  51.7042650
  77.5885090  14.6639100  52.0223870  77.1381480  13.8493580  50.8284190
  76.5549150  13.3736350  61.6065270  77.2025340  12.8233730  61.1660430
  76.9750990  13.6279500  62.4281080  90.0082950  30.2693710  58.3653150
  90.6042020  29.9478280  57.6887570  90.2661100  29.7965530  59.1566420
  90.5595160  30.9189010  62.1950880  90.0998130  31.6704820  61.8208900
  89.9307620  30.1995480  62.1365680  80.9890880  29.2277250  61.3699010
  81.5055900  28.6164610  60.8447270  81.6388260  29.7306030  61.8610020
  83.7286380  30.1185740  62.1967990  84.0164190  29.8640040  61.3201000
  84.2409600  29.5663100  62.7873560  84.9463390  13.8575940  62.7764500
  84.1635180  14.3321440  63.0561260  84.6526320  12.9530770  62.6677680
  89.4984460  14.5599040  60.8213590  89.9392550  14.5044140  59.9735190
  89.2292050  15.4757050  60.8923770  75.6675780  30.3306640  57.7946360
  75.4997820  29.6977320  58.4928250  74.8010290  30.5366040  57.4440550
  76.2903800  14.1623420  55.2978220  77.0483160  14.2752300  54.7242250
  75.8280970  14.9992620  55.2521650  82.8317610  16.2762690  58.2880530
  82.0192120  15.9019580  57.9476410  83.3359250  15.5207770  58.5901720
  87.3342590  12.9405140  59.5263600  87.9371960  13.5125350  60.0012120
  86.5935580  13.5044580  59.3037500  77.2738480  29.0239870  55.2396500
  76.7486100  29.4047900  54.5358460  77.1983060  29.6490640  55.9606210
  78.6628950  14.6887470  53.8380190  79.1921710  13.9017270  53.7088140
  79.2957270  15.3678660  54.0715720  80.8566790  14.4262610  56.8925580
  80.2269530  13.7249920  57.0595710  80.3171930  15.1866740  56.6758740
  79.8731450  30.9722250  54.1145750  80.6050270  30.6881530  53.5669640
  80.1325120  30.7335530  55.0045130  79.0346240  27.0886980  54.1192080
  78.4055120  27.5572080  54.6677910  79.1494070  26.2436200  54.5538270
  86.4895960  21.1392640  40.2693280  86.4090010  20.2247250  39.9984990
  86.0760380  21.6359710  39.5632990  84.6214000  22.9171660  42.1502550
  83.8456100  22.4372100  42.4401120  85.2726930  22.2377310  41.9758710
  78.6379830  23.2291470  43.0278310  77.8064710  22.9740180  43.4274820
  79.2460810  23.3002240  43.7636230  88.6421430  27.3231850  40.9301680
  88.1802960  26.5519090  41.2588850  89.4546980  27.3497920  41.4354130
  78.6181090  27.2631560  43.2236330  78.9209130  26.3729300  43.0446550
  79.3624680  27.8201780  42.9958580  77.0471780  18.1893360  36.8120700
  76.1588480  18.5309330  36.7100580  77.3312970  17.9893680  35.9201530
  75.0104790  20.7899010  42.6960400  75.5820900  20.0221210  42.6964040
  75.0106330  21.0887770  41.7867010  84.8684740  29.6089860  40.5505670
  84.2496180  30.0647360  39.9800110  85.7236520  29.7641320  40.1495370
  84.0622990  25.5928850  42.1572710  83.9931270  24.6518790  41.9961840
  84.8242850  25.6830260  42.7295280  76.2529660  16.1983370  44.4829330
  76.0732500  15.3009120  44.7632090  75.8509740  16.7455240  45.1576280
  85.0928160  18.3999230  42.3841640  85.4692980  17.5271110  42.2715310
  84.9947670  18.7357930  41.4932080  79.2233170  16.7724860  37.8459080
  79.3299920  17.6728590  38.1527840  78.3125530  16.7242830  37.5553730
  88.8752280  15.8949670  39.3169980  89.6961900  15.4046240  39.3595460
  88.9086360  16.4847330  40.0701820  76.8716330  18.6943870  43.0911670
  77.5526440  18.9582240  43.7099070  76.5564380  17.8544740  43.4249680
  81.0640900  19.7411230  42.1784260  81.5719120  20.2392200  42.8189280
  81.5954140  18.9646430  42.0023620  79.3477000  14.3809790  46.4447680
  79.3495440  14.8982180  45.6393580  78.5181310  13.9039970  46.4217610
  85.7348090  24.4929100  37.9437580  85.1165360  24.9578550  37.3800300
  86.2471340  25.1856580  38.3607090  80.5979850  24.0204970  44.6221180
  80.2649230  24.6473890  45.2642250  80.7746530  24.5466850  43.8422850
  89.1113760  17.8350050  42.0897520  88.4069330  18.1234940  42.6700630
  89.4725920  18.6450160  41.7297080  79.0292330  16.0919750  44.4518130
  79.3709140  16.9361800  44.1572000  78.0908140  16.2403490  44.5683470
  79.8098950  25.9885770  46.4370360  80.4272950  26.6636850  46.1554810
  78.9492070  26.3973750  46.3457860  75.1031290  25.1785630  35.3177210
  74.7259270  25.6672730  34.5862110  75.3604360  25.8510910  35.9483740
  82.7120220  13.5802020  40.7762720  83.0195200  13.0248910  40.0598220
  81.7820920  13.7146480  40.5935710  88.2635280  29.2969310  43.0670180
  88.2762440  28.8931600  42.1992440  87.7110500  30.0716600  42.9631610
  89.5580700  26.0185530  38.1560350  89.4477030  25.0759860  38.2809770
  89.5548950  26.3801170  39.0423110  87.6620720  24.1999150  44.3952790
  88.0789510  23.9859260  43.5606250  88.3860540  24.4571940  44.9661410
  85.1000980  21.6450850  37.5122840  84.1730260  21.5788230  37.7411310
  85.2525800  22.5830980  37.3978080  85.0870060  17.9167850  34.5090000
  84.1473730  18.0781810  34.5942460  85.4053320  18.6353530  33.9625990
  89.1298270  23.2071150  38.0158090  88.5110690  22.8690700  37.3684390
  89.1122720  22.5630910  38.7237280  88.5724830  19.3855690  45.4323900
  88.1596010  20.2109400  45.6863890  87.8400780  18.8000730  45.2400260
  80.7057620  22.1715590  40.2942570  80.3014620  21.4592840  39.7988470
  80.7920740  21.8268830  41.1830610  81.1739320  25.8583150  42.4581780
  80.8767610  25.2528620  41.7789560  82.1239140  25.8960460  42.3471140
  79.4186240  18.9458800  44.0741610  79.9700830  19.0554140  43.2994860
  79.9329750  19.3196400  44.7896840  89.2624930  29.4315020  46.1204880
  88.7855490  30.2387210  45.9277490  88.5786720  28.7793350  46.2731090
  80.2657750  25.5964840  49.1089580  79.3686280  25.8204810  49.3562980
  80.2910620  25.7199780  48.1600980  87.3062970  22.4457960  35.0230840
  87.7456250  21.6080390  34.8768660  88.0191390  23.0787360  35.1094980
  79.0928970  22.4678160  47.6846950  78.9536740  23.3400960  48.0534350
  78.2110330  22.1250970  47.5394890  85.4158350  27.3854030  38.9912080
  85.8554260  28.1278360  38.5767470  85.3545240  27.6280600  39.9151040
  80.8909320  28.4099860  49.8932100  80.8624750  28.8142810  49.0260530
  80.7274290  27.4810220  49.7303700  77.4062250  21.0660570  37.7949220
  77.2859850  21.7922660  37.1830490  77.0963140  20.2963480  37.3177130
  75.0447620  24.2375710  43.6017860  75.1228040  24.3724480  42.6573580
  75.6589300  23.5291600  43.7945980  76.2895250  25.9375900  40.0124040
  75.8823330  26.0790490  39.1577640  77.1808260  25.6536060  39.8095250
  86.1074130  30.0867810  46.9191090  86.6218800  29.9975820  47.7213520
  85.2643210  30.4327510  47.2119000  88.0828530  30.3723150  36.3475090
  87.9229670  30.0826090  37.2456920  87.9175240  29.5963280  35.8120320
  80.5616910  30.1521680  38.1246710  80.3859390  29.2357220  37.9114510
  79.7072650  30.5108970  38.3644510  87.7854660  27.8810710  34.9073090
  87.0919820  27.8788000  34.2475370  88.5277520  27.4570030  34.4767260
  87.3504590  29.5073420  38.9821580  87.8061540  28.7262800  39.2960200
  87.6897110  30.2180240  39.5262760  75.1007140  25.2789880  46.1412320
  75.2638180  24.8095240  45.3231690  75.5659590  24.7713440  46.8061160
  79.8725910  14.4095640  41.1772890  79.4294060  15.1905180  40.8457410
  80.4310900  14.7325530  41.8843830  84.1595720  17.2764160  46.7808210
  83.6975090  17.4847180  47.5928150  83.7573830  16.4623510  46.4778880
  89.1600230  18.4973110  47.9104870  88.3093820  18.1978860  48.2313940
  89.0002020  18.7415120  46.9988690  86.2549940  19.9974860  50.0103660
  86.5803350  19.1638610  49.6705890  87.0430270  20.5203380  50.1581990
  82.9884730  14.0306340  36.0578720  82.3638910  14.0266210  36.7832030
  82.9014850  13.1637300  35.6614690  81.9101810  14.9542970  43.0362490
  82.2074140  15.8605800  42.9554510  82.4587370  14.4661750  42.4222060
  79.6640130  19.5329210  38.9054140  79.4381050  19.3166380  39.8100760
  78.8832660  19.9657670  38.5600110  86.8937890  19.5392580  37.5044790
  86.2946780  20.2628380  37.3208410  87.4417500  19.4769360  36.7221240
  82.1039340  20.4314790  49.5714410  82.0082940  19.4909520  49.4214810
  82.9471320  20.6529860  49.1762480  85.5002760  18.1756120  39.5348070
  85.8932330  18.4928320  38.7216760  85.8619610  17.2968000  39.6492590
  77.2349880  16.8428460  47.7248190  76.8413270  17.6903670  47.9320970
  76.5468280  16.2054830  47.9156830  83.8094930  16.9263430  50.7944930
  83.1193250  16.7335630  51.4291020  84.5527230  17.2098070  51.3269230
  74.5366930  14.7656920  41.7578270  74.2479980  15.3359780  42.4703250
  75.2812690  14.2861370  42.1209500  74.7237160  18.7077040  32.9680990
  74.6411830  19.6507800  33.1095980  74.3720220  18.5651950  32.0893340
  86.0857900  20.7661870  43.6298850  85.3539020  21.2748680  43.9788950
  85.6882240  19.9491850  43.3287630  82.5235290  17.4416070  42.0351340
  82.5271350  17.0006020  41.1855880  83.4186410  17.7633400  42.1423160
  78.3737670  17.3242560  40.9945550  78.0337720  17.8017790  41.7512600
  77.6114990  16.8707680  40.6346650  82.5855440  18.4428150  35.0258100
  82.7068260  18.4014630  35.9743920  82.2003950  19.3052300  34.8704830
  86.5483810  16.2195550  43.0421790  86.5656550  16.6704200  43.8863640
  86.2999390  15.3201190  43.2555230  81.5976940  20.7529290  34.4241400
  81.0293840  20.3047540  33.7977310  82.3065940  21.1122070  33.8906550
  89.9754560  13.6327730  48.8808170  90.3000330  12.9017390  49.4066150
  90.0111070  13.3141370  47.9789160  76.6746120  24.6541310  48.3008130
  76.2900910  24.0134980  48.8991090  76.9858310  25.3577430  48.8702860
  82.8243260  21.5017850  43.7816750  83.1913390  21.0276420  44.5278090
  82.6348320  22.3759420  44.1225090  75.6883750  16.2461540  39.9110220
  75.4030670  15.8817210  40.7488840  75.6262610  15.5142000  39.2973360
  80.6142630  20.5426490  46.1000960  80.3099700  21.4218470  46.3251320
  81.5689090  20.6026280  46.1358400  79.1424420  24.7487480  36.6967810
  78.3686680  24.2085100  36.5366530  79.8719050  24.2294090  36.3585570
  89.9012400  23.7452840  42.4894200  90.6211520  24.2408130  42.0990310
  89.6994220  23.0670730  41.8448070  85.3622340  15.1390800  36.6323590
  84.5486950  14.6403970  36.5568900  85.1684290  15.9789050  36.2159940
  85.2831200  23.8161900  48.3763200  85.2168510  22.8957570  48.1220790
  84.6536340  23.9137340  49.0907840  88.0770730  19.5110450  34.9285750
  88.9650350  19.8227680  34.7537090  88.0475820  18.6382700  34.5366330
  79.1861820  24.4167860  40.3346620  79.7040490  23.6136120  40.2803510
  78.7345840  24.3547000  41.1763450  84.0731320  25.6834140  35.6073920
  84.4147020  26.4276370  35.1117240  83.2444030  25.9965260  35.9698750
  76.6706360  21.3829230  47.2472320  76.3121300  22.0483080  47.8345660
  76.3760920  20.5512780  47.6184940  79.8719480  21.8413470  50.1311870
  79.5719620  21.9870650  49.2339690  80.6430720  21.2818760  50.0385260
  85.2147930  26.6382470  48.1267000  85.2292470  25.7063430  47.9085910
  84.5073030  26.7242230  48.7656770  86.9558730  25.0049980  40.9719430
  87.3082550  24.4078110  40.3120800  86.0721060  24.6794210  41.1427680
  83.0422010  25.7647670  38.3789840  83.7293140  26.3116880  38.7597430
  82.2554430  26.3088400  38.4139450  75.1814410  21.3820490  33.8706920
  76.0509260  21.6645290  34.1542840  74.6904730  22.1956360  33.7555730
  82.3449220  22.7693700  37.9915200  82.8012000  23.5798950  38.2175390
  81.9937430  22.4516840  38.8233690  84.6481830  28.2800040  45.2207500
  85.2924050  28.4859420  45.8980920  85.0111270  27.5188440  44.7678350
  78.2461000  13.1131350  38.4637720  78.1175630  13.1049250  39.4122640
  77.4223020  13.4514440  38.1128730  85.9213910  26.2832390  43.9384950
  86.5636140  25.5825550  44.0517120  86.4463260  27.0630830  43.7581840
  89.7669630  26.5681010  33.6624090  89.5407210  25.8511450  34.2548730
  89.3765830  26.3193450  32.8245840  87.6951530  27.0827290  47.1421010
  88.0307770  27.6693980  47.8198930  86.7751870  26.9520000  47.3718800
  75.5485660  30.5947870  34.4368550  75.9083300  31.1937210  33.7825820
  75.4078000  31.1407760  35.2103580  75.2454930  14.8722470  47.9244420
  74.5313450  15.0719390  48.5297030  75.6649970  14.0962040  48.2959220
  89.3485880  24.4852950  35.3238250  89.0607580  24.9465640  36.1116130
  90.1438050  24.0250720  35.5922470  75.5327520  28.8602730  48.9110950
  75.6418640  27.9197470  48.7706340  74.8808080  29.1257480  48.2624680
  83.5240110  27.1318620  50.3109070  83.2036980  26.4127860  50.8554760
  82.8498470  27.8073690  50.3845130  81.5654280  27.9779070  35.2542220
  81.5564380  28.7108760  34.6386730  80.6452640  27.7310650  35.3469180
  77.1660920  23.1993960  35.9988980  76.5588870  23.9392860  36.0084280
  77.6410270  23.2893320  35.1727180  86.7393710  17.3644780  45.6745870
  87.1074530  16.5439990  46.0025440  85.8791910  17.4246670  46.0901520
  90.1055740  16.3201720  36.4833430  89.4768900  16.4247390  35.7691660
  89.6107660  16.5398500  37.2727310  84.5513880  28.0407310  33.9167410
  84.6525860  27.8371300  32.9869390  83.6515620  27.7865590  34.1215190
  82.0739770  18.5987670  37.8991310  81.3655920  19.0674010  38.3404920
  82.3584250  17.9409680  38.5336500  83.6995700  20.0184370  45.8983840
  84.1980950  20.4930190  46.5635690  83.8418650  19.0947890  46.1053870
  86.1055200  15.3238330  39.3387100  85.9822980  15.3424460  38.3896610
  87.0539760  15.3717270  39.4585500  83.1931990  30.5593630  38.6115080
  83.4473490  30.5215020  37.6894450  82.2444470  30.4326960  38.6043330
  80.2774790  16.9072750  35.2742020  81.1265320  17.3442900  35.2082210
  79.9106060  17.2193010  36.1014080  89.1984570  21.4785510  40.1873590
  88.2574710  21.4935740  40.3621280  89.5128640  20.6921470  40.6333890
  79.1766210  23.1605110  33.7477550  79.9429480  23.0486470  34.3102980
  79.2540900  22.4643080  33.0954320  77.8712970  20.5930180  34.4310440
  77.9516560  19.6457690  34.5427840  78.7632720  20.9237060  34.5371100
  78.6727680  30.7425570  41.5344980  79.4090160  30.1941030  41.8053550
  79.0568600  31.6081580  41.3950970  75.5573160  26.8099140  37.4086490
  74.6312940  27.0520280  37.3991900  76.0229590  27.6373400  37.2871240
  77.6785960  29.9271640  50.7230560  78.4798690  30.2483690  51.1365960
  77.1637780  29.5667220  51.4450470  81.7829990  29.9155880  33.3570550
  82.5758600  30.2044710  32.9052340  81.2634340  29.4848050  32.6783030
  86.5150590  26.0351510  50.6705970  85.9088750  26.0583110  49.9301720
  86.2104700  25.3034550  51.2073220  87.9450960  29.7631800  49.2815380
  88.8972710  29.6789820  49.2315620  87.7979180  30.4273510  49.9549170
  75.3983770  22.4145100  49.6666610  75.9022790  21.8352380  50.2382840
  74.6591190  22.6985330  50.2042980  82.3007390  25.1359290  33.2212900
  82.1958030  24.5211640  33.9474280  82.1331610  24.6125180  32.4375910
  82.4521710  23.8216090  49.2002130  81.6867380  24.3901090  49.1156800
  82.6337670  23.5292300  48.3070360  85.5410120  24.1979320  33.8254890
  84.9920220  24.6448620  34.4697630  86.1629380  23.6928570  34.3492560
  89.5945060  25.5521420  49.7577150  90.3354530  25.8897180  49.2544610
  88.8317740  25.7213480  49.2046920  77.4306850  20.5574690  50.5616680
  77.4712190  20.2588560  51.4701910  78.2852350  20.9582300  50.4024200
  81.2085240  23.1570240  35.7220190  81.6301660  22.9910110  36.5651580
  81.3336080  22.3470470  35.2275330  79.3712660  19.1366790  48.5291170
  78.8409120  18.6457740  47.9014510  80.0400730  19.5650990  47.9949100
  83.7212880  22.1807850  32.9697290  84.2418540  21.4656870  32.6038440
  84.3681280  22.8193720  33.2697800  88.2690720  23.6036250  48.2932360
  88.6831740  23.7581330  49.1422780  87.3341720  23.7291470  48.4558140
  88.7412890  20.9432410  50.2971510  89.3233660  20.1884730  50.2091990
  88.9174660  21.4739850  49.5202990  79.8584960  16.1029160  48.6088460
  79.7641830  15.4849910  47.8839330  79.2782350  16.8295450  48.3818370
  82.6246400  14.6602400  45.6415850  82.1763700  14.6826660  44.7961400
  81.9911600  14.2621420  46.2386150  83.0305950  23.5556730  46.2628290
  83.4494060  24.3989460  46.0904530  82.1114580  23.6928770  46.0335070
  85.3669850  21.2872910  47.6466130  85.4866060  20.6914050  48.3860970
  86.2263850  21.3242600  47.2267430  87.7057750  21.8410100  46.2228640
  87.1792970  22.3652720  45.6193780  88.0489090  22.4737490  46.8538370
  80.1044140  19.2303470  32.6678350  79.9033200  18.3670830  33.0291690
  79.9336190  19.1436830  31.7299950  80.8813370  29.8609740  47.3786020
  80.3434460  30.5855800  47.0594720  81.1347330  29.3840080  46.5883360
  82.1338620  17.8294260  48.9041950  82.7238310  17.5210110  49.5919770
  81.3158860  17.3574010  49.0601850  86.9532050  17.4460070  49.1374970
  86.2647570  16.7841610  49.0724960  87.6738070  16.9998340  49.5823430
  87.5832450  14.0411700  35.1965230  87.8634740  13.1979600  35.5524650
  86.8098180  14.2734810  35.7103980  78.9026940  16.3304090  32.6556230
  79.2052840  16.3371520  31.7475380  79.6421530  15.9801950  33.1523890
  83.7375580  31.0960950  47.6372670  83.6634280  31.9996090  47.9445040
  82.8354420  30.7772850  47.6094740  82.1211870  15.2738710  33.6412430
  81.7733870  14.5962700  33.0614880  82.3224640  14.8128220  34.4555820
  84.2860910  30.2619460  35.2599030  85.1811700  30.6004430  35.2817790
  84.3178540  29.5398870  34.6323310  77.9257070  25.6346510  33.4886030
  78.3631940  26.1776180  34.1443610  78.4104800  24.8093460  33.4982370
  75.1402870  28.4235540  40.9406290  75.4705880  27.5556600  40.7084930
  75.5693870  28.6294060  41.7711250  79.7364790  26.7544550  38.6008260
  79.4360330  26.6309520  39.5012170  79.6302280  25.8953140  38.1923990
  75.6293080  29.2906130  43.6787920  75.1924070  29.4706930  44.5112070
  76.1970760  30.0480750  43.5369640  75.4617510  21.8026360  40.0376800
  74.8066350  21.5338000  39.3936500  76.2995460  21.6930840  39.5878780
  89.9506900  25.5175110  46.0641390  89.1366740  25.9472270  46.3267180
  90.3581100  26.1293520  45.4510440  88.4107950  16.5967650  34.2595290
  88.8292830  16.4098630  33.4191950  88.1044010  15.7446700  34.5698220
  76.4993440  22.1878930  44.5780140  76.8666480  22.1006330  45.4576160
  75.9304260  21.4245480  44.4787000  76.0509440  19.0988020  48.4838560
  75.1565490  19.0654780  48.8232270  76.5906990  19.2974810  49.2489810
  89.7385370  15.8819740  50.3690310  90.6155550  15.8903140  50.7524310
  89.7506210  15.1450580  49.7582660  74.6755590  19.0125290  35.9802130
  73.7719670  19.2755490  35.8053790  75.1596210  19.2836460  35.2002090
  77.2182800  18.0690830  33.8896510  77.9274500  17.6474050  33.4043790
  76.5022740  18.1366060  33.2579860  76.8656960  14.1230160  32.9299160
  77.5885090  14.6639100  33.2480380  77.1381480  13.8493580  32.0540700
  76.5549150  13.3736350  42.8321780  77.2025340  12.8233730  42.3916940
  76.9750990  13.6279500  43.6537590  90.0082950  30.2693710  39.5909660
  90.6042020  29.9478280  38.9144080  90.2661100  29.7965530  40.3822930
  76.3081150  13.5292020  45.5747100  75.9595970  13.9855840  46.3405280
  75.9768850  12.6349150  45.6569530  77.9145520  26.7011620  49.7400290
  77.8715150  26.3304530  50.6214750  78.0456530  27.6389190  49.8802110
  81.6151550  28.2571210  45.3410010  81.3742910  28.5245770  44.4540530
  82.5554190  28.4276940  45.3960870  83.8205970  14.7203900  49.0966520
  83.7594860  15.3125730  49.8461930  84.7606350  14.6129860  48.9516780
  86.4580530  14.3773960  48.7358810  87.0720940  14.6953250  48.0739890
  87.0030090  13.8922550  49.3554670  76.9801790  13.0568220  48.8497870
  77.5284780  12.8756270  48.0863980  77.0457100  12.2662330  49.3854180
  77.7533550  29.6473870  46.8598070  77.1593870  29.5158570  47.5988110
  77.7457390  28.8112010  46.3940170  87.1988570  12.9406100  45.0628100
  86.3248410  13.2741210  44.8601030  87.0899320  12.4679280  45.8879970
  88.1060550  15.1476970  46.4469820  87.7773910  14.3328730  46.0671550
  89.0542850  15.1046780  46.3235510  90.5595160  30.9189010  43.4207390
  90.0998130  31.6704820  43.0465410  89.9307620  30.1995480  43.3622190
  77.3845780  27.0132250  45.8106110  76.6579840  26.3937540  45.7432060
  77.4454930  27.4072860  44.9404190  80.9890880  29.2277250  42.5955520
  81.5055900  28.6164610  42.0703780  81.6388260  29.7306030  43.0866530
  83.7286380  30.1185740  43.4224500  84.0164190  29.8640040  42.5457510
  84.2409600  29.5663100  44.0130070  84.9463390  13.8575940  44.0021010
  84.1635180  14.3321440  44.2817770  84.6526320  12.9530770  43.8934190
  89.4984460  14.5599040  42.0470100  89.9392550  14.5044140  41.1991700
  89.2292050  15.4757050  42.1180280  75.6675780  30.3306640  39.0202870
  75.4997820  29.6977320  39.7184760  74.8010290  30.5366040  38.6697060
  76.2903800  14.1623420  36.5234730  77.0483160  14.2752300  35.9498760
  75.8280970  14.9992620  36.4778160  82.8317610  16.2762690  39.5137040
  82.0192120  15.9019580  39.1732920  83.3359250  15.5207770  39.8158230
  87.3342590  12.9405140  40.7520110  87.9371960  13.5125350  41.2268630
  86.5935580  13.5044580  40.5294010  77.2738480  29.0239870  36.4653010
  76.7486100  29.4047900  35.7614970  77.1983060  29.6490640  37.1862720
  78.6628950  14.6887470  35.0636700  79.1921710  13.9017270  34.9344650
  79.2957270  15.3678660  35.2972230  80.8566790  14.4262610  38.1182090
  80.2269530  13.7249920  38.2852220  80.3171930  15.1866740  37.9015250
  83.7958740  31.0401840  50.7892700  84.7226050  30.8046110  50.8328660
  83.7809170  31.8673840  50.3078730  80.9822350  13.7046590  50.5534580
  80.7006620  14.2080190  49.7895400  81.3642050  12.9068340  50.1876710
  79.8731450  30.9722250  35.3402260  80.6050270  30.6881530  34.7926150
  80.1325120  30.7335530  36.2301640  79.0346240  27.0886980  35.3448590
  78.4055120  27.5572080  35.8934420  79.1494070  26.2436200  35.7794780
  87.5837810  13.1200170  51.1315050  87.4703260  13.4394780  52.0266570
  88.4007550  13.5212680  50.8352330  86.4895960  21.1392640  21.4949790
  86.4090010  20.2247250  21.2241500  86.0760380  21.6359710  20.7889500
  84.6214000  22.9171660  23.3759060  83.8456100  22.4372100  23.6657630
  85.2726930  22.2377310  23.2015220  78.6379830  23.2291470  24.2534820
  77.8064710  22.9740180  24.6531330  79.2460810  23.3002240  24.9892740
  88.6421430  27.3231850  22.1558190  88.1802960  26.5519090  22.4845360
  89.4546980  27.3497920  22.6610640  78.6181090  27.2631560  24.4492840
  78.9209130  26.3729300  24.2703060  79.3624680  27.8201780  24.2215090
  77.0471780  18.1893360  18.0377210  76.1588480  18.5309330  17.9357090
  77.3312970  17.9893680  17.1458040  75.0104790  20.7899010  23.9216910
  75.5820900  20.0221210  23.9220550  75.0106330  21.0887770  23.0123520
  84.8684740  29.6089860  21.7762180  84.2496180  30.0647360  21.2056620
  85.7236520  29.7641320  21.3751880  84.0622990  25.5928850  23.3829220
  83.9931270  24.6518790  23.2218350  84.8242850  25.6830260  23.9551790
  76.2529660  16.1983370  25.7085840  76.0732500  15.3009120  25.9888600
  75.8509740  16.7455240  26.3832790  85.0928160  18.3999230  23.6098150
  85.4692980  17.5271110  23.4971820  84.9947670  18.7357930  22.7188590
  79.2233170  16.7724860  19.0715590  79.3299920  17.6728590  19.3784350
  78.3125530  16.7242830  18.7810240  88.8752280  15.8949670  20.5426490
  89.6961900  15.4046240  20.5851970  88.9086360  16.4847330  21.2958330
  76.8716330  18.6943870  24.3168180  77.5526440  18.9582240  24.9355580
  76.5564380  17.8544740  24.6506190  81.0640900  19.7411230  23.4040770
  81.5719120  20.2392200  24.0445790  81.5954140  18.9646430  23.2280130
  79.3477000  14.3809790  27.6704190  79.3495440  14.8982180  26.8650090
  78.5181310  13.9039970  27.6474120  85.7348090  24.4929100  19.1694090
  85.1165360  24.9578550  18.6056810  86.2471340  25.1856580  19.5863600
  80.5979850  24.0204970  25.8477690  80.2649230  24.6473890  26.4898760
  80.7746530  24.5466850  25.0679360  89.1113760  17.8350050  23.3154030
  88.4069330  18.1234940  23.8957140  89.4725920  18.6450160  22.9553590
  79.0292330  16.0919750  25.6774640  79.3709140  16.9361800  25.3828510
  78.0908140  16.2403490  25.7939980  79.8098950  25.9885770  27.6626870
  80.4272950  26.6636850  27.3811320  78.9492070  26.3973750  27.5714370
  75.1031290  25.1785630  16.5433720  74.7259270  25.6672730  15.8118620
  75.3604360  25.8510910  17.1740250  82.7120220  13.5802020  22.0019230
  83.0195200  13.0248910  21.2854730  81.7820920  13.7146480  21.8192220
  88.2635280  29.2969310  24.2926690  88.2762440  28.8931600  23.4248950
  87.7110500  30.0716600  24.1888120  89.5580700  26.0185530  19.3816860
  89.4477030  25.0759860  19.5066280  89.5548950  26.3801170  20.2679620
  87.6620720  24.1999150  25.6209300  88.0789510  23.9859260  24.7862760
  88.3860540  24.4571940  26.1917920  85.1000980  21.6450850  18.7379350
  84.1730260  21.5788230  18.9667820  85.2525800  22.5830980  18.6234590
  85.0870060  17.9167850  15.7346510  84.1473730  18.0781810  15.8198970
  85.4053320  18.6353530  15.1882500  89.1298270  23.2071150  19.2414600
  88.5110690  22.8690700  18.5940900  89.1122720  22.5630910  19.9493790
  88.5724830  19.3855690  26.6580410  88.1596010  20.2109400  26.9120400
  87.8400780  18.8000730  26.4656770  80.7057620  22.1715590  21.5199080
  80.3014620  21.4592840  21.0244980  80.7920740  21.8268830  22.4087120
  81.1739320  25.8583150  23.6838290  80.8767610  25.2528620  23.0046070
  82.1239140  25.8960460  23.5727650  79.4186240  18.9458800  25.2998120
  79.9700830  19.0554140  24.5251370  79.9329750  19.3196400  26.0153350
  89.2624930  29.4315020  27.3461390  88.7855490  30.2387210  27.1534000
  88.5786720  28.7793350  27.4987600  80.2657750  25.5964840  30.3346090
  79.3686280  25.8204810  30.5819490  80.2910620  25.7199780  29.3857490
  87.3062970  22.4457960  16.2487350  87.7456250  21.6080390  16.1025170
  88.0191390  23.0787360  16.3351490  79.0928970  22.4678160  28.9103460
  78.9536740  23.3400960  29.2790860  78.2110330  22.1250970  28.7651400
  85.4158350  27.3854030  20.2168590  85.8554260  28.1278360  19.8023980
  85.3545240  27.6280600  21.1407550  80.8909320  28.4099860  31.1188610
  80.8624750  28.8142810  30.2517040  80.7274290  27.4810220  30.9560210
  77.4062250  21.0660570  19.0205730  77.2859850  21.7922660  18.4087000
  77.0963140  20.2963480  18.5433640  75.0447620  24.2375710  24.8274370
  75.1228040  24.3724480  23.8830090  75.6589300  23.5291600  25.0202490
  76.2895250  25.9375900  21.2380550  75.8823330  26.0790490  20.3834150
  77.1808260  25.6536060  21.0351760  86.1074130  30.0867810  28.1447600
  86.6218800  29.9975820  28.9470030  85.2643210  30.4327510  28.4375510
  88.0828530  30.3723150  17.5731600  87.9229670  30.0826090  18.4713430
  87.9175240  29.5963280  17.0376830  80.5616910  30.1521680  19.3503220
  80.3859390  29.2357220  19.1371020  79.7072650  30.5108970  19.5901020
  87.7854660  27.8810710  16.1329600  87.0919820  27.8788000  15.4731880
  88.5277520  27.4570030  15.7023770  87.3504590  29.5073420  20.2078090
  87.8061540  28.7262800  20.5216710  87.6897110  30.2180240  20.7519270
  75.1007140  25.2789880  27.3668830  75.2638180  24.8095240  26.5488200
  75.5659590  24.7713440  28.0317670  79.8725910  14.4095640  22.4029400
  79.4294060  15.1905180  22.0713920  80.4310900  14.7325530  23.1100340
  84.1595720  17.2764160  28.0064720  83.6975090  17.4847180  28.8184660
  83.7573830  16.4623510  27.7035390  89.1600230  18.4973110  29.1361380
  88.3093820  18.1978860  29.4570450  89.0002020  18.7415120  28.2245200
  86.2549940  19.9974860  31.2360170  86.5803350  19.1638610  30.8962400
  87.0430270  20.5203380  31.3838500  82.9884730  14.0306340  17.2835230
  82.3638910  14.0266210  18.0088540  82.9014850  13.1637300  16.8871200
  81.9101810  14.9542970  24.2619000  82.2074140  15.8605800  24.1811020
  82.4587370  14.4661750  23.6478570  79.6640130  19.5329210  20.1310650
  79.4381050  19.3166380  21.0357270  78.8832660  19.9657670  19.7856620
  86.8937890  19.5392580  18.7301300  86.2946780  20.2628380  18.5464920
  87.4417500  19.4769360  17.9477750  82.1039340  20.4314790  30.7970920
  82.0082940  19.4909520  30.6471320  82.9471320  20.6529860  30.4018990
  85.5002760  18.1756120  20.7604580  85.8932330  18.4928320  19.9473270
  85.8619610  17.2968000  20.8749100  77.2349880  16.8428460  28.9504700
  76.8413270  17.6903670  29.1577480  76.5468280  16.2054830  29.1413340
  83.8094930  16.9263430  32.0201440  83.1193250  16.7335630  32.6547530
  84.5527230  17.2098070  32.5525740  74.5366930  14.7656920  22.9834780
  74.2479980  15.3359780  23.6959760  75.2812690  14.2861370  23.3466010
  74.7237160  18.7077040  14.1937500  74.6411830  19.6507800  14.3352490
  74.3720220  18.5651950  13.3149850  86.0857900  20.7661870  24.8555360
  85.3539020  21.2748680  25.2045460  85.6882240  19.9491850  24.5544140
  82.5235290  17.4416070  23.2607850  82.5271350  17.0006020  22.4112390
  83.4186410  17.7633400  23.3679670  78.3737670  17.3242560  22.2202060
  78.0337720  17.8017790  22.9769110  77.6114990  16.8707680  21.8603160
  82.5855440  18.4428150  16.2514610  82.7068260  18.4014630  17.2000430
  82.2003950  19.3052300  16.0961340  86.5483810  16.2195550  24.2678300
  86.5656550  16.6704200  25.1120150  86.2999390  15.3201190  24.4811740
  81.5976940  20.7529290  15.6497910  81.0293840  20.3047540  15.0233820
  82.3065940  21.1122070  15.1163060  89.9754560  13.6327730  30.1064680
  90.3000330  12.9017390  30.6322660  90.0111070  13.3141370  29.2045670
  76.6746120  24.6541310  29.5264640  76.2900910  24.0134980  30.1247600
  76.9858310  25.3577430  30.0959370  82.8243260  21.5017850  25.0073260
  83.1913390  21.0276420  25.7534600  82.6348320  22.3759420  25.3481600
  75.6883750  16.2461540  21.1366730  75.4030670  15.8817210  21.9745350
  75.6262610  15.5142000  20.5229870  80.6142630  20.5426490  27.3257470
  80.3099700  21.4218470  27.5507830  81.5689090  20.6026280  27.3614910
  79.1424420  24.7487480  17.9224320  78.3686680  24.2085100  17.7623040
  79.8719050  24.2294090  17.5842080  89.9012400  23.7452840  23.7150710
  90.6211520  24.2408130  23.3246820  89.6994220  23.0670730  23.0704580
  85.3622340  15.1390800  17.8580100  84.5486950  14.6403970  17.7825410
  85.1684290  15.9789050  17.4416450  85.2831200  23.8161900  29.6019710
  85.2168510  22.8957570  29.3477300  84.6536340  23.9137340  30.3164350
  88.0770730  19.5110450  16.1542260  88.9650350  19.8227680  15.9793600
  88.0475820  18.6382700  15.7622840  79.1861820  24.4167860  21.5603130
  79.7040490  23.6136120  21.5060020  78.7345840  24.3547000  22.4019960
  84.0731320  25.6834140  16.8330430  84.4147020  26.4276370  16.3373750
  83.2444030  25.9965260  17.1955260  76.6706360  21.3829230  28.4728830
  76.3121300  22.0483080  29.0602170  76.3760920  20.5512780  28.8441450
  79.8719480  21.8413470  31.3568380  79.5719620  21.9870650  30.4596200
  80.6430720  21.2818760  31.2641770  85.2147930  26.6382470  29.3523510
  85.2292470  25.7063430  29.1342420  84.5073030  26.7242230  29.9913280
  86.9558730  25.0049980  22.1975940  87.3082550  24.4078110  21.5377310
  86.0721060  24.6794210  22.3684190  83.0422010  25.7647670  19.6046350
  83.7293140  26.3116880  19.9853940  82.2554430  26.3088400  19.6395960
  75.1814410  21.3820490  15.0963430  76.0509260  21.6645290  15.3799350
  74.6904730  22.1956360  14.9812240  82.3449220  22.7693700  19.2171710
  82.8012000  23.5798950  19.4431900  81.9937430  22.4516840  20.0490200
  84.6481830  28.2800040  26.4464010  85.2924050  28.4859420  27.1237430
  85.0111270  27.5188440  25.9934860  78.2461000  13.1131350  19.6894230
  78.1175630  13.1049250  20.6379150  77.4223020  13.4514440  19.3385240
  85.9213910  26.2832390  25.1641460  86.5636140  25.5825550  25.2773630
  86.4463260  27.0630830  24.9838350  89.7669630  26.5681010  14.8880600
  89.5407210  25.8511450  15.4805240  89.3765830  26.3193450  14.0502350
  87.6951530  27.0827290  28.3677520  88.0307770  27.6693980  29.0455440
  86.7751870  26.9520000  28.5975310  75.5485660  30.5947870  15.6625060
  75.9083300  31.1937210  15.0082330  75.4078000  31.1407760  16.4360090
  75.2454930  14.8722470  29.1500930  74.5313450  15.0719390  29.7553540
  75.6649970  14.0962040  29.5215730  89.3485880  24.4852950  16.5494760
  89.0607580  24.9465640  17.3372640  90.1438050  24.0250720  16.8178980
  75.5327520  28.8602730  30.1367460  75.6418640  27.9197470  29.9962850
  74.8808080  29.1257480  29.4881190  83.5240110  27.1318620  31.5365580
  83.2036980  26.4127860  32.0811270  82.8498470  27.8073690  31.6101640
  81.5654280  27.9779070  16.4798730  81.5564380  28.7108760  15.8643240
  80.6452640  27.7310650  16.5725690  77.1660920  23.1993960  17.2245490
  76.5588870  23.9392860  17.2340790  77.6410270  23.2893320  16.3983690
  86.7393710  17.3644780  26.9002380  87.1074530  16.5439990  27.2281950
  85.8791910  17.4246670  27.3158030  90.1055740  16.3201720  17.7089940
  89.4768900  16.4247390  16.9948170  89.6107660  16.5398500  18.4983820
  84.5513880  28.0407310  15.1423920  84.6525860  27.8371300  14.2125900
  83.6515620  27.7865590  15.3471700  82.0739770  18.5987670  19.1247820
  81.3655920  19.0674010  19.5661430  82.3584250  17.9409680  19.7593010
  83.6995700  20.0184370  27.1240350  84.1980950  20.4930190  27.7892200
  83.8418650  19.0947890  27.3310380  86.1055200  15.3238330  20.5643610
  85.9822980  15.3424460  19.6153120  87.0539760  15.3717270  20.6842010
  83.1931990  30.5593630  19.8371590  83.4473490  30.5215020  18.9150960
  82.2444470  30.4326960  19.8299840  80.2774790  16.9072750  16.4998530
  81.1265320  17.3442900  16.4338720  79.9106060  17.2193010  17.3270590
  89.1984570  21.4785510  21.4130100  88.2574710  21.4935740  21.5877790
  89.5128640  20.6921470  21.8590400  79.1766210  23.1605110  14.9734060
  79.9429480  23.0486470  15.5359490  79.2540900  22.4643080  14.3210830
  77.8712970  20.5930180  15.6566950  77.9516560  19.6457690  15.7684350
  78.7632720  20.9237060  15.7627610  78.6727680  30.7425570  22.7601490
  79.4090160  30.1941030  23.0310060  79.0568600  31.6081580  22.6207480
  75.5573160  26.8099140  18.6343000  74.6312940  27.0520280  18.6248410
  76.0229590  27.6373400  18.5127750  77.6785960  29.9271640  31.9487070
  78.4798690  30.2483690  32.3622470  77.1637780  29.5667220  32.6706980
  81.7829990  29.9155880  14.5827060  82.5758600  30.2044710  14.1308850
  81.2634340  29.4848050  13.9039540  86.5150590  26.0351510  31.8962480
  85.9088750  26.0583110  31.1558230  86.2104700  25.3034550  32.4329730
  87.9450960  29.7631800  30.5071890  88.8972710  29.6789820  30.4572130
  87.7979180  30.4273510  31.1805680  75.3983770  22.4145100  30.8923120
  75.9022790  21.8352380  31.4639350  74.6591190  22.6985330  31.4299490
  82.3007390  25.1359290  14.4469410  82.1958030  24.5211640  15.1730790
  82.1331610  24.6125180  13.6632420  82.4521710  23.8216090  30.4258640
  81.6867380  24.3901090  30.3413310  82.6337670  23.5292300  29.5326870
  85.5410120  24.1979320  15.0511400  84.9920220  24.6448620  15.6954140
  86.1629380  23.6928570  15.5749070  89.5945060  25.5521420  30.9833660
  90.3354530  25.8897180  30.4801120  88.8317740  25.7213480  30.4303430
  77.4306850  20.5574690  31.7873190  77.4712190  20.2588560  32.6958420
  78.2852350  20.9582300  31.6280710  81.2085240  23.1570240  16.9476700
  81.6301660  22.9910110  17.7908090  81.3336080  22.3470470  16.4531840
  79.3712660  19.1366790  29.7547680  78.8409120  18.6457740  29.1271020
  80.0400730  19.5650990  29.2205610  83.7212880  22.1807850  14.1953800
  84.2418540  21.4656870  13.8294950  84.3681280  22.8193720  14.4954310
  88.2690720  23.6036250  29.5188870  88.6831740  23.7581330  30.3679290
  87.3341720  23.7291470  29.6814650  88.7412890  20.9432410  31.5228020
  89.3233660  20.1884730  31.4348500  88.9174660  21.4739850  30.7459500
  79.8584960  16.1029160  29.8344970  79.7641830  15.4849910  29.1095840
  79.2782350  16.8295450  29.6074880  82.6246400  14.6602400  26.8672360
  82.1763700  14.6826660  26.0217910  81.9911600  14.2621420  27.4642660
  83.0305950  23.5556730  27.4884800  83.4494060  24.3989460  27.3161040
  82.1114580  23.6928770  27.2591580  85.3669850  21.2872910  28.8722640
  85.4866060  20.6914050  29.6117480  86.2263850  21.3242600  28.4523940
  87.7057750  21.8410100  27.4485150  87.1792970  22.3652720  26.8450290
  88.0489090  22.4737490  28.0794880  80.1044140  19.2303470  13.8934860
  79.9033200  18.3670830  14.2548200  79.9336190  19.1436830  12.9556460
  80.8813370  29.8609740  28.6042530  80.3434460  30.5855800  28.2851230
  81.1347330  29.3840080  27.8139870  82.1338620  17.8294260  30.1298460
  82.7238310  17.5210110  30.8176280  81.3158860  17.3574010  30.2858360
  86.9532050  17.4460070  30.3631480  86.2647570  16.7841610  30.2981470
  87.6738070  16.9998340  30.8079940  87.5832450  14.0411700  16.4221740
  87.8634740  13.1979600  16.7781160  86.8098180  14.2734810  16.9360490
  78.9026940  16.3304090  13.8812740  79.2052840  16.3371520  12.9731890
  79.6421530  15.9801950  14.3780400  83.7375580  31.0960950  28.8629180
  83.6634280  31.9996090  29.1701550  82.8354420  30.7772850  28.8351250
  82.1211870  15.2738710  14.8668940  81.7733870  14.5962700  14.2871390
  82.3224640  14.8128220  15.6812330  84.2860910  30.2619460  16.4855540
  85.1811700  30.6004430  16.5074300  84.3178540  29.5398870  15.8579820
  77.9257070  25.6346510  14.7142540  78.3631940  26.1776180  15.3700120
  78.4104800  24.8093460  14.7238880  75.1402870  28.4235540  22.1662800
  75.4705880  27.5556600  21.9341440  75.5693870  28.6294060  22.9967760
  79.7364790  26.7544550  19.8264770  79.4360330  26.6309520  20.7268680
  79.6302280  25.8953140  19.4180500  75.6293080  29.2906130  24.9044430
  75.1924070  29.4706930  25.7368580  76.1970760  30.0480750  24.7626150
  75.4617510  21.8026360  21.2633310  74.8066350  21.5338000  20.6193010
  76.2995460  21.6930840  20.8135290  89.9506900  25.5175110  27.2897900
  89.1366740  25.9472270  27.5523690  90.3581100  26.1293520  26.6766950
  88.4107950  16.5967650  15.4851800  88.8292830  16.4098630  14.6448460
  88.1044010  15.7446700  15.7954730  76.4993440  22.1878930  25.8036650
  76.8666480  22.1006330  26.6832670  75.9304260  21.4245480  25.7043510
  76.0509440  19.0988020  29.7095070  75.1565490  19.0654780  30.0488780
  76.5906990  19.2974810  30.4746320  89.7385370  15.8819740  31.5946820
  90.6155550  15.8903140  31.9780820  89.7506210  15.1450580  30.9839170
  74.6755590  19.0125290  17.2058640  73.7719670  19.2755490  17.0310300
  75.1596210  19.2836460  16.4258600  77.2182800  18.0690830  15.1153020
  77.9274500  17.6474050  14.6300300  76.5022740  18.1366060  14.4836370
  76.8656960  14.1230160  14.1555670  77.5885090  14.6639100  14.4736890
  77.1381480  13.8493580  13.2797210  76.5549150  13.3736350  24.0578290
  77.2025340  12.8233730  23.6173450  76.9750990  13.6279500  24.8794100
  90.0082950  30.2693710  20.8166170  90.6042020  29.9478280  20.1400590
  90.2661100  29.7965530  21.6079440  76.3081150  13.5292020  26.8003610
  75.9595970  13.9855840  27.5661790  75.9768850  12.6349150  26.8826040
  77.9145520  26.7011620  30.9656800  77.8715150  26.3304530  31.8471260
  78.0456530  27.6389190  31.1058620  81.6151550  28.2571210  26.5666520
  81.3742910  28.5245770  25.6797040  82.5554190  28.4276940  26.6217380
  83.8205970  14.7203900  30.3223030  83.7594860  15.3125730  31.0718440
  84.7606350  14.6129860  30.1773290  86.4580530  14.3773960  29.9615320
  87.0720940  14.6953250  29.2996400  87.0030090  13.8922550  30.5811180
  76.9801790  13.0568220  30.0754380  77.5284780  12.8756270  29.3120490
  77.0457100  12.2662330  30.6110690  77.7533550  29.6473870  28.0854580
  77.1593870  29.5158570  28.8244620  77.7457390  28.8112010  27.6196680
  87.1988570  12.9406100  26.2884610  86.3248410  13.2741210  26.0857540
  87.0899320  12.4679280  27.1136480  88.1060550  15.1476970  27.6726330
  87.7773910  14.3328730  27.2928060  89.0542850  15.1046780  27.5492020
  90.5595160  30.9189010  24.6463900  90.0998130  31.6704820  24.2721920
  89.9307620  30.1995480  24.5878700  77.3845780  27.0132250  27.0362620
  76.6579840  26.3937540  26.9688570  77.4454930  27.4072860  26.1660700
  80.9890880  29.2277250  23.8212030  81.5055900  28.6164610  23.2960290
  81.6388260  29.7306030  24.3123040  83.7286380  30.1185740  24.6481010
  84.0164190  29.8640040  23.7714020  84.2409600  29.5663100  25.2386580
  84.9463390  13.8575940  25.2277520  84.1635180  14.3321440  25.5074280
  84.6526320  12.9530770  25.1190700  89.4984460  14.5599040  23.2726610
  89.9392550  14.5044140  22.4248210  89.2292050  15.4757050  23.3436790
  75.6675780  30.3306640  20.2459380  75.4997820  29.6977320  20.9441270
  74.8010290  30.5366040  19.8953570  76.2903800  14.1623420  17.7491240
  77.0483160  14.2752300  17.1755270  75.8280970  14.9992620  17.7034670
  82.8317610  16.2762690  20.7393550  82.0192120  15.9019580  20.3989430
  83.3359250  15.5207770  21.0414740  87.3342590  12.9405140  21.9776620
  87.9371960  13.5125350  22.4525140  86.5935580  13.5044580  21.7550520
  77.2738480  29.0239870  17.6909520  76.7486100  29.4047900  16.9871480
  77.1983060  29.6490640  18.4119230  78.6628950  14.6887470  16.2893210
  79.1921710  13.9017270  16.1601160  79.2957270  15.3678660  16.5228740
  80.8566790  14.4262610  19.3438600  80.2269530  13.7249920  19.5108730
  80.3171930  15.1866740  19.1271760  83.7958740  31.0401840  32.0149210
  84.7226050  30.8046110  32.0585170  83.7809170  31.8673840  31.5335240
  80.9822350  13.7046590  31.7791090  80.7006620  14.2080190  31.0151910
  81.3642050  12.9068340  31.4133220  79.8731450  30.9722250  16.5658770
  80.6050270  30.6881530  16.0182660  80.1325120  30.7335530  17.4558150
  79.0346240  27.0886980  16.5705100  78.4055120  27.5572080  17.1190930
  79.1494070  26.2436200  17.0051290  87.5837810  13.1200170  32.3571560
  87.4703260  13.4394780  33.2523080  88.4007550  13.5212680  32.0608840
  86.4895960  21.1392640   2.7206300  86.4090010  20.2247250   2.4498010
  86.0760380  21.6359710   2.0146010  84.6214000  22.9171660   4.6015570
  83.8456100  22.4372100   4.8914140  85.2726930  22.2377310   4.4271730
  78.6379830  23.2291470   5.4791330  77.8064710  22.9740180   5.8787840
  79.2460810  23.3002240   6.2149250  88.6421430  27.3231850   3.3814700
  88.1802960  26.5519090   3.7101870  89.4546980  27.3497920   3.8867150
  78.6181090  27.2631560   5.6749350  78.9209130  26.3729300   5.4959570
  79.3624680  27.8201780   5.4471600  75.0104790  20.7899010   5.1473420
  75.5820900  20.0221210   5.1477060  75.0106330  21.0887770   4.2380030
  84.8684740  29.6089860   3.0018690  84.2496180  30.0647360   2.4313130
  85.7236520  29.7641320   2.6008390  84.0622990  25.5928850   4.6085730
  83.9931270  24.6518790   4.4474860  84.8242850  25.6830260   5.1808300
  76.2529660  16.1983370   6.9342350  76.0732500  15.3009120   7.2145110
  75.8509740  16.7455240   7.6089300  85.0928160  18.3999230   4.8354660
  85.4692980  17.5271110   4.7228330  84.9947670  18.7357930   3.9445100
  88.8752280  15.8949670   1.7683000  89.6961900  15.4046240   1.8108480
  88.9086360  16.4847330   2.5214840  76.8716330  18.6943870   5.5424690
  77.5526440  18.9582240   6.1612090  76.5564380  17.8544740   5.8762700
  81.0640900  19.7411230   4.6297280  81.5719120  20.2392200   5.2702300
  81.5954140  18.9646430   4.4536640  79.3477000  14.3809790   8.8960700
  79.3495440  14.8982180   8.0906600  78.5181310  13.9039970   8.8730630
  80.5979850  24.0204970   7.0734200  80.2649230  24.6473890   7.7155270
  80.7746530  24.5466850   6.2935870  89.1113760  17.8350050   4.5410540
  88.4069330  18.1234940   5.1213650  89.4725920  18.6450160   4.1810100
  79.0292330  16.0919750   6.9031150  79.3709140  16.9361800   6.6085020
  78.0908140  16.2403490   7.0196490  79.8098950  25.9885770   8.8883380
  80.4272950  26.6636850   8.6067830  78.9492070  26.3973750   8.7970880
  82.7120220  13.5802020   3.2275740  83.0195200  13.0248910   2.5111240
  81.7820920  13.7146480   3.0448730  88.2635280  29.2969310   5.5183200
  88.2762440  28.8931600   4.6505460  87.7110500  30.0716600   5.4144630
  87.6620720  24.1999150   6.8465810  88.0789510  23.9859260   6.0119270
  88.3860540  24.4571940   7.4174430  88.5724830  19.3855690   7.8836920
  88.1596010  20.2109400   8.1376910  87.8400780  18.8000730   7.6913280
  80.7057620  22.1715590   2.7455590  80.3014620  21.4592840   2.2501490
  80.7920740  21.8268830   3.6343630  81.1739320  25.8583150   4.9094800
  80.8767610  25.2528620   4.2302580  82.1239140  25.8960460   4.7984160
  79.4186240  18.9458800   6.5254630  79.9700830  19.0554140   5.7507880
  79.9329750  19.3196400   7.2409860  89.2624930  29.4315020   8.5717900
  88.7855490  30.2387210   8.3790510  88.5786720  28.7793350   8.7244110
  80.2657750  25.5964840  11.5602600  79.3686280  25.8204810  11.8076000
  80.2910620  25.7199780  10.6114000  79.0928970  22.4678160  10.1359970
  78.9536740  23.3400960  10.5047370  78.2110330  22.1250970   9.9907910
  80.8909320  28.4099860  12.3445120  80.8624750  28.8142810  11.4773550
  80.7274290  27.4810220  12.1816720  75.0447620  24.2375710   6.0530880
  75.1228040  24.3724480   5.1086600  75.6589300  23.5291600   6.2459000
  76.2895250  25.9375900   2.4637060  75.8823330  26.0790490   1.6090660
  77.1808260  25.6536060   2.2608270  86.1074130  30.0867810   9.3704110
  86.6218800  29.9975820  10.1726540  85.2643210  30.4327510   9.6632020
  75.1007140  25.2789880   8.5925340  75.2638180  24.8095240   7.7744710
  75.5659590  24.7713440   9.2574180  79.8725910  14.4095640   3.6285910
  79.4294060  15.1905180   3.2970430  80.4310900  14.7325530   4.3356850
  84.1595720  17.2764160   9.2321230  83.6975090  17.4847180  10.0441170
  83.7573830  16.4623510   8.9291900  89.1600230  18.4973110  10.3617890
  88.3093820  18.1978860  10.6826960  89.0002020  18.7415120   9.4501710
  86.2549940  19.9974860  12.4616680  86.5803350  19.1638610  12.1218910
  87.0430270  20.5203380  12.6095010  81.9101810  14.9542970   5.4875510
  82.2074140  15.8605800   5.4067530  82.4587370  14.4661750   4.8735080
  82.1039340  20.4314790  12.0227430  82.0082940  19.4909520  11.8727830
  82.9471320  20.6529860  11.6275500  77.2349880  16.8428460  10.1761210
  76.8413270  17.6903670  10.3833990  76.5468280  16.2054830  10.3669850
  83.8094930  16.9263430  13.2457950  83.1193250  16.7335630  13.8804040
  84.5527230  17.2098070  13.7782250  74.5366930  14.7656920   4.2091290
  74.2479980  15.3359780   4.9216270  75.2812690  14.2861370   4.5722520
  86.0857900  20.7661870   6.0811870  85.3539020  21.2748680   6.4301970
  85.6882240  19.9491850   5.7800650  82.5235290  17.4416070   4.4864360
  82.5271350  17.0006020   3.6368900  83.4186410  17.7633400   4.5936180
  78.3737670  17.3242560   3.4458570  78.0337720  17.8017790   4.2025620
  77.6114990  16.8707680   3.0859670  86.5483810  16.2195550   5.4934810
  86.5656550  16.6704200   6.3376660  86.2999390  15.3201190   5.7068250
  89.9754560  13.6327730  11.3321190  90.3000330  12.9017390  11.8579170
  90.0111070  13.3141370  10.4302180  76.6746120  24.6541310  10.7521150
  76.2900910  24.0134980  11.3504110  76.9858310  25.3577430  11.3215880
  82.8243260  21.5017850   6.2329770  83.1913390  21.0276420   6.9791110
  82.6348320  22.3759420   6.5738110  75.6883750  16.2461540   2.3623240
  75.4030670  15.8817210   3.2001860  75.6262610  15.5142000   1.7486380
  80.6142630  20.5426490   8.5513980  80.3099700  21.4218470   8.7764340
  81.5689090  20.6026280   8.5871420  89.9012400  23.7452840   4.9407220
  90.6211520  24.2408130   4.5503330  89.6994220  23.0670730   4.2961090
  85.2831200  23.8161900  10.8276220  85.2168510  22.8957570  10.5733810
  84.6536340  23.9137340  11.5420860  79.1861820  24.4167860   2.7859640
  79.7040490  23.6136120   2.7316530  78.7345840  24.3547000   3.6276470
  76.6706360  21.3829230   9.6985340  76.3121300  22.0483080  10.2858680
  76.3760920  20.5512780  10.0697960  79.8719480  21.8413470  12.5824890
  79.5719620  21.9870650  11.6852710  80.6430720  21.2818760  12.4898280
  85.2147930  26.6382470  10.5780020  85.2292470  25.7063430  10.3598930
  84.5073030  26.7242230  11.2169790  86.9558730  25.0049980   3.4232450
  87.3082550  24.4078110   2.7633820  86.0721060  24.6794210   3.5940700
  84.6481830  28.2800040   7.6720520  85.2924050  28.4859420   8.3493940
  85.0111270  27.5188440   7.2191370  85.9213910  26.2832390   6.3897970
  86.5636140  25.5825550   6.5030140  86.4463260  27.0630830   6.2094860
  87.6951530  27.0827290   9.5934030  88.0307770  27.6693980  10.2711950
  86.7751870  26.9520000   9.8231820  75.2454930  14.8722470  10.3757440
  74.5313450  15.0719390  10.9810050  75.6649970  14.0962040  10.7472240
  75.5327520  28.8602730  11.3623970  75.6418640  27.9197470  11.2219360
  74.8808080  29.1257480  10.7137700  83.5240110  27.1318620  12.7622090
  83.2036980  26.4127860  13.3067780  82.8498470  27.8073690  12.8358150
  86.7393710  17.3644780   8.1258890  87.1074530  16.5439990   8.4538460
  85.8791910  17.4246670   8.5414540  83.6995700  20.0184370   8.3496860
  84.1980950  20.4930190   9.0148710  83.8418650  19.0947890   8.5566890
  89.1984570  21.4785510   2.6386610  88.2574710  21.4935740   2.8134300
  89.5128640  20.6921470   3.0846910  78.6727680  30.7425570   3.9858000
  79.4090160  30.1941030   4.2566570  79.0568600  31.6081580   3.8463990
  77.6785960  29.9271640  13.1743580  78.4798690  30.2483690  13.5878980
  77.1637780  29.5667220  13.8963490  86.5150590  26.0351510  13.1218990
  85.9088750  26.0583110  12.3814740  86.2104700  25.3034550  13.6586240
  87.9450960  29.7631800  11.7328400  88.8972710  29.6789820  11.6828640
  87.7979180  30.4273510  12.4062190  75.3983770  22.4145100  12.1179630
  75.9022790  21.8352380  12.6895860  74.6591190  22.6985330  12.6556000
  82.4521710  23.8216090  11.6515150  81.6867380  24.3901090  11.5669820
  82.6337670  23.5292300  10.7583380  89.5945060  25.5521420  12.2090170
  90.3354530  25.8897180  11.7057630  88.8317740  25.7213480  11.6559940
  77.4306850  20.5574690  13.0129700  77.4712190  20.2588560  13.9214930
  78.2852350  20.9582300  12.8537220  79.3712660  19.1366790  10.9804190
  78.8409120  18.6457740  10.3527530  80.0400730  19.5650990  10.4462120
  88.2690720  23.6036250  10.7445380  88.6831740  23.7581330  11.5935800
  87.3341720  23.7291470  10.9071160  88.7412890  20.9432410  12.7484530
  89.3233660  20.1884730  12.6605010  88.9174660  21.4739850  11.9716010
  79.8584960  16.1029160  11.0601480  79.7641830  15.4849910  10.3352350
  79.2782350  16.8295450  10.8331390  82.6246400  14.6602400   8.0928870
  82.1763700  14.6826660   7.2474420  81.9911600  14.2621420   8.6899170
  83.0305950  23.5556730   8.7141310  83.4494060  24.3989460   8.5417550
  82.1114580  23.6928770   8.4848090  85.3669850  21.2872910  10.0979150
  85.4866060  20.6914050  10.8373990  86.2263850  21.3242600   9.6780450
  87.7057750  21.8410100   8.6741660  87.1792970  22.3652720   8.0706800
  88.0489090  22.4737490   9.3051390  80.8813370  29.8609740   9.8299040
  80.3434460  30.5855800   9.5107740  81.1347330  29.3840080   9.0396380
  82.1338620  17.8294260  11.3554970  82.7238310  17.5210110  12.0432790
  81.3158860  17.3574010  11.5114870  86.9532050  17.4460070  11.5887990
  86.2647570  16.7841610  11.5237980  87.6738070  16.9998340  12.0336450
  83.7375580  31.0960950  10.0885690  83.6634280  31.9996090  10.3958060
  82.8354420  30.7772850  10.0607760  75.1402870  28.4235540   3.3919310
  75.4705880  27.5556600   3.1597950  75.5693870  28.6294060   4.2224270
  75.6293080  29.2906130   6.1300940  75.1924070  29.4706930   6.9625090
  76.1970760  30.0480750   5.9882660  75.4617510  21.8026360   2.4889820
  74.8066350  21.5338000   1.8449520  76.2995460  21.6930840   2.0391800
  89.9506900  25.5175110   8.5154410  89.1366740  25.9472270   8.7780200
  90.3581100  26.1293520   7.9023460  76.4993440  22.1878930   7.0293160
  76.8666480  22.1006330   7.9089180  75.9304260  21.4245480   6.9300020
  76.0509440  19.0988020  10.9351580  75.1565490  19.0654780  11.2745290
  76.5906990  19.2974810  11.7002830  89.7385370  15.8819740  12.8203330
  90.6155550  15.8903140  13.2037330  89.7506210  15.1450580  12.2095680
  76.5549150  13.3736350   5.2834800  77.2025340  12.8233730   4.8429960
  76.9750990  13.6279500   6.1050610  76.3081150  13.5292020   8.0260120
  75.9595970  13.9855840   8.7918300  75.9768850  12.6349150   8.1082550
  77.9145520  26.7011620  12.1913310  77.8715150  26.3304530  13.0727770
  78.0456530  27.6389190  12.3315130  81.6151550  28.2571210   7.7923030
  81.3742910  28.5245770   6.9053550  82.5554190  28.4276940   7.8473890
  83.8205970  14.7203900  11.5479540  83.7594860  15.3125730  12.2974950
  84.7606350  14.6129860  11.4029800  86.4580530  14.3773960  11.1871830
  87.0720940  14.6953250  10.5252910  87.0030090  13.8922550  11.8067690
  76.9801790  13.0568220  11.3010890  77.5284780  12.8756270  10.5377000
  77.0457100  12.2662330  11.8367200  77.7533550  29.6473870   9.3111090
  77.1593870  29.5158570  10.0501130  77.7457390  28.8112010   8.8453190
  87.1988570  12.9406100   7.5141120  86.3248410  13.2741210   7.3114050
  87.0899320  12.4679280   8.3392990  88.1060550  15.1476970   8.8982840
  87.7773910  14.3328730   8.5184570  89.0542850  15.1046780   8.7748530
  90.5595160  30.9189010   5.8720410  90.0998130  31.6704820   5.4978430
  89.9307620  30.1995480   5.8135210  77.3845780  27.0132250   8.2619130
  76.6579840  26.3937540   8.1945080  77.4454930  27.4072860   7.3917210
  80.9890880  29.2277250   5.0468540  81.5055900  28.6164610   4.5216800
  81.6388260  29.7306030   5.5379550  83.7286380  30.1185740   5.8737520
  84.0164190  29.8640040   4.9970530  84.2409600  29.5663100   6.4643090
  84.9463390  13.8575940   6.4534030  84.1635180  14.3321440   6.7330790
  84.6526320  12.9530770   6.3447210  89.4984460  14.5599040   4.4983120
  89.9392550  14.5044140   3.6504720  89.2292050  15.4757050   4.5693300
  82.8317610  16.2762690   1.9650060  82.0192120  15.9019580   1.6245940
  83.3359250  15.5207770   2.2671250  87.3342590  12.9405140   3.2033130
  87.9371960  13.5125350   3.6781650  86.5935580  13.5044580   2.9807030
  83.7958740  31.0401840  13.2405720  84.7226050  30.8046110  13.2841680
  83.7809170  31.8673840  12.7591750  80.9822350  13.7046590  13.0047600
  80.7006620  14.2080190  12.2408420  81.3642050  12.9068340  12.6389730
  87.5837810  13.1200170  13.5828070  87.4703260  13.4394780  14.4779590
  88.4007550  13.5212680  13.2865350  84.6214000   4.1428170  60.9246040
  83.8456100   3.6628610  61.2144610  85.2726930   3.4633820  60.7502200
  78.6379830   4.4547980  61.8021800  77.8064710   4.1996690  62.2018310
  79.2460810   4.5258750  62.5379720  88.6421430   8.5488360  59.7045170
  88.1802960   7.7775600  60.0332340  89.4546980   8.5754430  60.2097620
  78.6181090   8.4888070  61.9979820  78.9209130   7.5985810  61.8190040
  79.3624680   9.0458290  61.7702070  84.8684740  10.8346370  59.3249160
  84.2496180  11.2903870  58.7543600  85.7236520  10.9897830  58.9238860
  84.0622990   6.8185360  60.9316200  83.9931270   5.8775300  60.7705330
  84.8242850   6.9086770  61.5038770  85.7348090   5.7185610  56.7181070
  85.1165360   6.1835060  56.1543790  86.2471340   6.4113090  57.1350580
  75.1031290   6.4042140  54.0920700  74.7259270   6.8929240  53.3605600
  75.3604360   7.0767420  54.7227230  88.2635280  10.5225820  61.8413670
  88.2762440  10.1188110  60.9735930  87.7110500  11.2973110  61.7375100
  89.5580700   7.2442040  56.9303840  89.4477030   6.3016370  57.0553260
  89.5548950   7.6057680  57.8166600  85.1000980   2.8707360  56.2866330
  84.1730260   2.8044740  56.5154800  85.2525800   3.8087490  56.1721570
  89.1298270   4.4327660  56.7901580  88.5110690   4.0947210  56.1427880
  89.1122720   3.7887420  57.4980770  80.7057620   3.3972100  59.0686060
  80.3014620   2.6849350  58.5731960  80.7920740   3.0525340  59.9574100
  81.1739320   7.0839660  61.2325270  80.8767610   6.4785130  60.5533050
  82.1239140   7.1216970  61.1214630  87.3062970   3.6714470  53.7974330
  87.7456250   2.8336900  53.6512150  88.0191390   4.3043870  53.8838470
  85.4158350   8.6110540  57.7655570  85.8554260   9.3534870  57.3510960
  85.3545240   8.8537110  58.6894530  77.4062250   2.2917080  56.5692710
  77.2859850   3.0179170  55.9573980  77.0963140   1.5219990  56.0920620
  75.0447620   5.4632220  62.3761350  75.1228040   5.5980990  61.4317070
  75.6589300   4.7548110  62.5689470  76.2895250   7.1632410  58.7867530
  75.8823330   7.3047000  57.9321130  77.1808260   6.8792570  58.5838740
  88.0828530  11.5979660  55.1218580  87.9229670  11.3082600  56.0200410
  87.9175240  10.8219790  54.5863810  80.5616910  11.3778190  56.8990200
  80.3859390  10.4613730  56.6858000  79.7072650  11.7365480  57.1388000
  87.7854660   9.1067220  53.6816580  87.0919820   9.1044510  53.0218860
  88.5277520   8.6826540  53.2510750  87.3504590  10.7329930  57.7565070
  87.8061540   9.9519310  58.0703690  87.6897110  11.4436750  58.3006250
  81.5976940   1.9785800  53.1984890  81.0293840   1.5304050  52.5720800
  82.3065940   2.3378580  52.6650040  82.8243260   2.7274360  62.5560240
  83.1913390   2.2532930  63.3021580  82.6348320   3.6015930  62.8968580
  79.1424420   5.9743990  55.4711300  78.3686680   5.4341610  55.3110020
  79.8719050   5.4550600  55.1329060  89.9012400   4.9709350  61.2637690
  90.6211520   5.4664640  60.8733800  89.6994220   4.2927240  60.6191560
  79.1861820   5.6424370  59.1090110  79.7040490   4.8392630  59.0547000
  78.7345840   5.5803510  59.9506940  84.0731320   6.9090650  54.3817410
  84.4147020   7.6532880  53.8860730  83.2444030   7.2221770  54.7442240
  86.9558730   6.2306490  59.7462920  87.3082550   5.6334620  59.0864290
  86.0721060   5.9050720  59.9171170  83.0422010   6.9904180  57.1533330
  83.7293140   7.5373390  57.5340920  82.2554430   7.5344910  57.1882940
  75.1814410   2.6077000  52.6450410  76.0509260   2.8901800  52.9286330
  74.6904730   3.4212870  52.5299220  82.3449220   3.9950210  56.7658690
  82.8012000   4.8055460  56.9918880  81.9937430   3.6773350  57.5977180
  85.9213910   7.5088900  62.7128440  86.5636140   6.8082060  62.8260610
  86.4463260   8.2887340  62.5325330  89.7669630   7.7937520  52.4367580
  89.5407210   7.0767960  53.0292220  89.3765830   7.5449960  51.5989330
  75.5485660  11.8204380  53.2112040  75.9083300  12.4193720  52.5569310
  75.4078000  12.3664270  53.9847070  89.3485880   5.7109460  54.0981740
  89.0607580   6.1722150  54.8859620  90.1438050   5.2507230  54.3665960
  81.5654280   9.2035580  54.0285710  81.5564380   9.9365270  53.4130220
  80.6452640   8.9567160  54.1212670  77.1660920   4.4250470  54.7732470
  76.5588870   5.1649370  54.7827770  77.6410270   4.5149830  53.9470670
  84.5513880   9.2663820  52.6910900  84.6525860   9.0627810  51.7612880
  83.6515620   9.0122100  52.8958680  83.1931990  11.7850140  57.3858570
  83.4473490  11.7471530  56.4637940  82.2444470  11.6583470  57.3786820
  89.1984570   2.7042020  58.9617080  88.2574710   2.7192250  59.1364770
  89.5128640   1.9177980  59.4077380  79.1766210   4.3861620  52.5221040
  79.9429480   4.2742980  53.0846470  79.2540900   3.6899590  51.8697810
  78.6727680  11.9682080  60.3088470  79.4090160  11.4197540  60.5797040
  79.0568600  12.8338090  60.1694460  75.5573160   8.0355650  56.1829980
  74.6312940   8.2776790  56.1735390  76.0229590   8.8629910  56.0614730
  81.7829990  11.1412390  52.1314040  82.5758600  11.4301220  51.6795830
  81.2634340  10.7104560  51.4526520  82.3007390   6.3615800  51.9956390
  82.1958030   5.7468150  52.7217770  82.1331610   5.8381690  51.2119400
  85.5410120   5.4235830  52.5998380  84.9920220   5.8705130  53.2441120
  86.1629380   4.9185080  53.1236050  81.2085240   4.3826750  54.4963680
  81.6301660   4.2166620  55.3395070  81.3336080   3.5726980  54.0018820
  83.7212880   3.4064360  51.7440780  84.2418540   2.6913380  51.3781930
  84.3681280   4.0450230  52.0441290  84.2860910  11.4875970  54.0342520
  85.1811700  11.8260940  54.0561280  84.3178540  10.7655380  53.4066800
  77.9257070   6.8603020  52.2629520  78.3631940   7.4032690  52.9187100
  78.4104800   6.0349970  52.2725860  75.1402870   9.6492050  59.7149780
  75.4705880   8.7813110  59.4828420  75.5693870   9.8550570  60.5454740
  79.7364790   7.9801060  57.3751750  79.4360330   7.8566030  58.2755660
  79.6302280   7.1209650  56.9667480  75.6293080  10.5162640  62.4531410
  75.1924070  10.6963440  63.2855560  76.1970760  11.2737260  62.3113130
  75.4617510   3.0282870  58.8120290  74.8066350   2.7594510  58.1679990
  76.2995460   2.9187350  58.3622270  90.0082950  11.4950220  58.3653150
  90.6042020  11.1734790  57.6887570  90.2661100  11.0222040  59.1566420
  90.5595160  12.1445520  62.1950880  90.0998130  12.8961330  61.8208900
  89.9307620  11.4251990  62.1365680  80.9890880  10.4533760  61.3699010
  81.5055900   9.8421120  60.8447270  81.6388260  10.9562540  61.8610020
  83.7286380  11.3442250  62.1967990  84.0164190  11.0896550  61.3201000
  84.2409600  10.7919610  62.7873560  75.6675780  11.5563150  57.7946360
  75.4997820  10.9233830  58.4928250  74.8010290  11.7622550  57.4440550
  77.2738480  10.2496380  55.2396500  76.7486100  10.6304410  54.5358460
  77.1983060  10.8747150  55.9606210  79.8731450  12.1978760  54.1145750
  80.6050270  11.9138040  53.5669640  80.1325120  11.9592040  55.0045130
  79.0346240   8.3143490  54.1192080  78.4055120   8.7828590  54.6677910
  79.1494070   7.4692710  54.5538270  84.6214000   4.1428170  42.1502550
  83.8456100   3.6628610  42.4401120  85.2726930   3.4633820  41.9758710
  78.6379830   4.4547980  43.0278310  77.8064710   4.1996690  43.4274820
  79.2460810   4.5258750  43.7636230  88.6421430   8.5488360  40.9301680
  88.1802960   7.7775600  41.2588850  89.4546980   8.5754430  41.4354130
  78.6181090   8.4888070  43.2236330  78.9209130   7.5985810  43.0446550
  79.3624680   9.0458290  42.9958580  84.8684740  10.8346370  40.5505670
  84.2496180  11.2903870  39.9800110  85.7236520  10.9897830  40.1495370
  84.0622990   6.8185360  42.1572710  83.9931270   5.8775300  41.9961840
  84.8242850   6.9086770  42.7295280  85.7348090   5.7185610  37.9437580
  85.1165360   6.1835060  37.3800300  86.2471340   6.4113090  38.3607090
  80.5979850   5.2461480  44.6221180  80.2649230   5.8730400  45.2642250
  80.7746530   5.7723360  43.8422850  79.8098950   7.2142280  46.4370360
  80.4272950   7.8893360  46.1554810  78.9492070   7.6230260  46.3457860
  75.1031290   6.4042140  35.3177210  74.7259270   6.8929240  34.5862110
  75.3604360   7.0767420  35.9483740  88.2635280  10.5225820  43.0670180
  88.2762440  10.1188110  42.1992440  87.7110500  11.2973110  42.9631610
  89.5580700   7.2442040  38.1560350  89.4477030   6.3016370  38.2809770
  89.5548950   7.6057680  39.0423110  87.6620720   5.4255660  44.3952790
  88.0789510   5.2115770  43.5606250  88.3860540   5.6828450  44.9661410
  85.1000980   2.8707360  37.5122840  84.1730260   2.8044740  37.7411310
  85.2525800   3.8087490  37.3978080  89.1298270   4.4327660  38.0158090
  88.5110690   4.0947210  37.3684390  89.1122720   3.7887420  38.7237280
  80.7057620   3.3972100  40.2942570  80.3014620   2.6849350  39.7988470
  80.7920740   3.0525340  41.1830610  81.1739320   7.0839660  42.4581780
  80.8767610   6.4785130  41.7789560  82.1239140   7.1216970  42.3471140
  89.2624930  10.6571530  46.1204880  88.7855490  11.4643720  45.9277490
  88.5786720  10.0049860  46.2731090  80.2657750   6.8221350  49.1089580
  79.3686280   7.0461320  49.3562980  80.2910620   6.9456290  48.1600980
  87.3062970   3.6714470  35.0230840  87.7456250   2.8336900  34.8768660
  88.0191390   4.3043870  35.1094980  79.0928970   3.6934670  47.6846950
  78.9536740   4.5657470  48.0534350  78.2110330   3.3507480  47.5394890
  85.4158350   8.6110540  38.9912080  85.8554260   9.3534870  38.5767470
  85.3545240   8.8537110  39.9151040  80.8909320   9.6356370  49.8932100
  80.8624750  10.0399320  49.0260530  80.7274290   8.7066730  49.7303700
  77.4062250   2.2917080  37.7949220  77.2859850   3.0179170  37.1830490
  77.0963140   1.5219990  37.3177130  75.0447620   5.4632220  43.6017860
  75.1228040   5.5980990  42.6573580  75.6589300   4.7548110  43.7945980
  76.2895250   7.1632410  40.0124040  75.8823330   7.3047000  39.1577640
  77.1808260   6.8792570  39.8095250  86.1074130  11.3124320  46.9191090
  86.6218800  11.2232330  47.7213520  85.2643210  11.6584020  47.2119000
  88.0828530  11.5979660  36.3475090  87.9229670  11.3082600  37.2456920
  87.9175240  10.8219790  35.8120320  80.5616910  11.3778190  38.1246710
  80.3859390  10.4613730  37.9114510  79.7072650  11.7365480  38.3644510
  87.7854660   9.1067220  34.9073090  87.0919820   9.1044510  34.2475370
  88.5277520   8.6826540  34.4767260  87.3504590  10.7329930  38.9821580
  87.8061540   9.9519310  39.2960200  87.6897110  11.4436750  39.5262760
  75.1007140   6.5046390  46.1412320  75.2638180   6.0351750  45.3231690
  75.5659590   5.9969950  46.8061160  81.5976940   1.9785800  34.4241400
  81.0293840   1.5304050  33.7977310  82.3065940   2.3378580  33.8906550
  76.6746120   5.8797820  48.3008130  76.2900910   5.2391490  48.8991090
  76.9858310   6.5833940  48.8702860  82.8243260   2.7274360  43.7816750
  83.1913390   2.2532930  44.5278090  82.6348320   3.6015930  44.1225090
  80.6142630   1.7683000  46.1000960  80.3099700   2.6474980  46.3251320
  81.5689090   1.8282790  46.1358400  79.1424420   5.9743990  36.6967810
  78.3686680   5.4341610  36.5366530  79.8719050   5.4550600  36.3585570
  89.9012400   4.9709350  42.4894200  90.6211520   5.4664640  42.0990310
  89.6994220   4.2927240  41.8448070  85.2831200   5.0418410  48.3763200
  85.2168510   4.1214080  48.1220790  84.6536340   5.1393850  49.0907840
  79.1861820   5.6424370  40.3346620  79.7040490   4.8392630  40.2803510
  78.7345840   5.5803510  41.1763450  84.0731320   6.9090650  35.6073920
  84.4147020   7.6532880  35.1117240  83.2444030   7.2221770  35.9698750
  76.6706360   2.6085740  47.2472320  76.3121300   3.2739590  47.8345660
  76.3760920   1.7769290  47.6184940  79.8719480   3.0669980  50.1311870
  79.5719620   3.2127160  49.2339690  80.6430720   2.5075270  50.0385260
  85.2147930   7.8638980  48.1267000  85.2292470   6.9319940  47.9085910
  84.5073030   7.9498740  48.7656770  86.9558730   6.2306490  40.9719430
  87.3082550   5.6334620  40.3120800  86.0721060   5.9050720  41.1427680
  83.0422010   6.9904180  38.3789840  83.7293140   7.5373390  38.7597430
  82.2554430   7.5344910  38.4139450  75.1814410   2.6077000  33.8706920
  76.0509260   2.8901800  34.1542840  74.6904730   3.4212870  33.7555730
  82.3449220   3.9950210  37.9915200  82.8012000   4.8055460  38.2175390
  81.9937430   3.6773350  38.8233690  84.6481830   9.5056550  45.2207500
  85.2924050   9.7115930  45.8980920  85.0111270   8.7444950  44.7678350
  85.9213910   7.5088900  43.9384950  86.5636140   6.8082060  44.0517120
  86.4463260   8.2887340  43.7581840  89.7669630   7.7937520  33.6624090
  89.5407210   7.0767960  34.2548730  89.3765830   7.5449960  32.8245840
  87.6951530   8.3083800  47.1421010  88.0307770   8.8950490  47.8198930
  86.7751870   8.1776510  47.3718800  75.5485660  11.8204380  34.4368550
  75.9083300  12.4193720  33.7825820  75.4078000  12.3664270  35.2103580
  89.3485880   5.7109460  35.3238250  89.0607580   6.1722150  36.1116130
  90.1438050   5.2507230  35.5922470  75.5327520  10.0859240  48.9110950
  75.6418640   9.1453980  48.7706340  74.8808080  10.3513990  48.2624680
  83.5240110   8.3575130  50.3109070  83.2036980   7.6384370  50.8554760
  82.8498470   9.0330200  50.3845130  81.5654280   9.2035580  35.2542220
  81.5564380   9.9365270  34.6386730  80.6452640   8.9567160  35.3469180
  77.1660920   4.4250470  35.9988980  76.5588870   5.1649370  36.0084280
  77.6410270   4.5149830  35.1727180  84.5513880   9.2663820  33.9167410
  84.6525860   9.0627810  32.9869390  83.6515620   9.0122100  34.1215190
  83.1931990  11.7850140  38.6115080  83.4473490  11.7471530  37.6894450
  82.2444470  11.6583470  38.6043330  89.1984570   2.7042020  40.1873590
  88.2574710   2.7192250  40.3621280  89.5128640   1.9177980  40.6333890
  79.1766210   4.3861620  33.7477550  79.9429480   4.2742980  34.3102980
  79.2540900   3.6899590  33.0954320  78.6727680  11.9682080  41.5344980
  79.4090160  11.4197540  41.8053550  79.0568600  12.8338090  41.3950970
  75.5573160   8.0355650  37.4086490  74.6312940   8.2776790  37.3991900
  76.0229590   8.8629910  37.2871240  77.6785960  11.1528150  50.7230560
  78.4798690  11.4740200  51.1365960  77.1637780  10.7923730  51.4450470
  81.7829990  11.1412390  33.3570550  82.5758600  11.4301220  32.9052340
  81.2634340  10.7104560  32.6783030  86.5150590   7.2608020  50.6705970
  85.9088750   7.2839620  49.9301720  86.2104700   6.5291060  51.2073220
  87.9450960  10.9888310  49.2815380  88.8972710  10.9046330  49.2315620
  87.7979180  11.6530020  49.9549170  75.3983770   3.6401610  49.6666610
  75.9022790   3.0608890  50.2382840  74.6591190   3.9241840  50.2042980
  82.3007390   6.3615800  33.2212900  82.1958030   5.7468150  33.9474280
  82.1331610   5.8381690  32.4375910  82.4521710   5.0472600  49.2002130
  81.6867380   5.6157600  49.1156800  82.6337670   4.7548810  48.3070360
  85.5410120   5.4235830  33.8254890  84.9920220   5.8705130  34.4697630
  86.1629380   4.9185080  34.3492560  89.5945060   6.7777930  49.7577150
  90.3354530   7.1153690  49.2544610  88.8317740   6.9469990  49.2046920
  77.4306850   1.7831200  50.5616680  77.4712190   1.4845070  51.4701910
  78.2852350   2.1838810  50.4024200  81.2085240   4.3826750  35.7220190
  81.6301660   4.2166620  36.5651580  81.3336080   3.5726980  35.2275330
  83.7212880   3.4064360  32.9697290  84.2418540   2.6913380  32.6038440
  84.3681280   4.0450230  33.2697800  88.2690720   4.8292760  48.2932360
  88.6831740   4.9837840  49.1422780  87.3341720   4.9547980  48.4558140
  83.0305950   4.7813240  46.2628290  83.4494060   5.6245970  46.0904530
  82.1114580   4.9185280  46.0335070  85.3669850   2.5129420  47.6466130
  85.4866060   1.9170560  48.3860970  86.2263850   2.5499110  47.2267430
  87.7057750   3.0666610  46.2228640  87.1792970   3.5909230  45.6193780
  88.0489090   3.6994000  46.8538370  80.8813370  11.0866250  47.3786020
  80.3434460  11.8112310  47.0594720  81.1347330  10.6096590  46.5883360
  83.7375580  12.3217460  47.6372670  83.6634280  13.2252600  47.9445040
  82.8354420  12.0029360  47.6094740  84.2860910  11.4875970  35.2599030
  85.1811700  11.8260940  35.2817790  84.3178540  10.7655380  34.6323310
  77.9257070   6.8603020  33.4886030  78.3631940   7.4032690  34.1443610
  78.4104800   6.0349970  33.4982370  75.1402870   9.6492050  40.9406290
  75.4705880   8.7813110  40.7084930  75.5693870   9.8550570  41.7711250
  79.7364790   7.9801060  38.6008260  79.4360330   7.8566030  39.5012170
  79.6302280   7.1209650  38.1923990  75.6293080  10.5162640  43.6787920
  75.1924070  10.6963440  44.5112070  76.1970760  11.2737260  43.5369640
  75.4617510   3.0282870  40.0376800  74.8066350   2.7594510  39.3936500
  76.2995460   2.9187350  39.5878780  89.9506900   6.7431620  46.0641390
  89.1366740   7.1728780  46.3267180  90.3581100   7.3550030  45.4510440
  76.4993440   3.4135440  44.5780140  76.8666480   3.3262840  45.4576160
  75.9304260   2.6501990  44.4787000  90.0082950  11.4950220  39.5909660
  90.6042020  11.1734790  38.9144080  90.2661100  11.0222040  40.3822930
  77.9145520   7.9268130  49.7400290  77.8715150   7.5561040  50.6214750
  78.0456530   8.8645700  49.8802110  81.6151550   9.4827720  45.3410010
  81.3742910   9.7502280  44.4540530  82.5554190   9.6533450  45.3960870
  77.7533550  10.8730380  46.8598070  77.1593870  10.7415080  47.5988110
  77.7457390  10.0368520  46.3940170  90.5595160  12.1445520  43.4207390
  90.0998130  12.8961330  43.0465410  89.9307620  11.4251990  43.3622190
  77.3845780   8.2388760  45.8106110  76.6579840   7.6194050  45.7432060
  77.4454930   8.6329370  44.9404190  80.9890880  10.4533760  42.5955520
  81.5055900   9.8421120  42.0703780  81.6388260  10.9562540  43.0866530
  83.7286380  11.3442250  43.4224500  84.0164190  11.0896550  42.5457510
  84.2409600  10.7919610  44.0130070  75.6675780  11.5563150  39.0202870
  75.4997820  10.9233830  39.7184760  74.8010290  11.7622550  38.6697060
  77.2738480  10.2496380  36.4653010  76.7486100  10.6304410  35.7614970
  77.1983060  10.8747150  37.1862720  83.7958740  12.2658350  50.7892700
  84.7226050  12.0302620  50.8328660  83.7809170  13.0930350  50.3078730
  79.8731450  12.1978760  35.3402260  80.6050270  11.9138040  34.7926150
  80.1325120  11.9592040  36.2301640  79.0346240   8.3143490  35.3448590
  78.4055120   8.7828590  35.8934420  79.1494070   7.4692710  35.7794780
  84.6214000   4.1428170  23.3759060  83.8456100   3.6628610  23.6657630
  85.2726930   3.4633820  23.2015220  78.6379830   4.4547980  24.2534820
  77.8064710   4.1996690  24.6531330  79.2460810   4.5258750  24.9892740
  88.6421430   8.5488360  22.1558190  88.1802960   7.7775600  22.4845360
  89.4546980   8.5754430  22.6610640  78.6181090   8.4888070  24.4492840
  78.9209130   7.5985810  24.2703060  79.3624680   9.0458290  24.2215090
  84.8684740  10.8346370  21.7762180  84.2496180  11.2903870  21.2056620
  85.7236520  10.9897830  21.3751880  84.0622990   6.8185360  23.3829220
  83.9931270   5.8775300  23.2218350  84.8242850   6.9086770  23.9551790
  85.7348090   5.7185610  19.1694090  85.1165360   6.1835060  18.6056810
  86.2471340   6.4113090  19.5863600  80.5979850   5.2461480  25.8477690
  80.2649230   5.8730400  26.4898760  80.7746530   5.7723360  25.0679360
  79.8098950   7.2142280  27.6626870  80.4272950   7.8893360  27.3811320
  78.9492070   7.6230260  27.5714370  75.1031290   6.4042140  16.5433720
  74.7259270   6.8929240  15.8118620  75.3604360   7.0767420  17.1740250
  88.2635280  10.5225820  24.2926690  88.2762440  10.1188110  23.4248950
  87.7110500  11.2973110  24.1888120  89.5580700   7.2442040  19.3816860
  89.4477030   6.3016370  19.5066280  89.5548950   7.6057680  20.2679620
  87.6620720   5.4255660  25.6209300  88.0789510   5.2115770  24.7862760
  88.3860540   5.6828450  26.1917920  85.1000980   2.8707360  18.7379350
  84.1730260   2.8044740  18.9667820  85.2525800   3.8087490  18.6234590
  89.1298270   4.4327660  19.2414600  88.5110690   4.0947210  18.5940900
  89.1122720   3.7887420  19.9493790  80.7057620   3.3972100  21.5199080
  80.3014620   2.6849350  21.0244980  80.7920740   3.0525340  22.4087120
  81.1739320   7.0839660  23.6838290  80.8767610   6.4785130  23.0046070
  82.1239140   7.1216970  23.5727650  89.2624930  10.6571530  27.3461390
  88.7855490  11.4643720  27.1534000  88.5786720  10.0049860  27.4987600
  80.2657750   6.8221350  30.3346090  79.3686280   7.0461320  30.5819490
  80.2910620   6.9456290  29.3857490  87.3062970   3.6714470  16.2487350
  87.7456250   2.8336900  16.1025170  88.0191390   4.3043870  16.3351490
  79.0928970   3.6934670  28.9103460  78.9536740   4.5657470  29.2790860
  78.2110330   3.3507480  28.7651400  85.4158350   8.6110540  20.2168590
  85.8554260   9.3534870  19.8023980  85.3545240   8.8537110  21.1407550
  80.8909320   9.6356370  31.1188610  80.8624750  10.0399320  30.2517040
  80.7274290   8.7066730  30.9560210  77.4062250   2.2917080  19.0205730
  77.2859850   3.0179170  18.4087000  77.0963140   1.5219990  18.5433640
  75.0447620   5.4632220  24.8274370  75.1228040   5.5980990  23.8830090
  75.6589300   4.7548110  25.0202490  76.2895250   7.1632410  21.2380550
  75.8823330   7.3047000  20.3834150  77.1808260   6.8792570  21.0351760
  86.1074130  11.3124320  28.1447600  86.6218800  11.2232330  28.9470030
  85.2643210  11.6584020  28.4375510  88.0828530  11.5979660  17.5731600
  87.9229670  11.3082600  18.4713430  87.9175240  10.8219790  17.0376830
  80.5616910  11.3778190  19.3503220  80.3859390  10.4613730  19.1371020
  79.7072650  11.7365480  19.5901020  87.7854660   9.1067220  16.1329600
  87.0919820   9.1044510  15.4731880  88.5277520   8.6826540  15.7023770
  87.3504590  10.7329930  20.2078090  87.8061540   9.9519310  20.5216710
  87.6897110  11.4436750  20.7519270  75.1007140   6.5046390  27.3668830
  75.2638180   6.0351750  26.5488200  75.5659590   5.9969950  28.0317670
  81.5976940   1.9785800  15.6497910  81.0293840   1.5304050  15.0233820
  82.3065940   2.3378580  15.1163060  76.6746120   5.8797820  29.5264640
  76.2900910   5.2391490  30.1247600  76.9858310   6.5833940  30.0959370
  82.8243260   2.7274360  25.0073260  83.1913390   2.2532930  25.7534600
  82.6348320   3.6015930  25.3481600  80.6142630   1.7683000  27.3257470
  80.3099700   2.6474980  27.5507830  81.5689090   1.8282790  27.3614910
  79.1424420   5.9743990  17.9224320  78.3686680   5.4341610  17.7623040
  79.8719050   5.4550600  17.5842080  89.9012400   4.9709350  23.7150710
  90.6211520   5.4664640  23.3246820  89.6994220   4.2927240  23.0704580
  85.2831200   5.0418410  29.6019710  85.2168510   4.1214080  29.3477300
  84.6536340   5.1393850  30.3164350  79.1861820   5.6424370  21.5603130
  79.7040490   4.8392630  21.5060020  78.7345840   5.5803510  22.4019960
  84.0731320   6.9090650  16.8330430  84.4147020   7.6532880  16.3373750
  83.2444030   7.2221770  17.1955260  76.6706360   2.6085740  28.4728830
  76.3121300   3.2739590  29.0602170  76.3760920   1.7769290  28.8441450
  79.8719480   3.0669980  31.3568380  79.5719620   3.2127160  30.4596200
  80.6430720   2.5075270  31.2641770  85.2147930   7.8638980  29.3523510
  85.2292470   6.9319940  29.1342420  84.5073030   7.9498740  29.9913280
  86.9558730   6.2306490  22.1975940  87.3082550   5.6334620  21.5377310
  86.0721060   5.9050720  22.3684190  83.0422010   6.9904180  19.6046350
  83.7293140   7.5373390  19.9853940  82.2554430   7.5344910  19.6395960
  75.1814410   2.6077000  15.0963430  76.0509260   2.8901800  15.3799350
  74.6904730   3.4212870  14.9812240  82.3449220   3.9950210  19.2171710
  82.8012000   4.8055460  19.4431900  81.9937430   3.6773350  20.0490200
  84.6481830   9.5056550  26.4464010  85.2924050   9.7115930  27.1237430
  85.0111270   8.7444950  25.9934860  85.9213910   7.5088900  25.1641460
  86.5636140   6.8082060  25.2773630  86.4463260   8.2887340  24.9838350
  89.7669630   7.7937520  14.8880600  89.5407210   7.0767960  15.4805240
  89.3765830   7.5449960  14.0502350  87.6951530   8.3083800  28.3677520
  88.0307770   8.8950490  29.0455440  86.7751870   8.1776510  28.5975310
  75.5485660  11.8204380  15.6625060  75.9083300  12.4193720  15.0082330
  75.4078000  12.3664270  16.4360090  89.3485880   5.7109460  16.5494760
  89.0607580   6.1722150  17.3372640  90.1438050   5.2507230  16.8178980
  75.5327520  10.0859240  30.1367460  75.6418640   9.1453980  29.9962850
  74.8808080  10.3513990  29.4881190  83.5240110   8.3575130  31.5365580
  83.2036980   7.6384370  32.0811270  82.8498470   9.0330200  31.6101640
  81.5654280   9.2035580  16.4798730  81.5564380   9.9365270  15.8643240
  80.6452640   8.9567160  16.5725690  77.1660920   4.4250470  17.2245490
  76.5588870   5.1649370  17.2340790  77.6410270   4.5149830  16.3983690
  84.5513880   9.2663820  15.1423920  84.6525860   9.0627810  14.2125900
  83.6515620   9.0122100  15.3471700  83.1931990  11.7850140  19.8371590
  83.4473490  11.7471530  18.9150960  82.2444470  11.6583470  19.8299840
  89.1984570   2.7042020  21.4130100  88.2574710   2.7192250  21.5877790
  89.5128640   1.9177980  21.8590400  79.1766210   4.3861620  14.9734060
  79.9429480   4.2742980  15.5359490  79.2540900   3.6899590  14.3210830
  78.6727680  11.9682080  22.7601490  79.4090160  11.4197540  23.0310060
  79.0568600  12.8338090  22.6207480  75.5573160   8.0355650  18.6343000
  74.6312940   8.2776790  18.6248410  76.0229590   8.8629910  18.5127750
  77.6785960  11.1528150  31.9487070  78.4798690  11.4740200  32.3622470
  77.1637780  10.7923730  32.6706980  81.7829990  11.1412390  14.5827060
  82.5758600  11.4301220  14.1308850  81.2634340  10.7104560  13.9039540
  86.5150590   7.2608020  31.8962480  85.9088750   7.2839620  31.1558230
  86.2104700   6.5291060  32.4329730  87.9450960  10.9888310  30.5071890
  88.8972710  10.9046330  30.4572130  87.7979180  11.6530020  31.1805680
  75.3983770   3.6401610  30.8923120  75.9022790   3.0608890  31.4639350
  74.6591190   3.9241840  31.4299490  82.3007390   6.3615800  14.4469410
  82.1958030   5.7468150  15.1730790  82.1331610   5.8381690  13.6632420
  82.4521710   5.0472600  30.4258640  81.6867380   5.6157600  30.3413310
  82.6337670   4.7548810  29.5326870  85.5410120   5.4235830  15.0511400
  84.9920220   5.8705130  15.6954140  86.1629380   4.9185080  15.5749070
  89.5945060   6.7777930  30.9833660  90.3354530   7.1153690  30.4801120
  88.8317740   6.9469990  30.4303430  77.4306850   1.7831200  31.7873190
  77.4712190   1.4845070  32.6958420  78.2852350   2.1838810  31.6280710
  81.2085240   4.3826750  16.9476700  81.6301660   4.2166620  17.7908090
  81.3336080   3.5726980  16.4531840  83.7212880   3.4064360  14.1953800
  84.2418540   2.6913380  13.8294950  84.3681280   4.0450230  14.4954310
  88.2690720   4.8292760  29.5188870  88.6831740   4.9837840  30.3679290
  87.3341720   4.9547980  29.6814650  83.0305950   4.7813240  27.4884800
  83.4494060   5.6245970  27.3161040  82.1114580   4.9185280  27.2591580
  85.3669850   2.5129420  28.8722640  85.4866060   1.9170560  29.6117480
  86.2263850   2.5499110  28.4523940  87.7057750   3.0666610  27.4485150
  87.1792970   3.5909230  26.8450290  88.0489090   3.6994000  28.0794880
  80.8813370  11.0866250  28.6042530  80.3434460  11.8112310  28.2851230
  81.1347330  10.6096590  27.8139870  83.7375580  12.3217460  28.8629180
  83.6634280  13.2252600  29.1701550  82.8354420  12.0029360  28.8351250
  84.2860910  11.4875970  16.4855540  85.1811700  11.8260940  16.5074300
  84.3178540  10.7655380  15.8579820  77.9257070   6.8603020  14.7142540
  78.3631940   7.4032690  15.3700120  78.4104800   6.0349970  14.7238880
  75.1402870   9.6492050  22.1662800  75.4705880   8.7813110  21.9341440
  75.5693870   9.8550570  22.9967760  79.7364790   7.9801060  19.8264770
  79.4360330   7.8566030  20.7268680  79.6302280   7.1209650  19.4180500
  75.6293080  10.5162640  24.9044430  75.1924070  10.6963440  25.7368580
  76.1970760  11.2737260  24.7626150  75.4617510   3.0282870  21.2633310
  74.8066350   2.7594510  20.6193010  76.2995460   2.9187350  20.8135290
  89.9506900   6.7431620  27.2897900  89.1366740   7.1728780  27.5523690
  90.3581100   7.3550030  26.6766950  76.4993440   3.4135440  25.8036650
  76.8666480   3.3262840  26.6832670  75.9304260   2.6501990  25.7043510
  90.0082950  11.4950220  20.8166170  90.6042020  11.1734790  20.1400590
  90.2661100  11.0222040  21.6079440  77.9145520   7.9268130  30.9656800
  77.8715150   7.5561040  31.8471260  78.0456530   8.8645700  31.1058620
  81.6151550   9.4827720  26.5666520  81.3742910   9.7502280  25.6797040
  82.5554190   9.6533450  26.6217380  77.7533550  10.8730380  28.0854580
  77.1593870  10.7415080  28.8244620  77.7457390  10.0368520  27.6196680
  90.5595160  12.1445520  24.6463900  90.0998130  12.8961330  24.2721920
  89.9307620  11.4251990  24.5878700  77.3845780   8.2388760  27.0362620
  76.6579840   7.6194050  26.9688570  77.4454930   8.6329370  26.1660700
  80.9890880  10.4533760  23.8212030  81.5055900   9.8421120  23.2960290
  81.6388260  10.9562540  24.3123040  83.7286380  11.3442250  24.6481010
  84.0164190  11.0896550  23.7714020  84.2409600  10.7919610  25.2386580
  75.6675780  11.5563150  20.2459380  75.4997820  10.9233830  20.9441270
  74.8010290  11.7622550  19.8953570  77.2738480  10.2496380  17.6909520
  76.7486100  10.6304410  16.9871480  77.1983060  10.8747150  18.4119230
  83.7958740  12.2658350  32.0149210  84.7226050  12.0302620  32.0585170
  83.7809170  13.0930350  31.5335240  79.8731450  12.1978760  16.5658770
  80.6050270  11.9138040  16.0182660  80.1325120  11.9592040  17.4558150
  79.0346240   8.3143490  16.5705100  78.4055120   8.7828590  17.1190930
  79.1494070   7.4692710  17.0051290  84.6214000   4.1428170   4.6015570
  83.8456100   3.6628610   4.8914140  85.2726930   3.4633820   4.4271730
  78.6379830   4.4547980   5.4791330  77.8064710   4.1996690   5.8787840
  79.2460810   4.5258750   6.2149250  88.6421430   8.5488360   3.3814700
  88.1802960   7.7775600   3.7101870  89.4546980   8.5754430   3.8867150
  78.6181090   8.4888070   5.6749350  78.9209130   7.5985810   5.4959570
  79.3624680   9.0458290   5.4471600  84.8684740  10.8346370   3.0018690
  84.2496180  11.2903870   2.4313130  85.7236520  10.9897830   2.6008390
  84.0622990   6.8185360   4.6085730  83.9931270   5.8775300   4.4474860
  84.8242850   6.9086770   5.1808300  80.5979850   5.2461480   7.0734200
  80.2649230   5.8730400   7.7155270  80.7746530   5.7723360   6.2935870
  79.8098950   7.2142280   8.8883380  80.4272950   7.8893360   8.6067830
  78.9492070   7.6230260   8.7970880  88.2635280  10.5225820   5.5183200
  88.2762440  10.1188110   4.6505460  87.7110500  11.2973110   5.4144630
  87.6620720   5.4255660   6.8465810  88.0789510   5.2115770   6.0119270
  88.3860540   5.6828450   7.4174430  80.7057620   3.3972100   2.7455590
  80.3014620   2.6849350   2.2501490  80.7920740   3.0525340   3.6343630
  81.1739320   7.0839660   4.9094800  80.8767610   6.4785130   4.2302580
  82.1239140   7.1216970   4.7984160  89.2624930  10.6571530   8.5717900
  88.7855490  11.4643720   8.3790510  88.5786720  10.0049860   8.7244110
  80.2657750   6.8221350  11.5602600  79.3686280   7.0461320  11.8076000
  80.2910620   6.9456290  10.6114000  79.0928970   3.6934670  10.1359970
  78.9536740   4.5657470  10.5047370  78.2110330   3.3507480   9.9907910
  80.8909320   9.6356370  12.3445120  80.8624750  10.0399320  11.4773550
  80.7274290   8.7066730  12.1816720  75.0447620   5.4632220   6.0530880
  75.1228040   5.5980990   5.1086600  75.6589300   4.7548110   6.2459000
  76.2895250   7.1632410   2.4637060  75.8823330   7.3047000   1.6090660
  77.1808260   6.8792570   2.2608270  86.1074130  11.3124320   9.3704110
  86.6218800  11.2232330  10.1726540  85.2643210  11.6584020   9.6632020
  75.1007140   6.5046390   8.5925340  75.2638180   6.0351750   7.7744710
  75.5659590   5.9969950   9.2574180  76.6746120   5.8797820  10.7521150
  76.2900910   5.2391490  11.3504110  76.9858310   6.5833940  11.3215880
  82.8243260   2.7274360   6.2329770  83.1913390   2.2532930   6.9791110
  82.6348320   3.6015930   6.5738110  80.6142630   1.7683000   8.5513980
  80.3099700   2.6474980   8.7764340  81.5689090   1.8282790   8.5871420
  89.9012400   4.9709350   4.9407220  90.6211520   5.4664640   4.5503330
  89.6994220   4.2927240   4.2961090  85.2831200   5.0418410  10.8276220
  85.2168510   4.1214080  10.5733810  84.6536340   5.1393850  11.5420860
  79.1861820   5.6424370   2.7859640  79.7040490   4.8392630   2.7316530
  78.7345840   5.5803510   3.6276470  76.6706360   2.6085740   9.6985340
  76.3121300   3.2739590  10.2858680  76.3760920   1.7769290  10.0697960
  79.8719480   3.0669980  12.5824890  79.5719620   3.2127160  11.6852710
  80.6430720   2.5075270  12.4898280  85.2147930   7.8638980  10.5780020
  85.2292470   6.9319940  10.3598930  84.5073030   7.9498740  11.2169790
  86.9558730   6.2306490   3.4232450  87.3082550   5.6334620   2.7633820
  86.0721060   5.9050720   3.5940700  84.6481830   9.5056550   7.6720520
  85.2924050   9.7115930   8.3493940  85.0111270   8.7444950   7.2191370
  85.9213910   7.5088900   6.3897970  86.5636140   6.8082060   6.5030140
  86.4463260   8.2887340   6.2094860  87.6951530   8.3083800   9.5934030
  88.0307770   8.8950490  10.2711950  86.7751870   8.1776510   9.8231820
  75.5327520  10.0859240  11.3623970  75.6418640   9.1453980  11.2219360
  74.8808080  10.3513990  10.7137700  83.5240110   8.3575130  12.7622090
  83.2036980   7.6384370  13.3067780  82.8498470   9.0330200  12.8358150
  89.1984570   2.7042020   2.6386610  88.2574710   2.7192250   2.8134300
  89.5128640   1.9177980   3.0846910  78.6727680  11.9682080   3.9858000
  79.4090160  11.4197540   4.2566570  79.0568600  12.8338090   3.8463990
  77.6785960  11.1528150  13.1743580  78.4798690  11.4740200  13.5878980
  77.1637780  10.7923730  13.8963490  86.5150590   7.2608020  13.1218990
  85.9088750   7.2839620  12.3814740  86.2104700   6.5291060  13.6586240
  87.9450960  10.9888310  11.7328400  88.8972710  10.9046330  11.6828640
  87.7979180  11.6530020  12.4062190  75.3983770   3.6401610  12.1179630
  75.9022790   3.0608890  12.6895860  74.6591190   3.9241840  12.6556000
  82.4521710   5.0472600  11.6515150  81.6867380   5.6157600  11.5669820
  82.6337670   4.7548810  10.7583380  89.5945060   6.7777930  12.2090170
  90.3354530   7.1153690  11.7057630  88.8317740   6.9469990  11.6559940
  77.4306850   1.7831200  13.0129700  77.4712190   1.4845070  13.9214930
  78.2852350   2.1838810  12.8537220  88.2690720   4.8292760  10.7445380
  88.6831740   4.9837840  11.5935800  87.3341720   4.9547980  10.9071160
  83.0305950   4.7813240   8.7141310  83.4494060   5.6245970   8.5417550
  82.1114580   4.9185280   8.4848090  85.3669850   2.5129420  10.0979150
  85.4866060   1.9170560  10.8373990  86.2263850   2.5499110   9.6780450
  87.7057750   3.0666610   8.6741660  87.1792970   3.5909230   8.0706800
  88.0489090   3.6994000   9.3051390  80.8813370  11.0866250   9.8299040
  80.3434460  11.8112310   9.5107740  81.1347330  10.6096590   9.0396380
  83.7375580  12.3217460  10.0885690  83.6634280  13.2252600  10.3958060
  82.8354420  12.0029360  10.0607760  75.1402870   9.6492050   3.3919310
  75.4705880   8.7813110   3.1597950  75.5693870   9.8550570   4.2224270
  75.6293080  10.5162640   6.1300940  75.1924070  10.6963440   6.9625090
  76.1970760  11.2737260   5.9882660  75.4617510   3.0282870   2.4889820
  74.8066350   2.7594510   1.8449520  76.2995460   2.9187350   2.0391800
  89.9506900   6.7431620   8.5154410  89.1366740   7.1728780   8.7780200
  90.3581100   7.3550030   7.9023460  76.4993440   3.4135440   7.0293160
  76.8666480   3.3262840   7.9089180  75.9304260   2.6501990   6.9300020
  77.9145520   7.9268130  12.1913310  77.8715150   7.5561040  13.0727770
  78.0456530   8.8645700  12.3315130  81.6151550   9.4827720   7.7923030
  81.3742910   9.7502280   6.9053550  82.5554190   9.6533450   7.8473890
  77.7533550  10.8730380   9.3111090  77.1593870  10.7415080  10.0501130
  77.7457390  10.0368520   8.8453190  90.5595160  12.1445520   5.8720410
  90.0998130  12.8961330   5.4978430  89.9307620  11.4251990   5.8135210
  77.3845780   8.2388760   8.2619130  76.6579840   7.6194050   8.1945080
  77.4454930   8.6329370   7.3917210  80.9890880  10.4533760   5.0468540
  81.5055900   9.8421120   4.5216800  81.6388260  10.9562540   5.5379550
  83.7286380  11.3442250   5.8737520  84.0164190  11.0896550   4.9970530
  84.2409600  10.7919610   6.4643090  83.7958740  12.2658350  13.2405720
  84.7226050  12.0302620  13.2841680  83.7809170  13.0930350  12.7591750
  67.7152470  96.2366600  59.0436770  67.6346520  95.3221210  58.7728480
  67.3016890  96.7333670  58.3376480  65.8470510  98.0145620  60.9246040
  65.0712610  97.5346060  61.2144610  66.4983440  97.3351270  60.7502200
  59.8636340  98.3265430  61.8021800  59.0321220  98.0714140  62.2018310
  60.4717320  98.3976200  62.5379720  58.2728290  93.2867320  55.5864190
  57.3844990  93.6283290  55.4844070  58.5569480  93.0867640  54.6945020
  56.2361300  95.8872970  61.4703890  56.8077410  95.1195170  61.4707530
  56.2362840  96.1861730  60.5610500  66.3184670  93.4973190  61.1585130
  66.6949490  92.6245070  61.0458800  66.2204180  93.8331890  60.2675570
  60.4489680  91.8698820  56.6202570  60.5556430  92.7702550  56.9271330
  59.5382040  91.8216790  56.3297220  70.1008790  90.9923630  58.0913470
  70.9218410  90.5020200  58.1338950  70.1342870  91.5821290  58.8445310
  58.0972840  93.7917830  61.8655160  58.7782950  94.0556200  62.4842560
  57.7820890  92.9518700  62.1993170  62.2897410  94.8385190  60.9527750
  62.7975630  95.3366160  61.5932770  62.8210650  94.0620390  60.7767110
  70.3370270  92.9324010  60.8641010  69.6325840  93.2208900  61.4444120
  70.6982430  93.7424120  60.5040570  60.2548840  91.1893710  63.2261620
  60.5965650  92.0335760  62.9315490  59.3164650  91.3377450  63.3426960
  73.4057190  92.3778800  61.2550220  72.4582100  92.4117780  61.3865650
  73.7307180  93.1917750  61.6399580  63.9376730  88.6775980  59.5506210
  64.2451710  88.1222870  58.8341710  63.0077430  88.8120440  59.3679200
  66.3257490  96.7424810  56.2866330  65.3986770  96.6762190  56.5154800
  66.4782310  97.6804940  56.1721570  66.3126570  93.0141810  53.2833490
  65.3730240  93.1755770  53.3685950  66.6309830  93.7327490  52.7369480
  72.8339330  97.6960330  63.2612520  72.0057960  97.7653420  62.7862650
  73.4289810  98.2814640  62.7928350  70.3554780  98.3045110  56.7901580
  69.7367200  97.9664660  56.1427880  70.3379230  97.6604870  57.4980770
  61.9314130  97.2689550  59.0686060  61.5271130  96.5566800  58.5731960
  62.0177250  96.9242790  59.9574100  68.5319480  97.5431920  53.7974330
  68.9712760  96.7054350  53.6512150  69.2447900  98.1761320  53.8838470
  72.1136620  88.7974730  52.1115370  71.8009280  88.8901560  53.0114440
  72.8749090  89.3755760  52.0612800  58.6318760  96.1634530  56.5692710
  58.5116360  96.8896620  55.9573980  58.3219650  95.3937440  56.0920620
  61.0982420  89.5069600  59.9516380  60.6550570  90.2879140  59.6200900
  61.6567410  89.8299490  60.6587320  64.2141240  89.1280300  54.8322210
  63.5895420  89.1240170  55.5575520  64.1271360  88.2611260  54.4358180
  63.1358320  90.0516930  61.8105980  63.4330650  90.9579760  61.7298000
  63.6843880  89.5635710  61.1965550  60.8896640  94.6303170  57.6797630
  60.6637560  94.4140340  58.5844250  60.1089170  95.0631630  57.3343600
  68.1194400  94.6366540  56.2788280  67.5203290  95.3602340  56.0951900
  68.6674010  94.5743320  55.4964730  66.7259270  93.2730080  58.3091560
  67.1188840  93.5902280  57.4960250  67.0876120  92.3941960  58.4236080
  55.7623440  89.8630880  60.5321760  55.4736490  90.4333740  61.2446740
  56.5069200  89.3835330  60.8952990  55.9493670  93.8051000  51.7424480
  55.8668340  94.7481760  51.8839470  55.5976730  93.6625910  50.8636830
  67.3114410  95.8635830  62.4042340  66.5795530  96.3722640  62.7532440
  66.9138750  95.0465810  62.1031120  63.7491800  92.5390030  60.8094830
  63.7527860  92.0979980  59.9599370  64.6442920  92.8607360  60.9166650
  59.5994180  92.4216520  59.7689040  59.2594230  92.8991750  60.5256090
  58.8371500  91.9681640  59.4090140  63.8111950  93.5402110  53.8001590
  63.9324770  93.4988590  54.7487410  63.4260460  94.4026260  53.6448320
  67.7740320  91.3169510  61.8165280  67.7913060  91.7678160  62.6607130
  67.5255900  90.4175150  62.0298720  62.8233450  95.8503250  53.1984890
  62.2550350  95.4021500  52.5720800  63.5322450  96.2096030  52.6650040
  64.0499770  96.5991810  62.5560240  64.4169900  96.1250380  63.3021580
  63.8604830  97.4733380  62.8968580  56.9140260  91.3435500  58.6853710
  56.6287180  90.9791170  59.5232330  56.8519120  90.6115960  58.0716850
  66.5878850  90.2364760  55.4067080  65.7743460  89.7377930  55.3312390
  66.3940800  91.0763010  54.9903430  69.3027240  94.6084410  53.7029240
  70.1906860  94.9201640  53.5280580  69.2732330  93.7356660  53.3109820
  71.5741510  95.9196250  53.1709100  71.4905230  96.3510470  52.3205540
  72.2935700  96.3794600  53.6035920  56.4070920  96.4794450  52.6450410
  57.2765770  96.7619250  52.9286330  55.9161240  97.2930320  52.5299220
  63.5705730  97.8667660  56.7658690  64.0268510  98.6772910  56.9918880
  63.2193940  97.5490800  57.5977180  59.4717510  88.2105310  57.2381210
  59.3432140  88.2023210  58.1866130  58.6479530  88.5488400  56.8872220
  71.3312250  91.4175680  55.2576920  70.7025410  91.5221350  54.5435150
  70.8364170  91.6372460  56.0470800  63.2996280  93.6961630  56.6734800
  62.5912430  94.1647970  57.1148410  63.5840760  93.0383640  57.3079990
  67.3311710  90.4212290  58.1130590  67.2079490  90.4398420  57.1640100
  68.2796270  90.4691230  58.2328990  61.5031300  92.0046710  54.0485510
  62.3521830  92.4416860  53.9825700  61.1362570  92.3166970  54.8757570
  70.4241080  96.5759470  58.9617080  69.4831220  96.5909700  59.1364770
  70.7385150  95.7895430  59.4077380  60.4022720  98.2579070  52.5221040
  61.1685990  98.1460430  53.0846470  60.4797410  97.5617040  51.8697810
  59.0969480  95.6904140  53.2053930  59.1773070  94.7431650  53.3171330
  59.9889230  96.0211020  53.3114590  62.4341750  98.2544200  54.4963680
  62.8558170  98.0884070  55.3395070  62.5592590  97.4444430  54.0018820
  64.9469390  97.2781810  51.7440780  65.4675050  96.5630830  51.3781930
  65.5937790  97.9167680  52.0441290  61.3300650  94.3277430  51.4421840
  61.1289710  93.4644790  51.8035180  61.1592700  94.2410790  50.5043440
  68.8088960  89.1385660  53.9708720  69.0891250  88.2953560  54.3268140
  68.0354690  89.3708770  54.4847470  60.1283450  91.4278050  51.4299720
  60.4309350  91.4345480  50.5218870  60.8678040  91.0775910  51.9267380
  63.3468380  90.3712670  52.4155920  62.9990380  89.6936660  51.8358370
  63.5481150  89.9102180  53.2299310  56.6874020  96.9000320  58.8120290
  56.0322860  96.6311960  58.1679990  57.5251970  96.7904800  58.3622270
  69.6364460  91.6941610  53.0338780  70.0549340  91.5072590  52.1935440
  69.3300520  90.8420660  53.3441710  73.1354190  96.6065750  56.7314580
  72.7597790  95.8393680  56.2995870  72.4057310  96.9888450  57.2189510
  55.9012100  94.1099250  54.7545620  54.9976180  94.3729450  54.5797280
  56.3852720  94.3810420  53.9745580  72.4105150  94.8323240  60.0321820
  72.9342630  94.3385890  59.4011990  72.9964570  94.9673600  60.7769390
  58.4439310  93.1664790  52.6640000  59.1531010  92.7448010  52.1787280
  57.7279250  93.2340020  52.0323350  58.0913470  89.2204120  51.7042650
  58.8141600  89.7613060  52.0223870  58.3637990  88.9467540  50.8284190
  71.9005120  94.0896590  55.9714230  72.3964240  93.8567460  56.7563110
  71.7021190  93.2508430  55.5551870  57.7805660  88.4710310  61.6065270
  58.4281850  87.9207690  61.1660430  58.2007500  88.7253460  62.4281080
  73.3292280  92.7257540  58.5051910  73.2191560  92.5713580  59.4434180
  74.0899870  92.1978480  58.2627320  74.2182550  90.5565460  51.7458050
  75.1431860  90.4246640  51.5376340  74.1958340  90.6358280  52.6994500
  74.2921040  91.3276120  54.3714760  73.4972540  91.2621240  54.9007670
  74.4964320  92.2626760  54.3600110  66.1719900  88.9549900  62.7764500
  65.3891690  89.4295400  63.0561260  65.8782830  88.0504730  62.6677680
  70.7240970  89.6573000  60.8213590  71.1649060  89.6018100  59.9735190
  70.4548560  90.5731010  60.8923770  72.5879540  89.2888240  58.8322410
  72.5267940  88.3449460  58.6853430  73.3671570  89.3968330  59.3775870
  57.5160310  89.2597380  55.2978220  58.2739670  89.3726260  54.7242250
  57.0537480  90.0966580  55.2521650  64.0574120  91.3736650  58.2880530
  63.2448630  90.9993540  57.9476410  64.5615760  90.6181730  58.5901720
  68.5599100  88.0379100  59.5263600  69.1628470  88.6099310  60.0012120
  67.8192090  88.6018540  59.3037500  71.7033700  88.4400660  54.8003880
  71.8984330  89.3384110  55.0671310  70.9163570  88.2087740  55.2936830
  59.8885460  89.7861430  53.8380190  60.4178220  88.9991230  53.7088140
  60.5213780  90.4652620  54.0715720  62.0823300  89.5236570  56.8925580
  61.4526040  88.8223880  57.0595710  61.5428440  90.2840700  56.6758740
  67.7152470  96.2366600  40.2693280  67.6346520  95.3221210  39.9984990
  67.3016890  96.7333670  39.5632990  65.8470510  98.0145620  42.1502550
  65.0712610  97.5346060  42.4401120  66.4983440  97.3351270  41.9758710
  59.8636340  98.3265430  43.0278310  59.0321220  98.0714140  43.4274820
  60.4717320  98.3976200  43.7636230  58.2728290  93.2867320  36.8120700
  57.3844990  93.6283290  36.7100580  58.5569480  93.0867640  35.9201530
  56.2361300  95.8872970  42.6960400  56.8077410  95.1195170  42.6964040
  56.2362840  96.1861730  41.7867010  57.4786170  91.2957330  44.4829330
  57.2989010  90.3983080  44.7632090  57.0766250  91.8429200  45.1576280
  66.3184670  93.4973190  42.3841640  66.6949490  92.6245070  42.2715310
  66.2204180  93.8331890  41.4932080  60.4489680  91.8698820  37.8459080
  60.5556430  92.7702550  38.1527840  59.5382040  91.8216790  37.5553730
  70.1008790  90.9923630  39.3169980  70.9218410  90.5020200  39.3595460
  70.1342870  91.5821290  40.0701820  58.0972840  93.7917830  43.0911670
  58.7782950  94.0556200  43.7099070  57.7820890  92.9518700  43.4249680
  62.2897410  94.8385190  42.1784260  62.7975630  95.3366160  42.8189280
  62.8210650  94.0620390  42.0023620  74.3908340  93.0090380  45.8813610
  73.6860510  93.3972090  45.3628720  74.6566260  93.7040670  46.4834540
  60.5733510  89.4783750  46.4447680  60.5751950  89.9956140  45.6393580
  59.7437820  89.0013930  46.4217610  70.3370270  92.9324010  42.0897520
  69.6325840  93.2208900  42.6700630  70.6982430  93.7424120  41.7297080
  60.2548840  91.1893710  44.4518130  60.5965650  92.0335760  44.1572000
  59.3164650  91.3377450  44.5683470  73.4057190  92.3778800  42.4806730
  72.4582100  92.4117780  42.6122160  73.7307180  93.1917750  42.8656090
  63.9376730  88.6775980  40.7762720  64.2451710  88.1222870  40.0598220
  63.0077430  88.8120440  40.5935710  66.3257490  96.7424810  37.5122840
  65.3986770  96.6762190  37.7411310  66.4782310  97.6804940  37.3978080
  66.3126570  93.0141810  34.5090000  65.3730240  93.1755770  34.5942460
  66.6309830  93.7327490  33.9625990  72.8339330  97.6960330  44.4869030
  72.0057960  97.7653420  44.0119160  73.4289810  98.2814640  44.0184860
  70.3554780  98.3045110  38.0158090  69.7367200  97.9664660  37.3684390
  70.3379230  97.6604870  38.7237280  69.7981340  94.4829650  45.4323900
  69.3852520  95.3083360  45.6863890  69.0657290  93.8974690  45.2400260
  61.9314130  97.2689550  40.2942570  61.5271130  96.5566800  39.7988470
  62.0177250  96.9242790  41.1830610  60.6442750  94.0432760  44.0741610
  61.1957340  94.1528100  43.2994860  61.1586260  94.4170360  44.7896840
  68.5319480  97.5431920  35.0230840  68.9712760  96.7054350  34.8768660
  69.2447900  98.1761320  35.1094980  60.3185480  97.5652120  47.6846950
  60.1793250  98.4374920  48.0534350  59.4366840  97.2224930  47.5394890
  72.1136620  88.7974730  33.3371880  71.8009280  88.8901560  34.2370950
  72.8749090  89.3755760  33.2869310  58.6318760  96.1634530  37.7949220
  58.5116360  96.8896620  37.1830490  58.3219650  95.3937440  37.3177130
  73.3237910  93.5346230  49.3146020  72.7082180  94.0425900  48.7861480
  73.0034330  92.6344560  49.2571960  61.0982420  89.5069600  41.1772890
  60.6550570  90.2879140  40.8457410  61.6567410  89.8299490  41.8843830
  65.3852230  92.3738120  46.7808210  64.9231600  92.5821140  47.5928150
  64.9830340  91.5597470  46.4778880  70.3856740  93.5947070  47.9104870
  69.5350330  93.2952820  48.2313940  70.2258530  93.8389080  46.9988690
  67.4806450  95.0948820  50.0103660  67.8059860  94.2612570  49.6705890
  68.2686780  95.6177340  50.1581990  64.2141240  89.1280300  36.0578720
  63.5895420  89.1240170  36.7832030  64.1271360  88.2611260  35.6614690
  63.1358320  90.0516930  43.0362490  63.4330650  90.9579760  42.9554510
  63.6843880  89.5635710  42.4222060  60.8896640  94.6303170  38.9054140
  60.6637560  94.4140340  39.8100760  60.1089170  95.0631630  38.5600110
  68.1194400  94.6366540  37.5044790  67.5203290  95.3602340  37.3208410
  68.6674010  94.5743320  36.7221240  63.3295850  95.5288750  49.5714410
  63.2339450  94.5883480  49.4214810  64.1727830  95.7503820  49.1762480
  66.7259270  93.2730080  39.5348070  67.1188840  93.5902280  38.7216760
  67.0876120  92.3941960  39.6492590  58.4606390  91.9402420  47.7248190
  58.0669780  92.7877630  47.9320970  57.7724790  91.3028790  47.9156830
  65.0351440  92.0237390  50.7944930  64.3449760  91.8309590  51.4291020
  65.7783740  92.3072030  51.3269230  55.7623440  89.8630880  41.7578270
  55.4736490  90.4333740  42.4703250  56.5069200  89.3835330  42.1209500
  55.9493670  93.8051000  32.9680990  55.8668340  94.7481760  33.1095980
  55.5976730  93.6625910  32.0893340  67.3114410  95.8635830  43.6298850
  66.5795530  96.3722640  43.9788950  66.9138750  95.0465810  43.3287630
  63.7491800  92.5390030  42.0351340  63.7527860  92.0979980  41.1855880
  64.6442920  92.8607360  42.1423160  59.5994180  92.4216520  40.9945550
  59.2594230  92.8991750  41.7512600  58.8371500  91.9681640  40.6346650
  63.8111950  93.5402110  35.0258100  63.9324770  93.4988590  35.9743920
  63.4260460  94.4026260  34.8704830  67.7740320  91.3169510  43.0421790
  67.7913060  91.7678160  43.8863640  67.5255900  90.4175150  43.2555230
  62.8233450  95.8503250  34.4241400  62.2550350  95.4021500  33.7977310
  63.5322450  96.2096030  33.8906550  71.2011070  88.7301690  48.8808170
  71.5256840  87.9991350  49.4066150  71.2367580  88.4115330  47.9789160
  64.0499770  96.5991810  43.7816750  64.4169900  96.1250380  44.5278090
  63.8604830  97.4733380  44.1225090  56.9140260  91.3435500  39.9110220
  56.6287180  90.9791170  40.7488840  56.8519120  90.6115960  39.2973360
  61.8399140  95.6400450  46.1000960  61.5356210  96.5192430  46.3251320
  62.7945600  95.7000240  46.1358400  66.5878850  90.2364760  36.6323590
  65.7743460  89.7377930  36.5568900  66.3940800  91.0763010  36.2159940
  69.3027240  94.6084410  34.9285750  70.1906860  94.9201640  34.7537090
  69.2732330  93.7356660  34.5366330  57.8962870  96.4803190  47.2472320
  57.5377810  97.1457040  47.8345660  57.6017430  95.6486740  47.6184940
  61.0975990  96.9387430  50.1311870  60.7976130  97.0844610  49.2339690
  61.8687230  96.3792720  50.0385260  71.5741510  95.9196250  34.3965610
  71.4905230  96.3510470  33.5462050  72.2935700  96.3794600  34.8292430
  56.4070920  96.4794450  33.8706920  57.2765770  96.7619250  34.1542840
  55.9161240  97.2930320  33.7555730  63.5705730  97.8667660  37.9915200
  64.0268510  98.6772910  38.2175390  63.2193940  97.5490800  38.8233690
  59.4717510  88.2105310  38.4637720  59.3432140  88.2023210  39.4122640
  58.6479530  88.5488400  38.1128730  56.4711440  89.9696430  47.9244420
  55.7569960  90.1693350  48.5297030  56.8906480  89.1936000  48.2959220
  67.9650220  92.4618740  45.6745870  68.3331040  91.6413950  46.0025440
  67.1048420  92.5220630  46.0901520  71.3312250  91.4175680  36.4833430
  70.7025410  91.5221350  35.7691660  70.8364170  91.6372460  37.2727310
  63.2996280  93.6961630  37.8991310  62.5912430  94.1647970  38.3404920
  63.5840760  93.0383640  38.5336500  64.9252210  95.1158330  45.8983840
  65.4237460  95.5904150  46.5635690  65.0675160  94.1921850  46.1053870
  67.3311710  90.4212290  39.3387100  67.2079490  90.4398420  38.3896610
  68.2796270  90.4691230  39.4585500  61.5031300  92.0046710  35.2742020
  62.3521830  92.4416860  35.2082210  61.1362570  92.3166970  36.1014080
  72.1319070  91.3326290  46.7412230  71.6292670  92.0731690  47.0806040
  72.9475730  91.7210290  46.4249020  70.4241080  96.5759470  40.1873590
  69.4831220  96.5909700  40.3621280  70.7385150  95.7895430  40.6333890
  60.4022720  98.2579070  33.7477550  61.1685990  98.1460430  34.3102980
  60.4797410  97.5617040  33.0954320  59.0969480  95.6904140  34.4310440
  59.1773070  94.7431650  34.5427840  59.9889230  96.0211020  34.5371100
  56.6240280  97.5119060  49.6666610  57.1279300  96.9326340  50.2382840
  55.8847700  97.7959290  50.2042980  58.6563360  95.6548650  50.5616680
  58.6968700  95.3562520  51.4701910  59.5108860  96.0556260  50.4024200
  62.4341750  98.2544200  35.7220190  62.8558170  98.0884070  36.5651580
  62.5592590  97.4444430  35.2275330  60.5969170  94.2340750  48.5291170
  60.0665630  93.7431700  47.9014510  61.2657240  94.6624950  47.9949100
  64.9469390  97.2781810  32.9697290  65.4675050  96.5630830  32.6038440
  65.5937790  97.9167680  33.2697800  69.9669400  96.0406370  50.2971510
  70.5490170  95.2858690  50.2091990  70.1431170  96.5713810  49.5202990
  61.0841470  91.2003120  48.6088460  60.9898340  90.5823870  47.8839330
  60.5038860  91.9269410  48.3818370  63.8502910  89.7576360  45.6415850
  63.4020210  89.7800620  44.7961400  63.2168110  89.3595380  46.2386150
  66.5926360  96.3846870  47.6466130  66.7122570  95.7888010  48.3860970
  67.4520360  96.4216560  47.2267430  68.9314260  96.9384060  46.2228640
  68.4049480  97.4626680  45.6193780  69.2745600  97.5711450  46.8538370
  61.3300650  94.3277430  32.6678350  61.1289710  93.4644790  33.0291690
  61.1592700  94.2410790  31.7299950  63.3595130  92.9268220  48.9041950
  63.9494820  92.6184070  49.5919770  62.5415370  92.4547970  49.0601850
  68.1788560  92.5434030  49.1374970  67.4904080  91.8815570  49.0724960
  68.8994580  92.0972300  49.5823430  68.8088960  89.1385660  35.1965230
  69.0891250  88.2953560  35.5524650  68.0354690  89.3708770  35.7103980
  60.1283450  91.4278050  32.6556230  60.4309350  91.4345480  31.7475380
  60.8678040  91.0775910  33.1523890  63.3468380  90.3712670  33.6412430
  62.9990380  89.6936660  33.0614880  63.5481150  89.9102180  34.4555820
  56.6874020  96.9000320  40.0376800  56.0322860  96.6311960  39.3936500
  57.5251970  96.7904800  39.5878780  69.6364460  91.6941610  34.2595290
  70.0549340  91.5072590  33.4191950  69.3300520  90.8420660  34.5698220
  73.1354190  96.6065750  37.9571090  72.7597790  95.8393680  37.5252380
  72.4057310  96.9888450  38.4446020  57.7249950  97.2852890  44.5780140
  58.0922990  97.1980290  45.4576160  57.1560770  96.5219440  44.4787000
  72.5253810  95.7537270  47.5910610  72.2939900  95.5250020  46.6908560
  72.7858360  96.6736820  47.5455500  57.2765950  94.1961980  48.4838560
  56.3822000  94.1628740  48.8232270  57.8163500  94.3948770  49.2489810
  70.9641880  90.9793700  50.3690310  71.8412060  90.9877100  50.7524310
  70.9762720  90.2424540  49.7582660  55.9012100  94.1099250  35.9802130
  54.9976180  94.3729450  35.8053790  56.3852720  94.3810420  35.2002090
  72.4105150  94.8323240  41.2578330  72.9342630  94.3385890  40.6268500
  72.9964570  94.9673600  42.0025900  72.5894870  94.9163110  44.7797880
  71.6397580  94.8826650  44.8942870  72.7707880  95.8263220  44.5447650
  58.4439310  93.1664790  33.8896510  59.1531010  92.7448010  33.4043790
  57.7279250  93.2340020  33.2579860  58.0913470  89.2204120  32.9299160
  58.8141600  89.7613060  33.2480380  58.3637990  88.9467540  32.0540700
  71.9005120  94.0896590  37.1970740  72.3964240  93.8567460  37.9819620
  71.7021190  93.2508430  36.7808380  57.7805660  88.4710310  42.8321780
  58.4281850  87.9207690  42.3916940  58.2007500  88.7253460  43.6537590
  73.3292280  92.7257540  39.7308420  73.2191560  92.5713580  40.6690690
  74.0899870  92.1978480  39.4883830  71.6758000  88.6651670  46.1891420
  72.3130220  89.2785810  46.5550610  71.8232890  88.7012330  45.2440650
  74.2182550  90.5565460  32.9714560  75.1431860  90.4246640  32.7632850
  74.1958340  90.6358280  33.9251010  74.2921040  91.3276120  35.5971270
  73.4972540  91.2621240  36.1264180  74.4964320  92.2626760  35.5856620
  57.5337660  88.6265980  45.5747100  57.1852480  89.0829800  46.3405280
  57.2025360  87.7323110  45.6569530  65.0462480  89.8177860  49.0966520
  64.9851370  90.4099690  49.8461930  65.9862860  89.7103820  48.9516780
  67.6837040  89.4747920  48.7358810  68.2977450  89.7927210  48.0739890
  68.2286600  88.9896510  49.3554670  58.2058300  88.1542180  48.8497870
  58.7541290  87.9730230  48.0863980  58.2713610  87.3636290  49.3854180
  68.4245080  88.0380060  45.0628100  67.5504920  88.3715170  44.8601030
  68.3155830  87.5653240  45.8879970  69.3317060  90.2450930  46.4469820
  69.0030420  89.4302690  46.0671550  70.2799360  90.2020740  46.3235510
  66.1719900  88.9549900  44.0021010  65.3891690  89.4295400  44.2817770
  65.8782830  88.0504730  43.8934190  70.7240970  89.6573000  42.0470100
  71.1649060  89.6018100  41.1991700  70.4548560  90.5731010  42.1180280
  72.5879540  89.2888240  40.0578920  72.5267940  88.3449460  39.9109940
  73.3671570  89.3968330  40.6032380  57.5160310  89.2597380  36.5234730
  58.2739670  89.3726260  35.9498760  57.0537480  90.0966580  36.4778160
  64.0574120  91.3736650  39.5137040  63.2448630  90.9993540  39.1732920
  64.5615760  90.6181730  39.8158230  68.5599100  88.0379100  40.7520110
  69.1628470  88.6099310  41.2268630  67.8192090  88.6018540  40.5294010
  71.7033700  88.4400660  36.0260390  71.8984330  89.3384110  36.2927820
  70.9163570  88.2087740  36.5193340  59.8885460  89.7861430  35.0636700
  60.4178220  88.9991230  34.9344650  60.5213780  90.4652620  35.2972230
  62.0823300  89.5236570  38.1182090  61.4526040  88.8223880  38.2852220
  61.5428440  90.2840700  37.9015250  62.2078860  88.8020550  50.5534580
  61.9263130  89.3054150  49.7895400  62.5898560  88.0042300  50.1876710
  68.8094320  88.2174130  51.1315050  68.6959770  88.5368740  52.0266570
  69.6264060  88.6186640  50.8352330  67.7152470  96.2366600  21.4949790
  67.6346520  95.3221210  21.2241500  67.3016890  96.7333670  20.7889500
  65.8470510  98.0145620  23.3759060  65.0712610  97.5346060  23.6657630
  66.4983440  97.3351270  23.2015220  59.8636340  98.3265430  24.2534820
  59.0321220  98.0714140  24.6531330  60.4717320  98.3976200  24.9892740
  58.2728290  93.2867320  18.0377210  57.3844990  93.6283290  17.9357090
  58.5569480  93.0867640  17.1458040  56.2361300  95.8872970  23.9216910
  56.8077410  95.1195170  23.9220550  56.2362840  96.1861730  23.0123520
  57.4786170  91.2957330  25.7085840  57.2989010  90.3983080  25.9888600
  57.0766250  91.8429200  26.3832790  66.3184670  93.4973190  23.6098150
  66.6949490  92.6245070  23.4971820  66.2204180  93.8331890  22.7188590
  60.4489680  91.8698820  19.0715590  60.5556430  92.7702550  19.3784350
  59.5382040  91.8216790  18.7810240  70.1008790  90.9923630  20.5426490
  70.9218410  90.5020200  20.5851970  70.1342870  91.5821290  21.2958330
  58.0972840  93.7917830  24.3168180  58.7782950  94.0556200  24.9355580
  57.7820890  92.9518700  24.6506190  62.2897410  94.8385190  23.4040770
  62.7975630  95.3366160  24.0445790  62.8210650  94.0620390  23.2280130
  74.3908340  93.0090380  27.1070120  73.6860510  93.3972090  26.5885230
  74.6566260  93.7040670  27.7091050  60.5733510  89.4783750  27.6704190
  60.5751950  89.9956140  26.8650090  59.7437820  89.0013930  27.6474120
  70.3370270  92.9324010  23.3154030  69.6325840  93.2208900  23.8957140
  70.6982430  93.7424120  22.9553590  60.2548840  91.1893710  25.6774640
  60.5965650  92.0335760  25.3828510  59.3164650  91.3377450  25.7939980
  73.4057190  92.3778800  23.7063240  72.4582100  92.4117780  23.8378670
  73.7307180  93.1917750  24.0912600  63.9376730  88.6775980  22.0019230
  64.2451710  88.1222870  21.2854730  63.0077430  88.8120440  21.8192220
  66.3257490  96.7424810  18.7379350  65.3986770  96.6762190  18.9667820
  66.4782310  97.6804940  18.6234590  66.3126570  93.0141810  15.7346510
  65.3730240  93.1755770  15.8198970  66.6309830  93.7327490  15.1882500
  72.8339330  97.6960330  25.7125540  72.0057960  97.7653420  25.2375670
  73.4289810  98.2814640  25.2441370  70.3554780  98.3045110  19.2414600
  69.7367200  97.9664660  18.5940900  70.3379230  97.6604870  19.9493790
  69.7981340  94.4829650  26.6580410  69.3852520  95.3083360  26.9120400
  69.0657290  93.8974690  26.4656770  61.9314130  97.2689550  21.5199080
  61.5271130  96.5566800  21.0244980  62.0177250  96.9242790  22.4087120
  60.6442750  94.0432760  25.2998120  61.1957340  94.1528100  24.5251370
  61.1586260  94.4170360  26.0153350  68.5319480  97.5431920  16.2487350
  68.9712760  96.7054350  16.1025170  69.2447900  98.1761320  16.3351490
  60.3185480  97.5652120  28.9103460  60.1793250  98.4374920  29.2790860
  59.4366840  97.2224930  28.7651400  72.1136620  88.7974730  14.5628390
  71.8009280  88.8901560  15.4627460  72.8749090  89.3755760  14.5125820
  58.6318760  96.1634530  19.0205730  58.5116360  96.8896620  18.4087000
  58.3219650  95.3937440  18.5433640  73.3237910  93.5346230  30.5402530
  72.7082180  94.0425900  30.0117990  73.0034330  92.6344560  30.4828470
  61.0982420  89.5069600  22.4029400  60.6550570  90.2879140  22.0713920
  61.6567410  89.8299490  23.1100340  65.3852230  92.3738120  28.0064720
  64.9231600  92.5821140  28.8184660  64.9830340  91.5597470  27.7035390
  70.3856740  93.5947070  29.1361380  69.5350330  93.2952820  29.4570450
  70.2258530  93.8389080  28.2245200  67.4806450  95.0948820  31.2360170
  67.8059860  94.2612570  30.8962400  68.2686780  95.6177340  31.3838500
  64.2141240  89.1280300  17.2835230  63.5895420  89.1240170  18.0088540
  64.1271360  88.2611260  16.8871200  63.1358320  90.0516930  24.2619000
  63.4330650  90.9579760  24.1811020  63.6843880  89.5635710  23.6478570
  60.8896640  94.6303170  20.1310650  60.6637560  94.4140340  21.0357270
  60.1089170  95.0631630  19.7856620  68.1194400  94.6366540  18.7301300
  67.5203290  95.3602340  18.5464920  68.6674010  94.5743320  17.9477750
  63.3295850  95.5288750  30.7970920  63.2339450  94.5883480  30.6471320
  64.1727830  95.7503820  30.4018990  66.7259270  93.2730080  20.7604580
  67.1188840  93.5902280  19.9473270  67.0876120  92.3941960  20.8749100
  58.4606390  91.9402420  28.9504700  58.0669780  92.7877630  29.1577480
  57.7724790  91.3028790  29.1413340  65.0351440  92.0237390  32.0201440
  64.3449760  91.8309590  32.6547530  65.7783740  92.3072030  32.5525740
  55.7623440  89.8630880  22.9834780  55.4736490  90.4333740  23.6959760
  56.5069200  89.3835330  23.3466010  55.9493670  93.8051000  14.1937500
  55.8668340  94.7481760  14.3352490  55.5976730  93.6625910  13.3149850
  67.3114410  95.8635830  24.8555360  66.5795530  96.3722640  25.2045460
  66.9138750  95.0465810  24.5544140  63.7491800  92.5390030  23.2607850
  63.7527860  92.0979980  22.4112390  64.6442920  92.8607360  23.3679670
  59.5994180  92.4216520  22.2202060  59.2594230  92.8991750  22.9769110
  58.8371500  91.9681640  21.8603160  63.8111950  93.5402110  16.2514610
  63.9324770  93.4988590  17.2000430  63.4260460  94.4026260  16.0961340
  67.7740320  91.3169510  24.2678300  67.7913060  91.7678160  25.1120150
  67.5255900  90.4175150  24.4811740  62.8233450  95.8503250  15.6497910
  62.2550350  95.4021500  15.0233820  63.5322450  96.2096030  15.1163060
  71.2011070  88.7301690  30.1064680  71.5256840  87.9991350  30.6322660
  71.2367580  88.4115330  29.2045670  64.0499770  96.5991810  25.0073260
  64.4169900  96.1250380  25.7534600  63.8604830  97.4733380  25.3481600
  56.9140260  91.3435500  21.1366730  56.6287180  90.9791170  21.9745350
  56.8519120  90.6115960  20.5229870  61.8399140  95.6400450  27.3257470
  61.5356210  96.5192430  27.5507830  62.7945600  95.7000240  27.3614910
  66.5878850  90.2364760  17.8580100  65.7743460  89.7377930  17.7825410
  66.3940800  91.0763010  17.4416450  69.3027240  94.6084410  16.1542260
  70.1906860  94.9201640  15.9793600  69.2732330  93.7356660  15.7622840
  57.8962870  96.4803190  28.4728830  57.5377810  97.1457040  29.0602170
  57.6017430  95.6486740  28.8441450  61.0975990  96.9387430  31.3568380
  60.7976130  97.0844610  30.4596200  61.8687230  96.3792720  31.2641770
  71.5741510  95.9196250  15.6222120  71.4905230  96.3510470  14.7718560
  72.2935700  96.3794600  16.0548940  56.4070920  96.4794450  15.0963430
  57.2765770  96.7619250  15.3799350  55.9161240  97.2930320  14.9812240
  63.5705730  97.8667660  19.2171710  64.0268510  98.6772910  19.4431900
  63.2193940  97.5490800  20.0490200  59.4717510  88.2105310  19.6894230
  59.3432140  88.2023210  20.6379150  58.6479530  88.5488400  19.3385240
  56.4711440  89.9696430  29.1500930  55.7569960  90.1693350  29.7553540
  56.8906480  89.1936000  29.5215730  67.9650220  92.4618740  26.9002380
  68.3331040  91.6413950  27.2281950  67.1048420  92.5220630  27.3158030
  71.3312250  91.4175680  17.7089940  70.7025410  91.5221350  16.9948170
  70.8364170  91.6372460  18.4983820  63.2996280  93.6961630  19.1247820
  62.5912430  94.1647970  19.5661430  63.5840760  93.0383640  19.7593010
  64.9252210  95.1158330  27.1240350  65.4237460  95.5904150  27.7892200
  65.0675160  94.1921850  27.3310380  67.3311710  90.4212290  20.5643610
  67.2079490  90.4398420  19.6153120  68.2796270  90.4691230  20.6842010
  61.5031300  92.0046710  16.4998530  62.3521830  92.4416860  16.4338720
  61.1362570  92.3166970  17.3270590  72.1319070  91.3326290  27.9668740
  71.6292670  92.0731690  28.3062550  72.9475730  91.7210290  27.6505530
  70.4241080  96.5759470  21.4130100  69.4831220  96.5909700  21.5877790
  70.7385150  95.7895430  21.8590400  60.4022720  98.2579070  14.9734060
  61.1685990  98.1460430  15.5359490  60.4797410  97.5617040  14.3210830
  59.0969480  95.6904140  15.6566950  59.1773070  94.7431650  15.7684350
  59.9889230  96.0211020  15.7627610  56.6240280  97.5119060  30.8923120
  57.1279300  96.9326340  31.4639350  55.8847700  97.7959290  31.4299490
  58.6563360  95.6548650  31.7873190  58.6968700  95.3562520  32.6958420
  59.5108860  96.0556260  31.6280710  62.4341750  98.2544200  16.9476700
  62.8558170  98.0884070  17.7908090  62.5592590  97.4444430  16.4531840
  60.5969170  94.2340750  29.7547680  60.0665630  93.7431700  29.1271020
  61.2657240  94.6624950  29.2205610  64.9469390  97.2781810  14.1953800
  65.4675050  96.5630830  13.8294950  65.5937790  97.9167680  14.4954310
  69.9669400  96.0406370  31.5228020  70.5490170  95.2858690  31.4348500
  70.1431170  96.5713810  30.7459500  61.0841470  91.2003120  29.8344970
  60.9898340  90.5823870  29.1095840  60.5038860  91.9269410  29.6074880
  63.8502910  89.7576360  26.8672360  63.4020210  89.7800620  26.0217910
  63.2168110  89.3595380  27.4642660  66.5926360  96.3846870  28.8722640
  66.7122570  95.7888010  29.6117480  67.4520360  96.4216560  28.4523940
  68.9314260  96.9384060  27.4485150  68.4049480  97.4626680  26.8450290
  69.2745600  97.5711450  28.0794880  61.3300650  94.3277430  13.8934860
  61.1289710  93.4644790  14.2548200  61.1592700  94.2410790  12.9556460
  63.3595130  92.9268220  30.1298460  63.9494820  92.6184070  30.8176280
  62.5415370  92.4547970  30.2858360  68.1788560  92.5434030  30.3631480
  67.4904080  91.8815570  30.2981470  68.8994580  92.0972300  30.8079940
  68.8088960  89.1385660  16.4221740  69.0891250  88.2953560  16.7781160
  68.0354690  89.3708770  16.9360490  60.1283450  91.4278050  13.8812740
  60.4309350  91.4345480  12.9731890  60.8678040  91.0775910  14.3780400
  63.3468380  90.3712670  14.8668940  62.9990380  89.6936660  14.2871390
  63.5481150  89.9102180  15.6812330  56.6874020  96.9000320  21.2633310
  56.0322860  96.6311960  20.6193010  57.5251970  96.7904800  20.8135290
  69.6364460  91.6941610  15.4851800  70.0549340  91.5072590  14.6448460
  69.3300520  90.8420660  15.7954730  73.1354190  96.6065750  19.1827600
  72.7597790  95.8393680  18.7508890  72.4057310  96.9888450  19.6702530
  57.7249950  97.2852890  25.8036650  58.0922990  97.1980290  26.6832670
  57.1560770  96.5219440  25.7043510  72.5253810  95.7537270  28.8167120
  72.2939900  95.5250020  27.9165070  72.7858360  96.6736820  28.7712010
  57.2765950  94.1961980  29.7095070  56.3822000  94.1628740  30.0488780
  57.8163500  94.3948770  30.4746320  70.9641880  90.9793700  31.5946820
  71.8412060  90.9877100  31.9780820  70.9762720  90.2424540  30.9839170
  55.9012100  94.1099250  17.2058640  54.9976180  94.3729450  17.0310300
  56.3852720  94.3810420  16.4258600  72.4105150  94.8323240  22.4834840
  72.9342630  94.3385890  21.8525010  72.9964570  94.9673600  23.2282410
  72.5894870  94.9163110  26.0054390  71.6397580  94.8826650  26.1199380
  72.7707880  95.8263220  25.7704160  58.4439310  93.1664790  15.1153020
  59.1531010  92.7448010  14.6300300  57.7279250  93.2340020  14.4836370
  58.0913470  89.2204120  14.1555670  58.8141600  89.7613060  14.4736890
  58.3637990  88.9467540  13.2797210  71.9005120  94.0896590  18.4227250
  72.3964240  93.8567460  19.2076130  71.7021190  93.2508430  18.0064890
  57.7805660  88.4710310  24.0578290  58.4281850  87.9207690  23.6173450
  58.2007500  88.7253460  24.8794100  73.3292280  92.7257540  20.9564930
  73.2191560  92.5713580  21.8947200  74.0899870  92.1978480  20.7140340
  71.6758000  88.6651670  27.4147930  72.3130220  89.2785810  27.7807120
  71.8232890  88.7012330  26.4697160  74.2182550  90.5565460  14.1971070
  75.1431860  90.4246640  13.9889360  74.1958340  90.6358280  15.1507520
  74.2921040  91.3276120  16.8227780  73.4972540  91.2621240  17.3520690
  74.4964320  92.2626760  16.8113130  57.5337660  88.6265980  26.8003610
  57.1852480  89.0829800  27.5661790  57.2025360  87.7323110  26.8826040
  65.0462480  89.8177860  30.3223030  64.9851370  90.4099690  31.0718440
  65.9862860  89.7103820  30.1773290  67.6837040  89.4747920  29.9615320
  68.2977450  89.7927210  29.2996400  68.2286600  88.9896510  30.5811180
  58.2058300  88.1542180  30.0754380  58.7541290  87.9730230  29.3120490
  58.2713610  87.3636290  30.6110690  68.4245080  88.0380060  26.2884610
  67.5504920  88.3715170  26.0857540  68.3155830  87.5653240  27.1136480
  69.3317060  90.2450930  27.6726330  69.0030420  89.4302690  27.2928060
  70.2799360  90.2020740  27.5492020  66.1719900  88.9549900  25.2277520
  65.3891690  89.4295400  25.5074280  65.8782830  88.0504730  25.1190700
  70.7240970  89.6573000  23.2726610  71.1649060  89.6018100  22.4248210
  70.4548560  90.5731010  23.3436790  72.5879540  89.2888240  21.2835430
  72.5267940  88.3449460  21.1366450  73.3671570  89.3968330  21.8288890
  57.5160310  89.2597380  17.7491240  58.2739670  89.3726260  17.1755270
  57.0537480  90.0966580  17.7034670  64.0574120  91.3736650  20.7393550
  63.2448630  90.9993540  20.3989430  64.5615760  90.6181730  21.0414740
  68.5599100  88.0379100  21.9776620  69.1628470  88.6099310  22.4525140
  67.8192090  88.6018540  21.7550520  71.7033700  88.4400660  17.2516900
  71.8984330  89.3384110  17.5184330  70.9163570  88.2087740  17.7449850
  59.8885460  89.7861430  16.2893210  60.4178220  88.9991230  16.1601160
  60.5213780  90.4652620  16.5228740  62.0823300  89.5236570  19.3438600
  61.4526040  88.8223880  19.5108730  61.5428440  90.2840700  19.1271760
  62.2078860  88.8020550  31.7791090  61.9263130  89.3054150  31.0151910
  62.5898560  88.0042300  31.4133220  68.8094320  88.2174130  32.3571560
  68.6959770  88.5368740  33.2523080  69.6264060  88.6186640  32.0608840
  67.7152470  96.2366600   2.7206300  67.6346520  95.3221210   2.4498010
  67.3016890  96.7333670   2.0146010  65.8470510  98.0145620   4.6015570
  65.0712610  97.5346060   4.8914140  66.4983440  97.3351270   4.4271730
  59.8636340  98.3265430   5.4791330  59.0321220  98.0714140   5.8787840
  60.4717320  98.3976200   6.2149250  56.2361300  95.8872970   5.1473420
  56.8077410  95.1195170   5.1477060  56.2362840  96.1861730   4.2380030
  57.4786170  91.2957330   6.9342350  57.2989010  90.3983080   7.2145110
  57.0766250  91.8429200   7.6089300  66.3184670  93.4973190   4.8354660
  66.6949490  92.6245070   4.7228330  66.2204180  93.8331890   3.9445100
  70.1008790  90.9923630   1.7683000  70.9218410  90.5020200   1.8108480
  70.1342870  91.5821290   2.5214840  58.0972840  93.7917830   5.5424690
  58.7782950  94.0556200   6.1612090  57.7820890  92.9518700   5.8762700
  62.2897410  94.8385190   4.6297280  62.7975630  95.3366160   5.2702300
  62.8210650  94.0620390   4.4536640  74.3908340  93.0090380   8.3326630
  73.6860510  93.3972090   7.8141740  74.6566260  93.7040670   8.9347560
  60.5733510  89.4783750   8.8960700  60.5751950  89.9956140   8.0906600
  59.7437820  89.0013930   8.8730630  70.3370270  92.9324010   4.5410540
  69.6325840  93.2208900   5.1213650  70.6982430  93.7424120   4.1810100
  60.2548840  91.1893710   6.9031150  60.5965650  92.0335760   6.6085020
  59.3164650  91.3377450   7.0196490  73.4057190  92.3778800   4.9319750
  72.4582100  92.4117780   5.0635180  73.7307180  93.1917750   5.3169110
  63.9376730  88.6775980   3.2275740  64.2451710  88.1222870   2.5111240
  63.0077430  88.8120440   3.0448730  72.8339330  97.6960330   6.9382050
  72.0057960  97.7653420   6.4632180  73.4289810  98.2814640   6.4697880
  69.7981340  94.4829650   7.8836920  69.3852520  95.3083360   8.1376910
  69.0657290  93.8974690   7.6913280  61.9314130  97.2689550   2.7455590
  61.5271130  96.5566800   2.2501490  62.0177250  96.9242790   3.6343630
  60.6442750  94.0432760   6.5254630  61.1957340  94.1528100   5.7507880
  61.1586260  94.4170360   7.2409860  60.3185480  97.5652120  10.1359970
  60.1793250  98.4374920  10.5047370  59.4366840  97.2224930   9.9907910
  73.3237910  93.5346230  11.7659040  72.7082180  94.0425900  11.2374500
  73.0034330  92.6344560  11.7084980  61.0982420  89.5069600   3.6285910
  60.6550570  90.2879140   3.2970430  61.6567410  89.8299490   4.3356850
  65.3852230  92.3738120   9.2321230  64.9231600  92.5821140  10.0441170
  64.9830340  91.5597470   8.9291900  70.3856740  93.5947070  10.3617890
  69.5350330  93.2952820  10.6826960  70.2258530  93.8389080   9.4501710
  67.4806450  95.0948820  12.4616680  67.8059860  94.2612570  12.1218910
  68.2686780  95.6177340  12.6095010  63.1358320  90.0516930   5.4875510
  63.4330650  90.9579760   5.4067530  63.6843880  89.5635710   4.8735080
  63.3295850  95.5288750  12.0227430  63.2339450  94.5883480  11.8727830
  64.1727830  95.7503820  11.6275500  58.4606390  91.9402420  10.1761210
  58.0669780  92.7877630  10.3833990  57.7724790  91.3028790  10.3669850
  65.0351440  92.0237390  13.2457950  64.3449760  91.8309590  13.8804040
  65.7783740  92.3072030  13.7782250  55.7623440  89.8630880   4.2091290
  55.4736490  90.4333740   4.9216270  56.5069200  89.3835330   4.5722520
  67.3114410  95.8635830   6.0811870  66.5795530  96.3722640   6.4301970
  66.9138750  95.0465810   5.7800650  63.7491800  92.5390030   4.4864360
  63.7527860  92.0979980   3.6368900  64.6442920  92.8607360   4.5936180
  59.5994180  92.4216520   3.4458570  59.2594230  92.8991750   4.2025620
  58.8371500  91.9681640   3.0859670  67.7740320  91.3169510   5.4934810
  67.7913060  91.7678160   6.3376660  67.5255900  90.4175150   5.7068250
  71.2011070  88.7301690  11.3321190  71.5256840  87.9991350  11.8579170
  71.2367580  88.4115330  10.4302180  64.0499770  96.5991810   6.2329770
  64.4169900  96.1250380   6.9791110  63.8604830  97.4733380   6.5738110
  56.9140260  91.3435500   2.3623240  56.6287180  90.9791170   3.2001860
  56.8519120  90.6115960   1.7486380  61.8399140  95.6400450   8.5513980
  61.5356210  96.5192430   8.7764340  62.7945600  95.7000240   8.5871420
  57.8962870  96.4803190   9.6985340  57.5377810  97.1457040  10.2858680
  57.6017430  95.6486740  10.0697960  61.0975990  96.9387430  12.5824890
  60.7976130  97.0844610  11.6852710  61.8687230  96.3792720  12.4898280
  56.4711440  89.9696430  10.3757440  55.7569960  90.1693350  10.9810050
  56.8906480  89.1936000  10.7472240  67.9650220  92.4618740   8.1258890
  68.3331040  91.6413950   8.4538460  67.1048420  92.5220630   8.5414540
  64.9252210  95.1158330   8.3496860  65.4237460  95.5904150   9.0148710
  65.0675160  94.1921850   8.5566890  72.1319070  91.3326290   9.1925250
  71.6292670  92.0731690   9.5319060  72.9475730  91.7210290   8.8762040
  70.4241080  96.5759470   2.6386610  69.4831220  96.5909700   2.8134300
  70.7385150  95.7895430   3.0846910  56.6240280  97.5119060  12.1179630
  57.1279300  96.9326340  12.6895860  55.8847700  97.7959290  12.6556000
  58.6563360  95.6548650  13.0129700  58.6968700  95.3562520  13.9214930
  59.5108860  96.0556260  12.8537220  60.5969170  94.2340750  10.9804190
  60.0665630  93.7431700  10.3527530  61.2657240  94.6624950  10.4462120
  69.9669400  96.0406370  12.7484530  70.5490170  95.2858690  12.6605010
  70.1431170  96.5713810  11.9716010  61.0841470  91.2003120  11.0601480
  60.9898340  90.5823870  10.3352350  60.5038860  91.9269410  10.8331390
  63.8502910  89.7576360   8.0928870  63.4020210  89.7800620   7.2474420
  63.2168110  89.3595380   8.6899170  66.5926360  96.3846870  10.0979150
  66.7122570  95.7888010  10.8373990  67.4520360  96.4216560   9.6780450
  68.9314260  96.9384060   8.6741660  68.4049480  97.4626680   8.0706800
  69.2745600  97.5711450   9.3051390  63.3595130  92.9268220  11.3554970
  63.9494820  92.6184070  12.0432790  62.5415370  92.4547970  11.5114870
  68.1788560  92.5434030  11.5887990  67.4904080  91.8815570  11.5237980
  68.8994580  92.0972300  12.0336450  56.6874020  96.9000320   2.4889820
  56.0322860  96.6311960   1.8449520  57.5251970  96.7904800   2.0391800
  57.7249950  97.2852890   7.0293160  58.0922990  97.1980290   7.9089180
  57.1560770  96.5219440   6.9300020  72.5253810  95.7537270  10.0423630
  72.2939900  95.5250020   9.1421580  72.7858360  96.6736820   9.9968520
  57.2765950  94.1961980  10.9351580  56.3822000  94.1628740  11.2745290
  57.8163500  94.3948770  11.7002830  70.9641880  90.9793700  12.8203330
  71.8412060  90.9877100  13.2037330  70.9762720  90.2424540  12.2095680
  72.4105150  94.8323240   3.7091350  72.9342630  94.3385890   3.0781520
  72.9964570  94.9673600   4.4538920  72.5894870  94.9163110   7.2310900
  71.6397580  94.8826650   7.3455890  72.7707880  95.8263220   6.9960670
  57.7805660  88.4710310   5.2834800  58.4281850  87.9207690   4.8429960
  58.2007500  88.7253460   6.1050610  73.3292280  92.7257540   2.1821440
  73.2191560  92.5713580   3.1203710  74.0899870  92.1978480   1.9396850
  71.6758000  88.6651670   8.6404440  72.3130220  89.2785810   9.0063630
  71.8232890  88.7012330   7.6953670  57.5337660  88.6265980   8.0260120
  57.1852480  89.0829800   8.7918300  57.2025360  87.7323110   8.1082550
  65.0462480  89.8177860  11.5479540  64.9851370  90.4099690  12.2974950
  65.9862860  89.7103820  11.4029800  67.6837040  89.4747920  11.1871830
  68.2977450  89.7927210  10.5252910  68.2286600  88.9896510  11.8067690
  58.2058300  88.1542180  11.3010890  58.7541290  87.9730230  10.5377000
  58.2713610  87.3636290  11.8367200  68.4245080  88.0380060   7.5141120
  67.5504920  88.3715170   7.3114050  68.3155830  87.5653240   8.3392990
  69.3317060  90.2450930   8.8982840  69.0030420  89.4302690   8.5184570
  70.2799360  90.2020740   8.7748530  66.1719900  88.9549900   6.4534030
  65.3891690  89.4295400   6.7330790  65.8782830  88.0504730   6.3447210
  70.7240970  89.6573000   4.4983120  71.1649060  89.6018100   3.6504720
  70.4548560  90.5731010   4.5693300  72.5879540  89.2888240   2.5091940
  72.5267940  88.3449460   2.3622960  73.3671570  89.3968330   3.0545400
  64.0574120  91.3736650   1.9650060  63.2448630  90.9993540   1.6245940
  64.5615760  90.6181730   2.2671250  68.5599100  88.0379100   3.2033130
  69.1628470  88.6099310   3.6781650  67.8192090  88.6018540   2.9807030
  62.2078860  88.8020550  13.0047600  61.9263130  89.3054150  12.2408420
  62.5898560  88.0042300  12.6389730  68.8094320  88.2174130  13.5828070
  68.6959770  88.5368740  14.4779590  69.6264060  88.6186640  13.2865350
  67.7152470  77.4623110  59.0436770  67.6346520  76.5477720  58.7728480
  67.3016890  77.9590180  58.3376480  65.8470510  79.2402130  60.9246040
  65.0712610  78.7602570  61.2144610  66.4983440  78.5607780  60.7502200
  59.8636340  79.5521940  61.8021800  59.0321220  79.2970650  62.2018310
  60.4717320  79.6232710  62.5379720  69.8677940  83.6462320  59.7045170
  69.4059470  82.8749560  60.0332340  70.6803490  83.6728390  60.2097620
  59.8437600  83.5862030  61.9979820  60.1465640  82.6959770  61.8190040
  60.5881190  84.1432250  61.7702070  58.2728290  74.5123830  55.5864190
  57.3844990  74.8539800  55.4844070  58.5569480  74.3124150  54.6945020
  56.2361300  77.1129480  61.4703890  56.8077410  76.3451680  61.4707530
  56.2362840  77.4118240  60.5610500  66.0941250  85.9320330  59.3249160
  65.4752690  86.3877830  58.7543600  66.9493030  86.0871790  58.9238860
  65.2879500  81.9159320  60.9316200  65.2187780  80.9749260  60.7705330
  66.0499360  82.0060730  61.5038770  66.3184670  74.7229700  61.1585130
  66.6949490  73.8501580  61.0458800  66.2204180  75.0588400  60.2675570
  60.4489680  73.0955330  56.6202570  60.5556430  73.9959060  56.9271330
  59.5382040  73.0473300  56.3297220  70.1008790  72.2180140  58.0913470
  70.9218410  71.7276710  58.1338950  70.1342870  72.8077800  58.8445310
  58.0972840  75.0174340  61.8655160  58.7782950  75.2812710  62.4842560
  57.7820890  74.1775210  62.1993170  62.2897410  76.0641700  60.9527750
  62.7975630  76.5622670  61.5932770  62.8210650  75.2876900  60.7767110
  66.9604600  80.8159570  56.7181070  66.3421870  81.2809020  56.1543790
  67.4727850  81.5087050  57.1350580  70.3370270  74.1580520  60.8641010
  69.6325840  74.4465410  61.4444120  70.6982430  74.9680630  60.5040570
  60.2548840  72.4150220  63.2261620  60.5965650  73.2592270  62.9315490
  59.3164650  72.5633960  63.3426960  56.3287800  81.5016100  54.0920700
  55.9515780  81.9903200  53.3605600  56.5860870  82.1741380  54.7227230
  71.9533050  83.7755650  63.1268490  71.2696570  84.4454760  63.1185160
  72.4927340  83.9736300  62.3613350  73.4057190  73.6035310  61.2550220
  72.4582100  73.6374290  61.3865650  73.7307180  74.4174260  61.6399580
  63.9376730  69.9032490  59.5506210  64.2451710  69.3479380  58.8341710
  63.0077430  70.0376950  59.3679200  69.4891790  85.6199780  61.8413670
  69.5018950  85.2162070  60.9735930  68.9367010  86.3947070  61.7375100
  70.7837210  82.3416000  56.9303840  70.6733540  81.3990330  57.0553260
  70.7805460  82.7031640  57.8166600  66.3257490  77.9681320  56.2866330
  65.3986770  77.9018700  56.5154800  66.4782310  78.9061450  56.1721570
  66.3126570  74.2398320  53.2833490  65.3730240  74.4012280  53.3685950
  66.6309830  74.9584000  52.7369480  72.8339330  78.9216840  63.2612520
  72.0057960  78.9909930  62.7862650  73.4289810  79.5071150  62.7928350
  70.3554780  79.5301620  56.7901580  69.7367200  79.1921170  56.1427880
  70.3379230  78.8861380  57.4980770  61.9314130  78.4946060  59.0686060
  61.5271130  77.7823310  58.5731960  62.0177250  78.1499300  59.9574100
  62.3995830  82.1813620  61.2325270  62.1024120  81.5759090  60.5533050
  63.3495650  82.2190930  61.1214630  68.5319480  78.7688430  53.7974330
  68.9712760  77.9310860  53.6512150  69.2447900  79.4017830  53.8838470
  66.6414860  83.7084500  57.7655570  67.0810770  84.4508830  57.3510960
  66.5801750  83.9511070  58.6894530  72.1136620  70.0231240  52.1115370
  71.8009280  70.1158070  53.0114440  72.8749090  70.6012270  52.0612800
  58.6318760  77.3891040  56.5692710  58.5116360  78.1153130  55.9573980
  58.3219650  76.6193950  56.0920620  56.2704130  80.5606180  62.3761350
  56.3484550  80.6954950  61.4317070  56.8845810  79.8522070  62.5689470
  57.5151760  82.2606370  58.7867530  57.1079840  82.4020960  57.9321130
  58.4064770  81.9766530  58.5838740  69.3085040  86.6953620  55.1218580
  69.1486180  86.4056560  56.0200410  69.1431750  85.9193750  54.5863810
  61.7873420  86.4752150  56.8990200  61.6115900  85.5587690  56.6858000
  60.9329160  86.8339440  57.1388000  69.0111170  84.2041180  53.6816580
  68.3176330  84.2018470  53.0218860  69.7534030  83.7800500  53.2510750
  68.5761100  85.8303890  57.7565070  69.0318050  85.0493270  58.0703690
  68.9153620  86.5410710  58.3006250  61.0982420  70.7326110  59.9516380
  60.6550570  71.5135650  59.6200900  61.6567410  71.0556000  60.6587320
  64.2141240  70.3536810  54.8322210  63.5895420  70.3496680  55.5575520
  64.1271360  69.4867770  54.4358180  63.1358320  71.2773440  61.8105980
  63.4330650  72.1836270  61.7298000  63.6843880  70.7892220  61.1965550
  60.8896640  75.8559680  57.6797630  60.6637560  75.6396850  58.5844250
  60.1089170  76.2888140  57.3343600  68.1194400  75.8623050  56.2788280
  67.5203290  76.5858850  56.0951900  68.6674010  75.7999830  55.4964730
  66.7259270  74.4986590  58.3091560  67.1188840  74.8158790  57.4960250
  67.0876120  73.6198470  58.4236080  55.7623440  71.0887390  60.5321760
  55.4736490  71.6590250  61.2446740  56.5069200  70.6091840  60.8952990
  55.9493670  75.0307510  51.7424480  55.8668340  75.9738270  51.8839470
  55.5976730  74.8882420  50.8636830  67.3114410  77.0892340  62.4042340
  66.5795530  77.5979150  62.7532440  66.9138750  76.2722320  62.1031120
  63.7491800  73.7646540  60.8094830  63.7527860  73.3236490  59.9599370
  64.6442920  74.0863870  60.9166650  59.5994180  73.6473030  59.7689040
  59.2594230  74.1248260  60.5256090  58.8371500  73.1938150  59.4090140
  63.8111950  74.7658620  53.8001590  63.9324770  74.7245100  54.7487410
  63.4260460  75.6282770  53.6448320  67.7740320  72.5426020  61.8165280
  67.7913060  72.9934670  62.6607130  67.5255900  71.6431660  62.0298720
  62.8233450  77.0759760  53.1984890  62.2550350  76.6278010  52.5720800
  63.5322450  77.4352540  52.6650040  64.0499770  77.8248320  62.5560240
  64.4169900  77.3506890  63.3021580  63.8604830  78.6989890  62.8968580
  56.9140260  72.5692010  58.6853710  56.6287180  72.2047680  59.5232330
  56.8519120  71.8372470  58.0716850  60.3680930  81.0717950  55.4711300
  59.5943190  80.5315570  55.3110020  61.0975560  80.5524560  55.1329060
  71.1268910  80.0683310  61.2637690  71.8468030  80.5638600  60.8733800
  70.9250730  79.3901200  60.6191560  66.5878850  71.4621270  55.4067080
  65.7743460  70.9634440  55.3312390  66.3940800  72.3019520  54.9903430
  69.3027240  75.8340920  53.7029240  70.1906860  76.1458150  53.5280580
  69.2732330  74.9613170  53.3109820  60.4118330  80.7398330  59.1090110
  60.9297000  79.9366590  59.0547000  59.9602350  80.6777470  59.9506940
  65.2987830  82.0064610  54.3817410  65.6403530  82.7506840  53.8860730
  64.4700540  82.3195730  54.7442240  71.5741510  77.1452760  53.1709100
  71.4905230  77.5766980  52.3205540  72.2935700  77.6051110  53.6035920
  72.6028760  83.9995020  55.8991230  71.9604920  83.3450640  56.1734950
  72.2159420  84.4050110  55.1231900  68.1815240  81.3280450  59.7462920
  68.5339060  80.7308580  59.0864290  67.2977570  81.0024680  59.9171170
  64.2678520  82.0878140  57.1533330  64.9549650  82.6347350  57.5340920
  63.4810940  82.6318870  57.1882940  56.4070920  77.7050960  52.6450410
  57.2765770  77.9875760  52.9286330  55.9161240  78.5186830  52.5299220
  63.5705730  79.0924170  56.7658690  64.0268510  79.9029420  56.9918880
  63.2193940  78.7747310  57.5977180  59.4717510  69.4361820  57.2381210
  59.3432140  69.4279720  58.1866130  58.6479530  69.7744910  56.8872220
  67.1470420  82.6062860  62.7128440  67.7892650  81.9056020  62.8260610
  67.6719770  83.3861300  62.5325330  70.9926140  82.8911480  52.4367580
  70.7663720  82.1741920  53.0292220  70.6022340  82.6423920  51.5989330
  56.7742170  86.9178340  53.2112040  57.1339810  87.5167680  52.5569310
  56.6334510  87.4638230  53.9847070  70.5742390  80.8083420  54.0981740
  70.2864090  81.2696110  54.8859620  71.3694560  80.3481190  54.3665960
  62.7910790  84.3009540  54.0285710  62.7820890  85.0339230  53.4130220
  61.8709150  84.0541120  54.1212670  58.3917430  79.5224430  54.7732470
  57.7845380  80.2623330  54.7827770  58.8666780  79.6123790  53.9470670
  71.3312250  72.6432190  55.2576920  70.7025410  72.7477860  54.5435150
  70.8364170  72.8628970  56.0470800  65.7770390  84.3637780  52.6910900
  65.8782370  84.1601770  51.7612880  64.8772130  84.1096060  52.8958680
  63.2996280  74.9218140  56.6734800  62.5912430  75.3904480  57.1148410
  63.5840760  74.2640150  57.3079990  67.3311710  71.6468800  58.1130590
  67.2079490  71.6654930  57.1640100  68.2796270  71.6947740  58.2328990
  64.4188500  86.8824100  57.3858570  64.6730000  86.8445490  56.4637940
  63.4700980  86.7557430  57.3786820  61.5031300  73.2303220  54.0485510
  62.3521830  73.6673370  53.9825700  61.1362570  73.5423480  54.8757570
  70.4241080  77.8015980  58.9617080  69.4831220  77.8166210  59.1364770
  70.7385150  77.0151940  59.4077380  60.4022720  79.4835580  52.5221040
  61.1685990  79.3716940  53.0846470  60.4797410  78.7873550  51.8697810
  59.0969480  76.9160650  53.2053930  59.1773070  75.9688160  53.3171330
  59.9889230  77.2467530  53.3114590  72.4266660  84.9724830  60.6371340
  72.5514080  85.7956000  61.1095150  73.2932220  84.7615560  60.2895490
  59.8984190  87.0656040  60.3088470  60.6346670  86.5171500  60.5797040
  60.2825110  87.9312050  60.1694460  56.7829670  83.1329610  56.1829980
  55.8569450  83.3750750  56.1735390  57.2486100  83.9603870  56.0614730
  63.0086500  86.2386350  52.1314040  63.8015110  86.5275180  51.6795830
  62.4890850  85.8078520  51.4526520  72.0616670  85.4656480  53.5550780
  71.7758180  85.0521620  52.7404960  71.8636220  86.3944190  53.4351300
  63.5263900  81.4589760  51.9956390  63.4214540  80.8442110  52.7217770
  63.3588120  80.9355650  51.2119400  66.7666630  80.5209790  52.5998380
  66.2176730  80.9679090  53.2441120  67.3885890  80.0159040  53.1236050
  62.4341750  79.4800710  54.4963680  62.8558170  79.3140580  55.3395070
  62.5592590  78.6700940  54.0018820  64.9469390  78.5038320  51.7440780
  65.4675050  77.7887340  51.3781930  65.5937790  79.1424190  52.0441290
  61.3300650  75.5533940  51.4421840  61.1289710  74.6901300  51.8035180
  61.1592700  75.4667300  50.5043440  68.8088960  70.3642170  53.9708720
  69.0891250  69.5210070  54.3268140  68.0354690  70.5965280  54.4847470
  60.1283450  72.6534560  51.4299720  60.4309350  72.6601990  50.5218870
  60.8678040  72.3032420  51.9267380  63.3468380  71.5969180  52.4155920
  62.9990380  70.9193170  51.8358370  63.5481150  71.1358690  53.2299310
  65.5117420  86.5849930  54.0342520  66.4068210  86.9234900  54.0561280
  65.5435050  85.8629340  53.4066800  59.1513580  81.9576980  52.2629520
  59.5888450  82.5006650  52.9187100  59.6361310  81.1323930  52.2725860
  56.3659380  84.7466010  59.7149780  56.6962390  83.8787070  59.4828420
  56.7950380  84.9524530  60.5454740  60.9621300  83.0775020  57.3751750
  60.6616840  82.9539990  58.2755660  60.8558790  82.2183610  56.9667480
  56.8549590  85.6136600  62.4531410  56.4180580  85.7937400  63.2855560
  57.4227270  86.3711220  62.3113130  73.7313220  82.8571420  52.0778430
  72.9006180  82.9248070  52.5485660  73.9085050  83.7475540  51.7745290
  73.1869680  79.6018900  54.5812630  73.9488590  80.1715550  54.6872320
  73.2024050  79.0346100  55.3520940  56.6874020  78.1256830  58.8120290
  56.0322860  77.8568470  58.1679990  57.5251970  78.0161310  58.3622270
  74.1929650  80.4569000  59.4254560  74.5638480  79.6736320  59.0190530
  74.8331580  81.1458100  59.2471860  73.2388850  79.8953270  51.7385150
  73.5137690  80.8032150  51.6104370  73.0499590  79.8315800  52.6747140
  69.6364460  72.9198120  53.0338780  70.0549340  72.7329100  52.1935440
  69.3300520  72.0677170  53.3441710  73.1354190  77.8322260  56.7314580
  72.7597790  77.0650190  56.2995870  72.4057310  78.2144960  57.2189510
  55.9012100  75.3355760  54.7545620  54.9976180  75.5985960  54.5797280
  56.3852720  75.6066930  53.9745580  72.4105150  76.0579750  60.0321820
  72.9342630  75.5642400  59.4011990  72.9964570  76.1930110  60.7769390
  58.4439310  74.3921300  52.6640000  59.1531010  73.9704520  52.1787280
  57.7279250  74.4596530  52.0323350  58.0913470  70.4460630  51.7042650
  58.8141600  70.9869570  52.0223870  58.3637990  70.1724050  50.8284190
  71.9005120  75.3153100  55.9714230  72.3964240  75.0823970  56.7563110
  71.7021190  74.4764940  55.5551870  57.7805660  69.6966820  61.6065270
  58.4281850  69.1464200  61.1660430  58.2007500  69.9509970  62.4281080
  73.3292280  73.9514050  58.5051910  73.2191560  73.7970090  59.4434180
  74.0899870  73.4234990  58.2627320  74.2182550  71.7821970  51.7458050
  75.1431860  71.6503150  51.5376340  74.1958340  71.8614790  52.6994500
  74.2921040  72.5532630  54.3714760  73.4972540  72.4877750  54.9007670
  74.4964320  73.4883270  54.3600110  71.2339460  86.5924180  58.3653150
  71.8298530  86.2708750  57.6887570  71.4917610  86.1196000  59.1566420
  71.7851670  87.2419480  62.1950880  71.3254640  87.9935290  61.8208900
  71.1564130  86.5225950  62.1365680  62.2147390  85.5507720  61.3699010
  62.7312410  84.9395080  60.8447270  62.8644770  86.0536500  61.8610020
  64.9542890  86.4416210  62.1967990  65.2420700  86.1870510  61.3201000
  65.4666110  85.8893570  62.7873560  66.1719900  70.1806410  62.7764500
  65.3891690  70.6551910  63.0561260  65.8782830  69.2761240  62.6677680
  70.7240970  70.8829510  60.8213590  71.1649060  70.8274610  59.9735190
  70.4548560  71.7987520  60.8923770  72.5879540  70.5144750  58.8322410
  72.5267940  69.5705970  58.6853430  73.3671570  70.6224840  59.3775870
  56.8932290  86.6537110  57.7946360  56.7254330  86.0207790  58.4928250
  56.0266800  86.8596510  57.4440550  57.5160310  70.4853890  55.2978220
  58.2739670  70.5982770  54.7242250  57.0537480  71.3223090  55.2521650
  64.0574120  72.5993160  58.2880530  63.2448630  72.2250050  57.9476410
  64.5615760  71.8438240  58.5901720  68.5599100  69.2635610  59.5263600
  69.1628470  69.8355820  60.0012120  67.8192090  69.8275050  59.3037500
  71.7033700  69.6657170  54.8003880  71.8984330  70.5640620  55.0671310
  70.9163570  69.4344250  55.2936830  58.4994990  85.3470340  55.2396500
  57.9742610  85.7278370  54.5358460  58.4239570  85.9721110  55.9606210
  59.8885460  71.0117940  53.8380190  60.4178220  70.2247740  53.7088140
  60.5213780  71.6909130  54.0715720  62.0823300  70.7493080  56.8925580
  61.4526040  70.0480390  57.0595710  61.5428440  71.5097210  56.6758740
  73.2560310  86.9057880  56.5610440  73.4312500  86.2195620  55.9171360
  72.5581880  87.4304930  56.1687110  61.0987960  87.2952720  54.1145750
  61.8306780  87.0112000  53.5669640  61.3581630  87.0566000  55.0045130
  60.2602750  83.4117450  54.1192080  59.6311630  83.8802550  54.6677910
  60.3750580  82.5666670  54.5538270  67.7152470  77.4623110  40.2693280
  67.6346520  76.5477720  39.9984990  67.3016890  77.9590180  39.5632990
  65.8470510  79.2402130  42.1502550  65.0712610  78.7602570  42.4401120
  66.4983440  78.5607780  41.9758710  59.8636340  79.5521940  43.0278310
  59.0321220  79.2970650  43.4274820  60.4717320  79.6232710  43.7636230
  69.8677940  83.6462320  40.9301680  69.4059470  82.8749560  41.2588850
  70.6803490  83.6728390  41.4354130  59.8437600  83.5862030  43.2236330
  60.1465640  82.6959770  43.0446550  60.5881190  84.1432250  42.9958580
  56.2361300  77.1129480  42.6960400  56.8077410  76.3451680  42.6964040
  56.2362840  77.4118240  41.7867010  66.0941250  85.9320330  40.5505670
  65.4752690  86.3877830  39.9800110  66.9493030  86.0871790  40.1495370
  65.2879500  81.9159320  42.1572710  65.2187780  80.9749260  41.9961840
  66.0499360  82.0060730  42.7295280  57.4786170  72.5213840  44.4829330
  57.2989010  71.6239590  44.7632090  57.0766250  73.0685710  45.1576280
  66.3184670  74.7229700  42.3841640  66.6949490  73.8501580  42.2715310
  66.2204180  75.0588400  41.4932080  70.1008790  72.2180140  39.3169980
  70.9218410  71.7276710  39.3595460  70.1342870  72.8077800  40.0701820
  58.0972840  75.0174340  43.0911670  58.7782950  75.2812710  43.7099070
  57.7820890  74.1775210  43.4249680  62.2897410  76.0641700  42.1784260
  62.7975630  76.5622670  42.8189280  62.8210650  75.2876900  42.0023620
  74.3908340  74.2346890  45.8813610  73.6860510  74.6228600  45.3628720
  74.6566260  74.9297180  46.4834540  60.5733510  70.7040260  46.4447680
  60.5751950  71.2212650  45.6393580  59.7437820  70.2270440  46.4217610
  66.9604600  80.8159570  37.9437580  66.3421870  81.2809020  37.3800300
  67.4727850  81.5087050  38.3607090  61.8236360  80.3435440  44.6221180
  61.4905740  80.9704360  45.2642250  62.0003040  80.8697320  43.8422850
  70.3370270  74.1580520  42.0897520  69.6325840  74.4465410  42.6700630
  70.6982430  74.9680630  41.7297080  60.2548840  72.4150220  44.4518130
  60.5965650  73.2592270  44.1572000  59.3164650  72.5633960  44.5683470
  61.0355460  82.3116240  46.4370360  61.6529460  82.9867320  46.1554810
  60.1748580  82.7204220  46.3457860  56.3287800  81.5016100  35.3177210
  55.9515780  81.9903200  34.5862110  56.5860870  82.1741380  35.9483740
  71.9533050  83.7755650  44.3525000  71.2696570  84.4454760  44.3441670
  72.4927340  83.9736300  43.5869860  73.4057190  73.6035310  42.4806730
  72.4582100  73.6374290  42.6122160  73.7307180  74.4174260  42.8656090
  69.4891790  85.6199780  43.0670180  69.5018950  85.2162070  42.1992440
  68.9367010  86.3947070  42.9631610  70.7837210  82.3416000  38.1560350
  70.6733540  81.3990330  38.2809770  70.7805460  82.7031640  39.0423110
  68.8877230  80.5229620  44.3952790  69.3046020  80.3089730  43.5606250
  69.6117050  80.7802410  44.9661410  66.3257490  77.9681320  37.5122840
  65.3986770  77.9018700  37.7411310  66.4782310  78.9061450  37.3978080
  72.8339330  78.9216840  44.4869030  72.0057960  78.9909930  44.0119160
  73.4289810  79.5071150  44.0184860  70.3554780  79.5301620  38.0158090
  69.7367200  79.1921170  37.3684390  70.3379230  78.8861380  38.7237280
  69.7981340  75.7086160  45.4323900  69.3852520  76.5339870  45.6863890
  69.0657290  75.1231200  45.2400260  61.9314130  78.4946060  40.2942570
  61.5271130  77.7823310  39.7988470  62.0177250  78.1499300  41.1830610
  62.3995830  82.1813620  42.4581780  62.1024120  81.5759090  41.7789560
  63.3495650  82.2190930  42.3471140  60.6442750  75.2689270  44.0741610
  61.1957340  75.3784610  43.2994860  61.1586260  75.6426870  44.7896840
  70.4881440  85.7545490  46.1204880  70.0112000  86.5617680  45.9277490
  69.8043230  85.1023820  46.2731090  61.4914260  81.9195310  49.1089580
  60.5942790  82.1435280  49.3562980  61.5167130  82.0430250  48.1600980
  68.5319480  78.7688430  35.0230840  68.9712760  77.9310860  34.8768660
  69.2447900  79.4017830  35.1094980  60.3185480  78.7908630  47.6846950
  60.1793250  79.6631430  48.0534350  59.4366840  78.4481440  47.5394890
  66.6414860  83.7084500  38.9912080  67.0810770  84.4508830  38.5767470
  66.5801750  83.9511070  39.9151040  62.1165830  84.7330330  49.8932100
  62.0881260  85.1373280  49.0260530  61.9530800  83.8040690  49.7303700
  72.1136620  70.0231240  33.3371880  71.8009280  70.1158070  34.2370950
  72.8749090  70.6012270  33.2869310  74.0680650  85.5157430  51.1896270
  74.5440370  85.9940320  51.8685350  74.6887810  85.4474920  50.4641770
  56.2704130  80.5606180  43.6017860  56.3484550  80.6954950  42.6573580
  56.8845810  79.8522070  43.7945980  57.5151760  82.2606370  40.0124040
  57.1079840  82.4020960  39.1577640  58.4064770  81.9766530  39.8095250
  73.4713900  82.7070280  48.3496280  73.5976960  82.4682160  47.4313460
  73.5135280  81.8754820  48.8218360  67.3330640  86.4098280  46.9191090
  67.8475310  86.3206290  47.7213520  66.4899720  86.7557980  47.2119000
  69.3085040  86.6953620  36.3475090  69.1486180  86.4056560  37.2456920
  69.1431750  85.9193750  35.8120320  61.7873420  86.4752150  38.1246710
  61.6115900  85.5587690  37.9114510  60.9329160  86.8339440  38.3644510
  69.0111170  84.2041180  34.9073090  68.3176330  84.2018470  34.2475370
  69.7534030  83.7800500  34.4767260  68.5761100  85.8303890  38.9821580
  69.0318050  85.0493270  39.2960200  68.9153620  86.5410710  39.5262760
  73.3237910  74.7602740  49.3146020  72.7082180  75.2682410  48.7861480
  73.0034330  73.8601070  49.2571960  56.3263650  81.6020350  46.1412320
  56.4894690  81.1325710  45.3231690  56.7916100  81.0943910  46.8061160
  65.3852230  73.5994630  46.7808210  64.9231600  73.8077650  47.5928150
  64.9830340  72.7853980  46.4778880  70.3856740  74.8203580  47.9104870
  69.5350330  74.5209330  48.2313940  70.2258530  75.0645590  46.9988690
  67.4806450  76.3205330  50.0103660  67.8059860  75.4869080  49.6705890
  68.2686780  76.8433850  50.1581990  63.1358320  71.2773440  43.0362490
  63.4330650  72.1836270  42.9554510  63.6843880  70.7892220  42.4222060
  68.1194400  75.8623050  37.5044790  67.5203290  76.5858850  37.3208410
  68.6674010  75.7999830  36.7221240  63.3295850  76.7545260  49.5714410
  63.2339450  75.8139990  49.4214810  64.1727830  76.9760330  49.1762480
  66.7259270  74.4986590  39.5348070  67.1188840  74.8158790  38.7216760
  67.0876120  73.6198470  39.6492590  58.4606390  73.1658930  47.7248190
  58.0669780  74.0134140  47.9320970  57.7724790  72.5285300  47.9156830
  65.0351440  73.2493900  50.7944930  64.3449760  73.0566100  51.4291020
  65.7783740  73.5328540  51.3269230  67.3114410  77.0892340  43.6298850
  66.5795530  77.5979150  43.9788950  66.9138750  76.2722320  43.3287630
  67.7740320  72.5426020  43.0421790  67.7913060  72.9934670  43.8863640
  67.5255900  71.6431660  43.2555230  71.2011070  69.9558200  48.8808170
  71.5256840  69.2247860  49.4066150  71.2367580  69.6371840  47.9789160
  57.9002630  80.9771780  48.3008130  57.5157420  80.3365450  48.8991090
  58.2114820  81.6807900  48.8702860  64.0499770  77.8248320  43.7816750
  64.4169900  77.3506890  44.5278090  63.8604830  78.6989890  44.1225090
  61.8399140  76.8656960  46.1000960  61.5356210  77.7448940  46.3251320
  62.7945600  76.9256750  46.1358400  60.3680930  81.0717950  36.6967810
  59.5943190  80.5315570  36.5366530  61.0975560  80.5524560  36.3585570
  71.1268910  80.0683310  42.4894200  71.8468030  80.5638600  42.0990310
  70.9250730  79.3901200  41.8448070  66.5087710  80.1392370  48.3763200
  66.4425020  79.2188040  48.1220790  65.8792850  80.2367810  49.0907840
  69.3027240  75.8340920  34.9285750  70.1906860  76.1458150  34.7537090
  69.2732330  74.9613170  34.5366330  60.4118330  80.7398330  40.3346620
  60.9297000  79.9366590  40.2803510  59.9602350  80.6777470  41.1763450
  65.2987830  82.0064610  35.6073920  65.6403530  82.7506840  35.1117240
  64.4700540  82.3195730  35.9698750  57.8962870  77.7059700  47.2472320
  57.5377810  78.3713550  47.8345660  57.6017430  76.8743250  47.6184940
  61.0975990  78.1643940  50.1311870  60.7976130  78.3101120  49.2339690
  61.8687230  77.6049230  50.0385260  66.4404440  82.9612940  48.1267000
  66.4548980  82.0293900  47.9085910  65.7329540  83.0472700  48.7656770
  71.5741510  77.1452760  34.3965610  71.4905230  77.5766980  33.5462050
  72.2935700  77.6051110  34.8292430  72.6515650  79.6020280  47.4735580
  71.9263840  80.1949060  47.2764970  73.1791110  79.5943820  46.6748950
  72.6028760  83.9995020  37.1247740  71.9604920  83.3450640  37.3991460
  72.2159420  84.4050110  36.3488410  68.1815240  81.3280450  40.9719430
  68.5339060  80.7308580  40.3120800  67.2977570  81.0024680  41.1427680
  64.2678520  82.0878140  38.3789840  64.9549650  82.6347350  38.7597430
  63.4810940  82.6318870  38.4139450  63.5705730  79.0924170  37.9915200
  64.0268510  79.9029420  38.2175390  63.2193940  78.7747310  38.8233690
  65.8738340  84.6030510  45.2207500  66.5180560  84.8089890  45.8980920
  66.2367780  83.8418910  44.7678350  67.1470420  82.6062860  43.9384950
  67.7892650  81.9056020  44.0517120  67.6719770  83.3861300  43.7581840
  70.9926140  82.8911480  33.6624090  70.7663720  82.1741920  34.2548730
  70.6022340  82.6423920  32.8245840  68.9208040  83.4057760  47.1421010
  69.2564280  83.9924450  47.8198930  68.0008380  83.2750470  47.3718800
  56.7742170  86.9178340  34.4368550  57.1339810  87.5167680  33.7825820
  56.6334510  87.4638230  35.2103580  56.4711440  71.1952940  47.9244420
  55.7569960  71.3949860  48.5297030  56.8906480  70.4192510  48.2959220
  70.5742390  80.8083420  35.3238250  70.2864090  81.2696110  36.1116130
  71.3694560  80.3481190  35.5922470  56.7584030  85.1833200  48.9110950
  56.8675150  84.2427940  48.7706340  56.1064590  85.4487950  48.2624680
  64.7496620  83.4549090  50.3109070  64.4293490  82.7358330  50.8554760
  64.0754980  84.1304160  50.3845130  62.7910790  84.3009540  35.2542220
  62.7820890  85.0339230  34.6386730  61.8709150  84.0541120  35.3469180
  58.3917430  79.5224430  35.9988980  57.7845380  80.2623330  36.0084280
  58.8666780  79.6123790  35.1727180  67.9650220  73.6875250  45.6745870
  68.3331040  72.8670460  46.0025440  67.1048420  73.7477140  46.0901520
  71.3312250  72.6432190  36.4833430  70.7025410  72.7477860  35.7691660
  70.8364170  72.8628970  37.2727310  65.7770390  84.3637780  33.9167410
  65.8782370  84.1601770  32.9869390  64.8772130  84.1096060  34.1215190
  64.9252210  76.3414840  45.8983840  65.4237460  76.8160660  46.5635690
  65.0675160  75.4178360  46.1053870  64.4188500  86.8824100  38.6115080
  64.6730000  86.8445490  37.6894450  63.4700980  86.7557430  38.6043330
  72.1319070  72.5582800  46.7412230  71.6292670  73.2988200  47.0806040
  72.9475730  72.9466800  46.4249020  70.4241080  77.8015980  40.1873590
  69.4831220  77.8166210  40.3621280  70.7385150  77.0151940  40.6333890
  60.4022720  79.4835580  33.7477550  61.1685990  79.3716940  34.3102980
  60.4797410  78.7873550  33.0954320  72.4266660  84.9724830  41.8627850
  72.5514080  85.7956000  42.3351660  73.2932220  84.7615560  41.5152000
  59.8984190  87.0656040  41.5344980  60.6346670  86.5171500  41.8053550
  60.2825110  87.9312050  41.3950970  56.7829670  83.1329610  37.4086490
  55.8569450  83.3750750  37.3991900  57.2486100  83.9603870  37.2871240
  58.9042470  86.2502110  50.7230560  59.7055200  86.5714160  51.1365960
  58.3894290  85.8897690  51.4450470  63.0086500  86.2386350  33.3570550
  63.8015110  86.5275180  32.9052340  62.4890850  85.8078520  32.6783030
  67.7407100  82.3581980  50.6705970  67.1345260  82.3813580  49.9301720
  67.4361210  81.6265020  51.2073220  69.1707470  86.0862270  49.2815380
  70.1229220  86.0020290  49.2315620  69.0235690  86.7503980  49.9549170
  72.0616670  85.4656480  34.7807290  71.7758180  85.0521620  33.9661470
  71.8636220  86.3944190  34.6607810  56.6240280  78.7375570  49.6666610
  57.1279300  78.1582850  50.2382840  55.8847700  79.0215800  50.2042980
  63.5263900  81.4589760  33.2212900  63.4214540  80.8442110  33.9474280
  63.3588120  80.9355650  32.4375910  63.6778220  80.1446560  49.2002130
  62.9123890  80.7131560  49.1156800  63.8594180  79.8522770  48.3070360
  66.7666630  80.5209790  33.8254890  66.2176730  80.9679090  34.4697630
  67.3885890  80.0159040  34.3492560  70.8201570  81.8751890  49.7577150
  71.5611040  82.2127650  49.2544610  70.0574250  82.0443950  49.2046920
  58.6563360  76.8805160  50.5616680  58.6968700  76.5819030  51.4701910
  59.5108860  77.2812770  50.4024200  62.4341750  79.4800710  35.7220190
  62.8558170  79.3140580  36.5651580  62.5592590  78.6700940  35.2275330
  60.5969170  75.4597260  48.5291170  60.0665630  74.9688210  47.9014510
  61.2657240  75.8881460  47.9949100  64.9469390  78.5038320  32.9697290
  65.4675050  77.7887340  32.6038440  65.5937790  79.1424190  33.2697800
  69.4947230  79.9266720  48.2932360  69.9088250  80.0811800  49.1422780
  68.5598230  80.0521940  48.4558140  69.9669400  77.2662880  50.2971510
  70.5490170  76.5115200  50.2091990  70.1431170  77.7970320  49.5202990
  61.0841470  72.4259630  48.6088460  60.9898340  71.8080380  47.8839330
  60.5038860  73.1525920  48.3818370  63.8502910  70.9832870  45.6415850
  63.4020210  71.0057130  44.7961400  63.2168110  70.5851890  46.2386150
  64.2562460  79.8787200  46.2628290  64.6750570  80.7219930  46.0904530
  63.3371090  80.0159240  46.0335070  66.5926360  77.6103380  47.6466130
  66.7122570  77.0144520  48.3860970  67.4520360  77.6473070  47.2267430
  68.9314260  78.1640570  46.2228640  68.4049480  78.6883190  45.6193780
  69.2745600  78.7967960  46.8538370  62.1069880  86.1840210  47.3786020
  61.5690970  86.9086270  47.0594720  62.3603840  85.7070550  46.5883360
  63.3595130  74.1524730  48.9041950  63.9494820  73.8440580  49.5919770
  62.5415370  73.6804480  49.0601850  68.1788560  73.7690540  49.1374970
  67.4904080  73.1072080  49.0724960  68.8994580  73.3228810  49.5823430
  64.9632090  87.4191420  47.6372670  64.8890790  88.3226560  47.9445040
  64.0610930  87.1003320  47.6094740  65.5117420  86.5849930  35.2599030
  66.4068210  86.9234900  35.2817790  65.5435050  85.8629340  34.6323310
  59.1513580  81.9576980  33.4886030  59.5888450  82.5006650  34.1443610
  59.6361310  81.1323930  33.4982370  56.3659380  84.7466010  40.9406290
  56.6962390  83.8787070  40.7084930  56.7950380  84.9524530  41.7711250
  60.9621300  83.0775020  38.6008260  60.6616840  82.9539990  39.5012170
  60.8558790  82.2183610  38.1923990  56.8549590  85.6136600  43.6787920
  56.4180580  85.7937400  44.5112070  57.4227270  86.3711220  43.5369640
  72.4911770  85.1153600  47.9665230  71.8913760  85.1746160  47.2229150
  72.6205670  84.1758580  48.0962080  73.7313220  82.8571420  33.3034940
  72.9006180  82.9248070  33.7742170  73.9085050  83.7475540  33.0001800
  73.1869680  79.6018900  35.8069140  73.9488590  80.1715550  35.9128830
  73.2024050  79.0346100  36.5777450  56.6874020  78.1256830  40.0376800
  56.0322860  77.8568470  39.3936500  57.5251970  78.0161310  39.5878780
  74.1929650  80.4569000  40.6511070  74.5638480  79.6736320  40.2447040
  74.8331580  81.1458100  40.4728370  71.1763410  81.8405580  46.0641390
  70.3623250  82.2702740  46.3267180  71.5837610  82.4523990  45.4510440
  73.2388850  79.8953270  32.9641660  73.5137690  80.8032150  32.8360880
  73.0499590  79.8315800  33.9003650  69.6364460  72.9198120  34.2595290
  70.0549340  72.7329100  33.4191950  69.3300520  72.0677170  34.5698220
  73.1354190  77.8322260  37.9571090  72.7597790  77.0650190  37.5252380
  72.4057310  78.2144960  38.4446020  57.7249950  78.5109400  44.5780140
  58.0922990  78.4236800  45.4576160  57.1560770  77.7475950  44.4787000
  72.5253810  76.9793780  47.5910610  72.2939900  76.7506530  46.6908560
  72.7858360  77.8993330  47.5455500  57.2765950  75.4218490  48.4838560
  56.3822000  75.3885250  48.8232270  57.8163500  75.6205280  49.2489810
  70.9641880  72.2050210  50.3690310  71.8412060  72.2133610  50.7524310
  70.9762720  71.4681050  49.7582660  72.4105150  76.0579750  41.2578330
  72.9342630  75.5642400  40.6268500  72.9964570  76.1930110  42.0025900
  72.5894870  76.1419620  44.7797880  71.6397580  76.1083160  44.8942870
  72.7707880  77.0519730  44.5447650  71.9005120  75.3153100  37.1970740
  72.3964240  75.0823970  37.9819620  71.7021190  74.4764940  36.7808380
  73.3292280  73.9514050  39.7308420  73.2191560  73.7970090  40.6690690
  74.0899870  73.4234990  39.4883830  71.6758000  69.8908180  46.1891420
  72.3130220  70.5042320  46.5550610  71.8232890  69.9268840  45.2440650
  74.2182550  71.7821970  32.9714560  75.1431860  71.6503150  32.7632850
  74.1958340  71.8614790  33.9251010  74.2921040  72.5532630  35.5971270
  73.4972540  72.4877750  36.1264180  74.4964320  73.4883270  35.5856620
  71.2339460  86.5924180  39.5909660  71.8298530  86.2708750  38.9144080
  71.4917610  86.1196000  40.3822930  57.5337660  69.8522490  45.5747100
  57.1852480  70.3086310  46.3405280  57.2025360  68.9579620  45.6569530
  59.1402030  83.0242090  49.7400290  59.0971660  82.6535000  50.6214750
  59.2713040  83.9619660  49.8802110  62.8408060  84.5801680  45.3410010
  62.5999420  84.8476240  44.4540530  63.7810700  84.7507410  45.3960870
  65.0462480  71.0434370  49.0966520  64.9851370  71.6356200  49.8461930
  65.9862860  70.9360330  48.9516780  67.6837040  70.7004430  48.7358810
  68.2977450  71.0183720  48.0739890  68.2286600  70.2153020  49.3554670
  74.1012220  86.5996060  46.1420650  73.6070500  86.9964930  45.4247780
  73.4925510  85.9745270  46.5357930  58.2058300  69.3798690  48.8497870
  58.7541290  69.1986740  48.0863980  58.2713610  68.5892800  49.3854180
  58.9790060  85.9704340  46.8598070  58.3850380  85.8389040  47.5988110
  58.9713900  85.1342480  46.3940170  68.4245080  69.2636570  45.0628100
  67.5504920  69.5971680  44.8601030  68.3155830  68.7909750  45.8879970
  69.3317060  71.4707440  46.4469820  69.0030420  70.6559200  46.0671550
  70.2799360  71.4277250  46.3235510  71.7851670  87.2419480  43.4207390
  71.3254640  87.9935290  43.0465410  71.1564130  86.5225950  43.3622190
  58.6102290  83.3362720  45.8106110  57.8836350  82.7168010  45.7432060
  58.6711440  83.7303330  44.9404190  62.2147390  85.5507720  42.5955520
  62.7312410  84.9395080  42.0703780  62.8644770  86.0536500  43.0866530
  64.9542890  86.4416210  43.4224500  65.2420700  86.1870510  42.5457510
  65.4666110  85.8893570  44.0130070  66.1719900  70.1806410  44.0021010
  65.3891690  70.6551910  44.2817770  65.8782830  69.2761240  43.8934190
  70.7240970  70.8829510  42.0470100  71.1649060  70.8274610  41.1991700
  70.4548560  71.7987520  42.1180280  72.5879540  70.5144750  40.0578920
  72.5267940  69.5705970  39.9109940  73.3671570  70.6224840  40.6032380
  56.8932290  86.6537110  39.0202870  56.7254330  86.0207790  39.7184760
  56.0266800  86.8596510  38.6697060  71.7033700  69.6657170  36.0260390
  71.8984330  70.5640620  36.2927820  70.9163570  69.4344250  36.5193340
  58.4994990  85.3470340  36.4653010  57.9742610  85.7278370  35.7614970
  58.4239570  85.9721110  37.1862720  65.0215250  87.3632310  50.7892700
  65.9482560  87.1276580  50.8328660  65.0065680  88.1904310  50.3078730
  73.2560310  86.9057880  37.7866950  73.4312500  86.2195620  37.1427870
  72.5581880  87.4304930  37.3943620  62.2078860  70.0277060  50.5534580
  61.9263130  70.5310660  49.7895400  62.5898560  69.2298810  50.1876710
  61.0987960  87.2952720  35.3402260  61.8306780  87.0112000  34.7926150
  61.3581630  87.0566000  36.2301640  60.2602750  83.4117450  35.3448590
  59.6311630  83.8802550  35.8934420  60.3750580  82.5666670  35.7794780
  68.8094320  69.4430640  51.1315050  68.6959770  69.7625250  52.0266570
  69.6264060  69.8443150  50.8352330  71.5892810  86.5902170  50.6133740
  72.3818130  86.0951400  50.4059700  71.8825960  87.2692310  51.2209350
  67.7152470  77.4623110  21.4949790  67.6346520  76.5477720  21.2241500
  67.3016890  77.9590180  20.7889500  65.8470510  79.2402130  23.3759060
  65.0712610  78.7602570  23.6657630  66.4983440  78.5607780  23.2015220
  59.8636340  79.5521940  24.2534820  59.0321220  79.2970650  24.6531330
  60.4717320  79.6232710  24.9892740  69.8677940  83.6462320  22.1558190
  69.4059470  82.8749560  22.4845360  70.6803490  83.6728390  22.6610640
  59.8437600  83.5862030  24.4492840  60.1465640  82.6959770  24.2703060
  60.5881190  84.1432250  24.2215090  58.2728290  74.5123830  18.0377210
  57.3844990  74.8539800  17.9357090  58.5569480  74.3124150  17.1458040
  66.0941250  85.9320330  21.7762180  65.4752690  86.3877830  21.2056620
  66.9493030  86.0871790  21.3751880  65.2879500  81.9159320  23.3829220
  65.2187780  80.9749260  23.2218350  66.0499360  82.0060730  23.9551790
  66.3184670  74.7229700  23.6098150  66.6949490  73.8501580  23.4971820
  66.2204180  75.0588400  22.7188590  60.4489680  73.0955330  19.0715590
  60.5556430  73.9959060  19.3784350  59.5382040  73.0473300  18.7810240
  70.1008790  72.2180140  20.5426490  70.9218410  71.7276710  20.5851970
  70.1342870  72.8077800  21.2958330  62.2897410  76.0641700  23.4040770
  62.7975630  76.5622670  24.0445790  62.8210650  75.2876900  23.2280130
  74.3908340  74.2346890  27.1070120  73.6860510  74.6228600  26.5885230
  74.6566260  74.9297180  27.7091050  66.9604600  80.8159570  19.1694090
  66.3421870  81.2809020  18.6056810  67.4727850  81.5087050  19.5863600
  61.8236360  80.3435440  25.8477690  61.4905740  80.9704360  26.4898760
  62.0003040  80.8697320  25.0679360  70.3370270  74.1580520  23.3154030
  69.6325840  74.4465410  23.8957140  70.6982430  74.9680630  22.9553590
  61.0355460  82.3116240  27.6626870  61.6529460  82.9867320  27.3811320
  60.1748580  82.7204220  27.5714370  56.3287800  81.5016100  16.5433720
  55.9515780  81.9903200  15.8118620  56.5860870  82.1741380  17.1740250
  71.9533050  83.7755650  25.5781510  71.2696570  84.4454760  25.5698180
  72.4927340  83.9736300  24.8126370  73.4057190  73.6035310  23.7063240
  72.4582100  73.6374290  23.8378670  73.7307180  74.4174260  24.0912600
  63.9376730  69.9032490  22.0019230  64.2451710  69.3479380  21.2854730
  63.0077430  70.0376950  21.8192220  69.4891790  85.6199780  24.2926690
  69.5018950  85.2162070  23.4248950  68.9367010  86.3947070  24.1888120
  70.7837210  82.3416000  19.3816860  70.6733540  81.3990330  19.5066280
  70.7805460  82.7031640  20.2679620  68.8877230  80.5229620  25.6209300
  69.3046020  80.3089730  24.7862760  69.6117050  80.7802410  26.1917920
  66.3257490  77.9681320  18.7379350  65.3986770  77.9018700  18.9667820
  66.4782310  78.9061450  18.6234590  66.3126570  74.2398320  15.7346510
  65.3730240  74.4012280  15.8198970  66.6309830  74.9584000  15.1882500
  72.8339330  78.9216840  25.7125540  72.0057960  78.9909930  25.2375670
  73.4289810  79.5071150  25.2441370  70.3554780  79.5301620  19.2414600
  69.7367200  79.1921170  18.5940900  70.3379230  78.8861380  19.9493790
  69.7981340  75.7086160  26.6580410  69.3852520  76.5339870  26.9120400
  69.0657290  75.1231200  26.4656770  61.9314130  78.4946060  21.5199080
  61.5271130  77.7823310  21.0244980  62.0177250  78.1499300  22.4087120
  62.3995830  82.1813620  23.6838290  62.1024120  81.5759090  23.0046070
  63.3495650  82.2190930  23.5727650  70.4881440  85.7545490  27.3461390
  70.0112000  86.5617680  27.1534000  69.8043230  85.1023820  27.4987600
  61.4914260  81.9195310  30.3346090  60.5942790  82.1435280  30.5819490
  61.5167130  82.0430250  29.3857490  68.5319480  78.7688430  16.2487350
  68.9712760  77.9310860  16.1025170  69.2447900  79.4017830  16.3351490
  66.6414860  83.7084500  20.2168590  67.0810770  84.4508830  19.8023980
  66.5801750  83.9511070  21.1407550  62.1165830  84.7330330  31.1188610
  62.0881260  85.1373280  30.2517040  61.9530800  83.8040690  30.9560210
  72.1136620  70.0231240  14.5628390  71.8009280  70.1158070  15.4627460
  72.8749090  70.6012270  14.5125820  58.6318760  77.3891040  19.0205730
  58.5116360  78.1153130  18.4087000  58.3219650  76.6193950  18.5433640
  74.0680650  85.5157430  32.4152780  74.5440370  85.9940320  33.0941860
  74.6887810  85.4474920  31.6898280  56.2704130  80.5606180  24.8274370
  56.3484550  80.6954950  23.8830090  56.8845810  79.8522070  25.0202490
  57.5151760  82.2606370  21.2380550  57.1079840  82.4020960  20.3834150
  58.4064770  81.9766530  21.0351760  73.4713900  82.7070280  29.5752790
  73.5976960  82.4682160  28.6569970  73.5135280  81.8754820  30.0474870
  67.3330640  86.4098280  28.1447600  67.8475310  86.3206290  28.9470030
  66.4899720  86.7557980  28.4375510  69.3085040  86.6953620  17.5731600
  69.1486180  86.4056560  18.4713430  69.1431750  85.9193750  17.0376830
  61.7873420  86.4752150  19.3503220  61.6115900  85.5587690  19.1371020
  60.9329160  86.8339440  19.5901020  69.0111170  84.2041180  16.1329600
  68.3176330  84.2018470  15.4731880  69.7534030  83.7800500  15.7023770
  68.5761100  85.8303890  20.2078090  69.0318050  85.0493270  20.5216710
  68.9153620  86.5410710  20.7519270  73.3237910  74.7602740  30.5402530
  72.7082180  75.2682410  30.0117990  73.0034330  73.8601070  30.4828470
  56.3263650  81.6020350  27.3668830  56.4894690  81.1325710  26.5488200
  56.7916100  81.0943910  28.0317670  61.0982420  70.7326110  22.4029400
  60.6550570  71.5135650  22.0713920  61.6567410  71.0556000  23.1100340
  70.3856740  74.8203580  29.1361380  69.5350330  74.5209330  29.4570450
  70.2258530  75.0645590  28.2245200  67.4806450  76.3205330  31.2360170
  67.8059860  75.4869080  30.8962400  68.2686780  76.8433850  31.3838500
  64.2141240  70.3536810  17.2835230  63.5895420  70.3496680  18.0088540
  64.1271360  69.4867770  16.8871200  63.1358320  71.2773440  24.2619000
  63.4330650  72.1836270  24.1811020  63.6843880  70.7892220  23.6478570
  60.8896640  75.8559680  20.1310650  60.6637560  75.6396850  21.0357270
  60.1089170  76.2888140  19.7856620  68.1194400  75.8623050  18.7301300
  67.5203290  76.5858850  18.5464920  68.6674010  75.7999830  17.9477750
  66.7259270  74.4986590  20.7604580  67.1188840  74.8158790  19.9473270
  67.0876120  73.6198470  20.8749100  55.7623440  71.0887390  22.9834780
  55.4736490  71.6590250  23.6959760  56.5069200  70.6091840  23.3466010
  55.9493670  75.0307510  14.1937500  55.8668340  75.9738270  14.3352490
  55.5976730  74.8882420  13.3149850  67.3114410  77.0892340  24.8555360
  66.5795530  77.5979150  25.2045460  66.9138750  76.2722320  24.5544140
  63.7491800  73.7646540  23.2607850  63.7527860  73.3236490  22.4112390
  64.6442920  74.0863870  23.3679670  59.5994180  73.6473030  22.2202060
  59.2594230  74.1248260  22.9769110  58.8371500  73.1938150  21.8603160
  63.8111950  74.7658620  16.2514610  63.9324770  74.7245100  17.2000430
  63.4260460  75.6282770  16.0961340  67.7740320  72.5426020  24.2678300
  67.7913060  72.9934670  25.1120150  67.5255900  71.6431660  24.4811740
  62.8233450  77.0759760  15.6497910  62.2550350  76.6278010  15.0233820
  63.5322450  77.4352540  15.1163060  57.9002630  80.9771780  29.5264640
  57.5157420  80.3365450  30.1247600  58.2114820  81.6807900  30.0959370
  64.0499770  77.8248320  25.0073260  64.4169900  77.3506890  25.7534600
  63.8604830  78.6989890  25.3481600  56.9140260  72.5692010  21.1366730
  56.6287180  72.2047680  21.9745350  56.8519120  71.8372470  20.5229870
  60.3680930  81.0717950  17.9224320  59.5943190  80.5315570  17.7623040
  61.0975560  80.5524560  17.5842080  71.1268910  80.0683310  23.7150710
  71.8468030  80.5638600  23.3246820  70.9250730  79.3901200  23.0704580
  66.5878850  71.4621270  17.8580100  65.7743460  70.9634440  17.7825410
  66.3940800  72.3019520  17.4416450  66.5087710  80.1392370  29.6019710
  66.4425020  79.2188040  29.3477300  65.8792850  80.2367810  30.3164350
  69.3027240  75.8340920  16.1542260  70.1906860  76.1458150  15.9793600
  69.2732330  74.9613170  15.7622840  60.4118330  80.7398330  21.5603130
  60.9297000  79.9366590  21.5060020  59.9602350  80.6777470  22.4019960
  65.2987830  82.0064610  16.8330430  65.6403530  82.7506840  16.3373750
  64.4700540  82.3195730  17.1955260  66.4404440  82.9612940  29.3523510
  66.4548980  82.0293900  29.1342420  65.7329540  83.0472700  29.9913280
  71.5741510  77.1452760  15.6222120  71.4905230  77.5766980  14.7718560
  72.2935700  77.6051110  16.0548940  72.6515650  79.6020280  28.6992090
  71.9263840  80.1949060  28.5021480  73.1791110  79.5943820  27.9005460
  72.6028760  83.9995020  18.3504250  71.9604920  83.3450640  18.6247970
  72.2159420  84.4050110  17.5744920  68.1815240  81.3280450  22.1975940
  68.5339060  80.7308580  21.5377310  67.2977570  81.0024680  22.3684190
  64.2678520  82.0878140  19.6046350  64.9549650  82.6347350  19.9853940
  63.4810940  82.6318870  19.6395960  56.4070920  77.7050960  15.0963430
  57.2765770  77.9875760  15.3799350  55.9161240  78.5186830  14.9812240
  63.5705730  79.0924170  19.2171710  64.0268510  79.9029420  19.4431900
  63.2193940  78.7747310  20.0490200  65.8738340  84.6030510  26.4464010
  66.5180560  84.8089890  27.1237430  66.2367780  83.8418910  25.9934860
  59.4717510  69.4361820  19.6894230  59.3432140  69.4279720  20.6379150
  58.6479530  69.7744910  19.3385240  67.1470420  82.6062860  25.1641460
  67.7892650  81.9056020  25.2773630  67.6719770  83.3861300  24.9838350
  70.9926140  82.8911480  14.8880600  70.7663720  82.1741920  15.4805240
  70.6022340  82.6423920  14.0502350  68.9208040  83.4057760  28.3677520
  69.2564280  83.9924450  29.0455440  68.0008380  83.2750470  28.5975310
  56.7742170  86.9178340  15.6625060  57.1339810  87.5167680  15.0082330
  56.6334510  87.4638230  16.4360090  70.5742390  80.8083420  16.5494760
  70.2864090  81.2696110  17.3372640  71.3694560  80.3481190  16.8178980
  56.7584030  85.1833200  30.1367460  56.8675150  84.2427940  29.9962850
  56.1064590  85.4487950  29.4881190  64.7496620  83.4549090  31.5365580
  64.4293490  82.7358330  32.0811270  64.0754980  84.1304160  31.6101640
  62.7910790  84.3009540  16.4798730  62.7820890  85.0339230  15.8643240
  61.8709150  84.0541120  16.5725690  58.3917430  79.5224430  17.2245490
  57.7845380  80.2623330  17.2340790  58.8666780  79.6123790  16.3983690
  67.9650220  73.6875250  26.9002380  68.3331040  72.8670460  27.2281950
  67.1048420  73.7477140  27.3158030  71.3312250  72.6432190  17.7089940
  70.7025410  72.7477860  16.9948170  70.8364170  72.8628970  18.4983820
  65.7770390  84.3637780  15.1423920  65.8782370  84.1601770  14.2125900
  64.8772130  84.1096060  15.3471700  63.2996280  74.9218140  19.1247820
  62.5912430  75.3904480  19.5661430  63.5840760  74.2640150  19.7593010
  67.3311710  71.6468800  20.5643610  67.2079490  71.6654930  19.6153120
  68.2796270  71.6947740  20.6842010  64.4188500  86.8824100  19.8371590
  64.6730000  86.8445490  18.9150960  63.4700980  86.7557430  19.8299840
  61.5031300  73.2303220  16.4998530  62.3521830  73.6673370  16.4338720
  61.1362570  73.5423480  17.3270590  72.1319070  72.5582800  27.9668740
  71.6292670  73.2988200  28.3062550  72.9475730  72.9466800  27.6505530
  70.4241080  77.8015980  21.4130100  69.4831220  77.8166210  21.5877790
  70.7385150  77.0151940  21.8590400  60.4022720  79.4835580  14.9734060
  61.1685990  79.3716940  15.5359490  60.4797410  78.7873550  14.3210830
  59.0969480  76.9160650  15.6566950  59.1773070  75.9688160  15.7684350
  59.9889230  77.2467530  15.7627610  72.4266660  84.9724830  23.0884360
  72.5514080  85.7956000  23.5608170  73.2932220  84.7615560  22.7408510
  59.8984190  87.0656040  22.7601490  60.6346670  86.5171500  23.0310060
  60.2825110  87.9312050  22.6207480  56.7829670  83.1329610  18.6343000
  55.8569450  83.3750750  18.6248410  57.2486100  83.9603870  18.5127750
  58.9042470  86.2502110  31.9487070  59.7055200  86.5714160  32.3622470
  58.3894290  85.8897690  32.6706980  63.0086500  86.2386350  14.5827060
  63.8015110  86.5275180  14.1308850  62.4890850  85.8078520  13.9039540
  67.7407100  82.3581980  31.8962480  67.1345260  82.3813580  31.1558230
  67.4361210  81.6265020  32.4329730  69.1707470  86.0862270  30.5071890
  70.1229220  86.0020290  30.4572130  69.0235690  86.7503980  31.1805680
  72.0616670  85.4656480  16.0063800  71.7758180  85.0521620  15.1917980
  71.8636220  86.3944190  15.8864320  63.5263900  81.4589760  14.4469410
  63.4214540  80.8442110  15.1730790  63.3588120  80.9355650  13.6632420
  63.6778220  80.1446560  30.4258640  62.9123890  80.7131560  30.3413310
  63.8594180  79.8522770  29.5326870  66.7666630  80.5209790  15.0511400
  66.2176730  80.9679090  15.6954140  67.3885890  80.0159040  15.5749070
  70.8201570  81.8751890  30.9833660  71.5611040  82.2127650  30.4801120
  70.0574250  82.0443950  30.4303430  62.4341750  79.4800710  16.9476700
  62.8558170  79.3140580  17.7908090  62.5592590  78.6700940  16.4531840
  64.9469390  78.5038320  14.1953800  65.4675050  77.7887340  13.8294950
  65.5937790  79.1424190  14.4954310  69.4947230  79.9266720  29.5188870
  69.9088250  80.0811800  30.3679290  68.5598230  80.0521940  29.6814650
  69.9669400  77.2662880  31.5228020  70.5490170  76.5115200  31.4348500
  70.1431170  77.7970320  30.7459500  64.2562460  79.8787200  27.4884800
  64.6750570  80.7219930  27.3161040  63.3371090  80.0159240  27.2591580
  66.5926360  77.6103380  28.8722640  66.7122570  77.0144520  29.6117480
  67.4520360  77.6473070  28.4523940  68.9314260  78.1640570  27.4485150
  68.4049480  78.6883190  26.8450290  69.2745600  78.7967960  28.0794880
  61.3300650  75.5533940  13.8934860  61.1289710  74.6901300  14.2548200
  61.1592700  75.4667300  12.9556460  62.1069880  86.1840210  28.6042530
  61.5690970  86.9086270  28.2851230  62.3603840  85.7070550  27.8139870
  68.1788560  73.7690540  30.3631480  67.4904080  73.1072080  30.2981470
  68.8994580  73.3228810  30.8079940  68.8088960  70.3642170  16.4221740
  69.0891250  69.5210070  16.7781160  68.0354690  70.5965280  16.9360490
  60.1283450  72.6534560  13.8812740  60.4309350  72.6601990  12.9731890
  60.8678040  72.3032420  14.3780400  64.9632090  87.4191420  28.8629180
  64.8890790  88.3226560  29.1701550  64.0610930  87.1003320  28.8351250
  63.3468380  71.5969180  14.8668940  62.9990380  70.9193170  14.2871390
  63.5481150  71.1358690  15.6812330  65.5117420  86.5849930  16.4855540
  66.4068210  86.9234900  16.5074300  65.5435050  85.8629340  15.8579820
  59.1513580  81.9576980  14.7142540  59.5888450  82.5006650  15.3700120
  59.6361310  81.1323930  14.7238880  56.3659380  84.7466010  22.1662800
  56.6962390  83.8787070  21.9341440  56.7950380  84.9524530  22.9967760
  60.9621300  83.0775020  19.8264770  60.6616840  82.9539990  20.7268680
  60.8558790  82.2183610  19.4180500  56.8549590  85.6136600  24.9044430
  56.4180580  85.7937400  25.7368580  57.4227270  86.3711220  24.7626150
  72.4911770  85.1153600  29.1921740  71.8913760  85.1746160  28.4485660
  72.6205670  84.1758580  29.3218590  73.7313220  82.8571420  14.5291450
  72.9006180  82.9248070  14.9998680  73.9085050  83.7475540  14.2258310
  73.1869680  79.6018900  17.0325650  73.9488590  80.1715550  17.1385340
  73.2024050  79.0346100  17.8033960  56.6874020  78.1256830  21.2633310
  56.0322860  77.8568470  20.6193010  57.5251970  78.0161310  20.8135290
  74.1929650  80.4569000  21.8767580  74.5638480  79.6736320  21.4703550
  74.8331580  81.1458100  21.6984880  71.1763410  81.8405580  27.2897900
  70.3623250  82.2702740  27.5523690  71.5837610  82.4523990  26.6766950
  73.2388850  79.8953270  14.1898170  73.5137690  80.8032150  14.0617390
  73.0499590  79.8315800  15.1260160  69.6364460  72.9198120  15.4851800
  70.0549340  72.7329100  14.6448460  69.3300520  72.0677170  15.7954730
  73.1354190  77.8322260  19.1827600  72.7597790  77.0650190  18.7508890
  72.4057310  78.2144960  19.6702530  72.5253810  76.9793780  28.8167120
  72.2939900  76.7506530  27.9165070  72.7858360  77.8993330  28.7712010
  70.9641880  72.2050210  31.5946820  71.8412060  72.2133610  31.9780820
  70.9762720  71.4681050  30.9839170  55.9012100  75.3355760  17.2058640
  54.9976180  75.5985960  17.0310300  56.3852720  75.6066930  16.4258600
  72.4105150  76.0579750  22.4834840  72.9342630  75.5642400  21.8525010
  72.9964570  76.1930110  23.2282410  72.5894870  76.1419620  26.0054390
  71.6397580  76.1083160  26.1199380  72.7707880  77.0519730  25.7704160
  58.4439310  74.3921300  15.1153020  59.1531010  73.9704520  14.6300300
  57.7279250  74.4596530  14.4836370  58.0913470  70.4460630  14.1555670
  58.8141600  70.9869570  14.4736890  58.3637990  70.1724050  13.2797210
  71.9005120  75.3153100  18.4227250  72.3964240  75.0823970  19.2076130
  71.7021190  74.4764940  18.0064890  57.7805660  69.6966820  24.0578290
  58.4281850  69.1464200  23.6173450  58.2007500  69.9509970  24.8794100
  73.3292280  73.9514050  20.9564930  73.2191560  73.7970090  21.8947200
  74.0899870  73.4234990  20.7140340  71.6758000  69.8908180  27.4147930
  72.3130220  70.5042320  27.7807120  71.8232890  69.9268840  26.4697160
  74.2182550  71.7821970  14.1971070  75.1431860  71.6503150  13.9889360
  74.1958340  71.8614790  15.1507520  74.2921040  72.5532630  16.8227780
  73.4972540  72.4877750  17.3520690  74.4964320  73.4883270  16.8113130
  71.2339460  86.5924180  20.8166170  71.8298530  86.2708750  20.1400590
  71.4917610  86.1196000  21.6079440  59.1402030  83.0242090  30.9656800
  59.0971660  82.6535000  31.8471260  59.2713040  83.9619660  31.1058620
  62.8408060  84.5801680  26.5666520  62.5999420  84.8476240  25.6797040
  63.7810700  84.7507410  26.6217380  74.1012220  86.5996060  27.3677160
  73.6070500  86.9964930  26.6504290  73.4925510  85.9745270  27.7614440
  58.9790060  85.9704340  28.0854580  58.3850380  85.8389040  28.8244620
  58.9713900  85.1342480  27.6196680  69.3317060  71.4707440  27.6726330
  69.0030420  70.6559200  27.2928060  70.2799360  71.4277250  27.5492020
  71.7851670  87.2419480  24.6463900  71.3254640  87.9935290  24.2721920
  71.1564130  86.5225950  24.5878700  58.6102290  83.3362720  27.0362620
  57.8836350  82.7168010  26.9688570  58.6711440  83.7303330  26.1660700
  62.2147390  85.5507720  23.8212030  62.7312410  84.9395080  23.2960290
  62.8644770  86.0536500  24.3123040  64.9542890  86.4416210  24.6481010
  65.2420700  86.1870510  23.7714020  65.4666110  85.8893570  25.2386580
  70.7240970  70.8829510  23.2726610  71.1649060  70.8274610  22.4248210
  70.4548560  71.7987520  23.3436790  72.5879540  70.5144750  21.2835430
  72.5267940  69.5705970  21.1366450  73.3671570  70.6224840  21.8288890
  56.8932290  86.6537110  20.2459380  56.7254330  86.0207790  20.9441270
  56.0266800  86.8596510  19.8953570  57.5160310  70.4853890  17.7491240
  58.2739670  70.5982770  17.1755270  57.0537480  71.3223090  17.7034670
  64.0574120  72.5993160  20.7393550  63.2448630  72.2250050  20.3989430
  64.5615760  71.8438240  21.0414740  68.5599100  69.2635610  21.9776620
  69.1628470  69.8355820  22.4525140  67.8192090  69.8275050  21.7550520
  71.7033700  69.6657170  17.2516900  71.8984330  70.5640620  17.5184330
  70.9163570  69.4344250  17.7449850  58.4994990  85.3470340  17.6909520
  57.9742610  85.7278370  16.9871480  58.4239570  85.9721110  18.4119230
  59.8885460  71.0117940  16.2893210  60.4178220  70.2247740  16.1601160
  60.5213780  71.6909130  16.5228740  62.0823300  70.7493080  19.3438600
  61.4526040  70.0480390  19.5108730  61.5428440  71.5097210  19.1271760
  65.0215250  87.3632310  32.0149210  65.9482560  87.1276580  32.0585170
  65.0065680  88.1904310  31.5335240  73.2560310  86.9057880  19.0123460
  73.4312500  86.2195620  18.3684380  72.5581880  87.4304930  18.6200130
  61.0987960  87.2952720  16.5658770  61.8306780  87.0112000  16.0182660
  61.3581630  87.0566000  17.4558150  60.2602750  83.4117450  16.5705100
  59.6311630  83.8802550  17.1190930  60.3750580  82.5666670  17.0051290
  71.5892810  86.5902170  31.8390250  72.3818130  86.0951400  31.6316210
  71.8825960  87.2692310  32.4465860  67.7152470  77.4623110   2.7206300
  67.6346520  76.5477720   2.4498010  67.3016890  77.9590180   2.0146010
  65.8470510  79.2402130   4.6015570  65.0712610  78.7602570   4.8914140
  66.4983440  78.5607780   4.4271730  59.8636340  79.5521940   5.4791330
  59.0321220  79.2970650   5.8787840  60.4717320  79.6232710   6.2149250
  69.8677940  83.6462320   3.3814700  69.4059470  82.8749560   3.7101870
  70.6803490  83.6728390   3.8867150  59.8437600  83.5862030   5.6749350
  60.1465640  82.6959770   5.4959570  60.5881190  84.1432250   5.4471600
  56.2361300  77.1129480   5.1473420  56.8077410  76.3451680   5.1477060
  56.2362840  77.4118240   4.2380030  66.0941250  85.9320330   3.0018690
  65.4752690  86.3877830   2.4313130  66.9493030  86.0871790   2.6008390
  65.2879500  81.9159320   4.6085730  65.2187780  80.9749260   4.4474860
  66.0499360  82.0060730   5.1808300  57.4786170  72.5213840   6.9342350
  57.2989010  71.6239590   7.2145110  57.0766250  73.0685710   7.6089300
  66.3184670  74.7229700   4.8354660  66.6949490  73.8501580   4.7228330
  66.2204180  75.0588400   3.9445100  70.1008790  72.2180140   1.7683000
  70.9218410  71.7276710   1.8108480  70.1342870  72.8077800   2.5214840
  58.0972840  75.0174340   5.5424690  58.7782950  75.2812710   6.1612090
  57.7820890  74.1775210   5.8762700  62.2897410  76.0641700   4.6297280
  62.7975630  76.5622670   5.2702300  62.8210650  75.2876900   4.4536640
  74.3908340  74.2346890   8.3326630  73.6860510  74.6228600   7.8141740
  74.6566260  74.9297180   8.9347560  60.5733510  70.7040260   8.8960700
  60.5751950  71.2212650   8.0906600  59.7437820  70.2270440   8.8730630
  61.8236360  80.3435440   7.0734200  61.4905740  80.9704360   7.7155270
  62.0003040  80.8697320   6.2935870  70.3370270  74.1580520   4.5410540
  69.6325840  74.4465410   5.1213650  70.6982430  74.9680630   4.1810100
  60.2548840  72.4150220   6.9031150  60.5965650  73.2592270   6.6085020
  59.3164650  72.5633960   7.0196490  61.0355460  82.3116240   8.8883380
  61.6529460  82.9867320   8.6067830  60.1748580  82.7204220   8.7970880
  71.9533050  83.7755650   6.8038020  71.2696570  84.4454760   6.7954690
  72.4927340  83.9736300   6.0382880  73.4057190  73.6035310   4.9319750
  72.4582100  73.6374290   5.0635180  73.7307180  74.4174260   5.3169110
  63.9376730  69.9032490   3.2275740  64.2451710  69.3479380   2.5111240
  63.0077430  70.0376950   3.0448730  69.4891790  85.6199780   5.5183200
  69.5018950  85.2162070   4.6505460  68.9367010  86.3947070   5.4144630
  68.8877230  80.5229620   6.8465810  69.3046020  80.3089730   6.0119270
  69.6117050  80.7802410   7.4174430  72.8339330  78.9216840   6.9382050
  72.0057960  78.9909930   6.4632180  73.4289810  79.5071150   6.4697880
  69.7981340  75.7086160   7.8836920  69.3852520  76.5339870   8.1376910
  69.0657290  75.1231200   7.6913280  61.9314130  78.4946060   2.7455590
  61.5271130  77.7823310   2.2501490  62.0177250  78.1499300   3.6343630
  62.3995830  82.1813620   4.9094800  62.1024120  81.5759090   4.2302580
  63.3495650  82.2190930   4.7984160  60.6442750  75.2689270   6.5254630
  61.1957340  75.3784610   5.7507880  61.1586260  75.6426870   7.2409860
  70.4881440  85.7545490   8.5717900  70.0112000  86.5617680   8.3790510
  69.8043230  85.1023820   8.7244110  61.4914260  81.9195310  11.5602600
  60.5942790  82.1435280  11.8076000  61.5167130  82.0430250  10.6114000
  60.3185480  78.7908630  10.1359970  60.1793250  79.6631430  10.5047370
  59.4366840  78.4481440   9.9907910  62.1165830  84.7330330  12.3445120
  62.0881260  85.1373280  11.4773550  61.9530800  83.8040690  12.1816720
  74.0680650  85.5157430  13.6409290  74.5440370  85.9940320  14.3198370
  74.6887810  85.4474920  12.9154790  56.2704130  80.5606180   6.0530880
  56.3484550  80.6954950   5.1086600  56.8845810  79.8522070   6.2459000
  57.5151760  82.2606370   2.4637060  57.1079840  82.4020960   1.6090660
  58.4064770  81.9766530   2.2608270  73.4713900  82.7070280  10.8009300
  73.5976960  82.4682160   9.8826480  73.5135280  81.8754820  11.2731380
  67.3330640  86.4098280   9.3704110  67.8475310  86.3206290  10.1726540
  66.4899720  86.7557980   9.6632020  73.3237910  74.7602740  11.7659040
  72.7082180  75.2682410  11.2374500  73.0034330  73.8601070  11.7084980
  56.3263650  81.6020350   8.5925340  56.4894690  81.1325710   7.7744710
  56.7916100  81.0943910   9.2574180  61.0982420  70.7326110   3.6285910
  60.6550570  71.5135650   3.2970430  61.6567410  71.0556000   4.3356850
  65.3852230  73.5994630   9.2321230  64.9231600  73.8077650  10.0441170
  64.9830340  72.7853980   8.9291900  70.3856740  74.8203580  10.3617890
  69.5350330  74.5209330  10.6826960  70.2258530  75.0645590   9.4501710
  67.4806450  76.3205330  12.4616680  67.8059860  75.4869080  12.1218910
  68.2686780  76.8433850  12.6095010  63.1358320  71.2773440   5.4875510
  63.4330650  72.1836270   5.4067530  63.6843880  70.7892220   4.8735080
  63.3295850  76.7545260  12.0227430  63.2339450  75.8139990  11.8727830
  64.1727830  76.9760330  11.6275500  58.4606390  73.1658930  10.1761210
  58.0669780  74.0134140  10.3833990  57.7724790  72.5285300  10.3669850
  65.0351440  73.2493900  13.2457950  64.3449760  73.0566100  13.8804040
  65.7783740  73.5328540  13.7782250  55.7623440  71.0887390   4.2091290
  55.4736490  71.6590250   4.9216270  56.5069200  70.6091840   4.5722520
  67.3114410  77.0892340   6.0811870  66.5795530  77.5979150   6.4301970
  66.9138750  76.2722320   5.7800650  63.7491800  73.7646540   4.4864360
  63.7527860  73.3236490   3.6368900  64.6442920  74.0863870   4.5936180
  59.5994180  73.6473030   3.4458570  59.2594230  74.1248260   4.2025620
  58.8371500  73.1938150   3.0859670  67.7740320  72.5426020   5.4934810
  67.7913060  72.9934670   6.3376660  67.5255900  71.6431660   5.7068250
  71.2011070  69.9558200  11.3321190  71.5256840  69.2247860  11.8579170
  71.2367580  69.6371840  10.4302180  57.9002630  80.9771780  10.7521150
  57.5157420  80.3365450  11.3504110  58.2114820  81.6807900  11.3215880
  64.0499770  77.8248320   6.2329770  64.4169900  77.3506890   6.9791110
  63.8604830  78.6989890   6.5738110  56.9140260  72.5692010   2.3623240
  56.6287180  72.2047680   3.2001860  56.8519120  71.8372470   1.7486380
  61.8399140  76.8656960   8.5513980  61.5356210  77.7448940   8.7764340
  62.7945600  76.9256750   8.5871420  71.1268910  80.0683310   4.9407220
  71.8468030  80.5638600   4.5503330  70.9250730  79.3901200   4.2961090
  66.5087710  80.1392370  10.8276220  66.4425020  79.2188040  10.5733810
  65.8792850  80.2367810  11.5420860  60.4118330  80.7398330   2.7859640
  60.9297000  79.9366590   2.7316530  59.9602350  80.6777470   3.6276470
  57.8962870  77.7059700   9.6985340  57.5377810  78.3713550  10.2858680
  57.6017430  76.8743250  10.0697960  61.0975990  78.1643940  12.5824890
  60.7976130  78.3101120  11.6852710  61.8687230  77.6049230  12.4898280
  66.4404440  82.9612940  10.5780020  66.4548980  82.0293900  10.3598930
  65.7329540  83.0472700  11.2169790  72.6515650  79.6020280   9.9248600
  71.9263840  80.1949060   9.7277990  73.1791110  79.5943820   9.1261970
  68.1815240  81.3280450   3.4232450  68.5339060  80.7308580   2.7633820
  67.2977570  81.0024680   3.5940700  65.8738340  84.6030510   7.6720520
  66.5180560  84.8089890   8.3493940  66.2367780  83.8418910   7.2191370
  67.1470420  82.6062860   6.3897970  67.7892650  81.9056020   6.5030140
  67.6719770  83.3861300   6.2094860  68.9208040  83.4057760   9.5934030
  69.2564280  83.9924450  10.2711950  68.0008380  83.2750470   9.8231820
  56.4711440  71.1952940  10.3757440  55.7569960  71.3949860  10.9810050
  56.8906480  70.4192510  10.7472240  56.7584030  85.1833200  11.3623970
  56.8675150  84.2427940  11.2219360  56.1064590  85.4487950  10.7137700
  64.7496620  83.4549090  12.7622090  64.4293490  82.7358330  13.3067780
  64.0754980  84.1304160  12.8358150  67.9650220  73.6875250   8.1258890
  68.3331040  72.8670460   8.4538460  67.1048420  73.7477140   8.5414540
  64.9252210  76.3414840   8.3496860  65.4237460  76.8160660   9.0148710
  65.0675160  75.4178360   8.5566890  72.1319070  72.5582800   9.1925250
  71.6292670  73.2988200   9.5319060  72.9475730  72.9466800   8.8762040
  70.4241080  77.8015980   2.6386610  69.4831220  77.8166210   2.8134300
  70.7385150  77.0151940   3.0846910  72.4266660  84.9724830   4.3140870
  72.5514080  85.7956000   4.7864680  73.2932220  84.7615560   3.9665020
  59.8984190  87.0656040   3.9858000  60.6346670  86.5171500   4.2566570
  60.2825110  87.9312050   3.8463990  58.9042470  86.2502110  13.1743580
  59.7055200  86.5714160  13.5878980  58.3894290  85.8897690  13.8963490
  67.7407100  82.3581980  13.1218990  67.1345260  82.3813580  12.3814740
  67.4361210  81.6265020  13.6586240  69.1707470  86.0862270  11.7328400
  70.1229220  86.0020290  11.6828640  69.0235690  86.7503980  12.4062190
  56.6240280  78.7375570  12.1179630  57.1279300  78.1582850  12.6895860
  55.8847700  79.0215800  12.6556000  63.6778220  80.1446560  11.6515150
  62.9123890  80.7131560  11.5669820  63.8594180  79.8522770  10.7583380
  70.8201570  81.8751890  12.2090170  71.5611040  82.2127650  11.7057630
  70.0574250  82.0443950  11.6559940  58.6563360  76.8805160  13.0129700
  58.6968700  76.5819030  13.9214930  59.5108860  77.2812770  12.8537220
  60.5969170  75.4597260  10.9804190  60.0665630  74.9688210  10.3527530
  61.2657240  75.8881460  10.4462120  69.4947230  79.9266720  10.7445380
  69.9088250  80.0811800  11.5935800  68.5598230  80.0521940  10.9071160
  69.9669400  77.2662880  12.7484530  70.5490170  76.5115200  12.6605010
  70.1431170  77.7970320  11.9716010  61.0841470  72.4259630  11.0601480
  60.9898340  71.8080380  10.3352350  60.5038860  73.1525920  10.8331390
  63.8502910  70.9832870   8.0928870  63.4020210  71.0057130   7.2474420
  63.2168110  70.5851890   8.6899170  64.2562460  79.8787200   8.7141310
  64.6750570  80.7219930   8.5417550  63.3371090  80.0159240   8.4848090
  66.5926360  77.6103380  10.0979150  66.7122570  77.0144520  10.8373990
  67.4520360  77.6473070   9.6780450  68.9314260  78.1640570   8.6741660
  68.4049480  78.6883190   8.0706800  69.2745600  78.7967960   9.3051390
  62.1069880  86.1840210   9.8299040  61.5690970  86.9086270   9.5107740
  62.3603840  85.7070550   9.0396380  63.3595130  74.1524730  11.3554970
  63.9494820  73.8440580  12.0432790  62.5415370  73.6804480  11.5114870
  68.1788560  73.7690540  11.5887990  67.4904080  73.1072080  11.5237980
  68.8994580  73.3228810  12.0336450  64.9632090  87.4191420  10.0885690
  64.8890790  88.3226560  10.3958060  64.0610930  87.1003320  10.0607760
  56.3659380  84.7466010   3.3919310  56.6962390  83.8787070   3.1597950
  56.7950380  84.9524530   4.2224270  56.8549590  85.6136600   6.1300940
  56.4180580  85.7937400   6.9625090  57.4227270  86.3711220   5.9882660
  72.4911770  85.1153600  10.4178250  71.8913760  85.1746160   9.6742170
  72.6205670  84.1758580  10.5475100  56.6874020  78.1256830   2.4889820
  56.0322860  77.8568470   1.8449520  57.5251970  78.0161310   2.0391800
  74.1929650  80.4569000   3.1024090  74.5638480  79.6736320   2.6960060
  74.8331580  81.1458100   2.9241390  71.1763410  81.8405580   8.5154410
  70.3623250  82.2702740   8.7780200  71.5837610  82.4523990   7.9023460
  57.7249950  78.5109400   7.0293160  58.0922990  78.4236800   7.9089180
  57.1560770  77.7475950   6.9300020  72.5253810  76.9793780  10.0423630
  72.2939900  76.7506530   9.1421580  72.7858360  77.8993330   9.9968520
  57.2765950  75.4218490  10.9351580  56.3822000  75.3885250  11.2745290
  57.8163500  75.6205280  11.7002830  70.9641880  72.2050210  12.8203330
  71.8412060  72.2133610  13.2037330  70.9762720  71.4681050  12.2095680
  72.4105150  76.0579750   3.7091350  72.9342630  75.5642400   3.0781520
  72.9964570  76.1930110   4.4538920  72.5894870  76.1419620   7.2310900
  71.6397580  76.1083160   7.3455890  72.7707880  77.0519730   6.9960670
  57.7805660  69.6966820   5.2834800  58.4281850  69.1464200   4.8429960
  58.2007500  69.9509970   6.1050610  73.3292280  73.9514050   2.1821440
  73.2191560  73.7970090   3.1203710  74.0899870  73.4234990   1.9396850
  71.6758000  69.8908180   8.6404440  72.3130220  70.5042320   9.0063630
  71.8232890  69.9268840   7.6953670  57.5337660  69.8522490   8.0260120
  57.1852480  70.3086310   8.7918300  57.2025360  68.9579620   8.1082550
  59.1402030  83.0242090  12.1913310  59.0971660  82.6535000  13.0727770
  59.2713040  83.9619660  12.3315130  62.8408060  84.5801680   7.7923030
  62.5999420  84.8476240   6.9053550  63.7810700  84.7507410   7.8473890
  65.0462480  71.0434370  11.5479540  64.9851370  71.6356200  12.2974950
  65.9862860  70.9360330  11.4029800  67.6837040  70.7004430  11.1871830
  68.2977450  71.0183720  10.5252910  68.2286600  70.2153020  11.8067690
  74.1012220  86.5996060   8.5933670  73.6070500  86.9964930   7.8760800
  73.4925510  85.9745270   8.9870950  58.2058300  69.3798690  11.3010890
  58.7541290  69.1986740  10.5377000  58.2713610  68.5892800  11.8367200
  58.9790060  85.9704340   9.3111090  58.3850380  85.8389040  10.0501130
  58.9713900  85.1342480   8.8453190  68.4245080  69.2636570   7.5141120
  67.5504920  69.5971680   7.3114050  68.3155830  68.7909750   8.3392990
  69.3317060  71.4707440   8.8982840  69.0030420  70.6559200   8.5184570
  70.2799360  71.4277250   8.7748530  71.7851670  87.2419480   5.8720410
  71.3254640  87.9935290   5.4978430  71.1564130  86.5225950   5.8135210
  58.6102290  83.3362720   8.2619130  57.8836350  82.7168010   8.1945080
  58.6711440  83.7303330   7.3917210  62.2147390  85.5507720   5.0468540
  62.7312410  84.9395080   4.5216800  62.8644770  86.0536500   5.5379550
  64.9542890  86.4416210   5.8737520  65.2420700  86.1870510   4.9970530
  65.4666110  85.8893570   6.4643090  66.1719900  70.1806410   6.4534030
  65.3891690  70.6551910   6.7330790  65.8782830  69.2761240   6.3447210
  70.7240970  70.8829510   4.4983120  71.1649060  70.8274610   3.6504720
  70.4548560  71.7987520   4.5693300  72.5879540  70.5144750   2.5091940
  72.5267940  69.5705970   2.3622960  73.3671570  70.6224840   3.0545400
  64.0574120  72.5993160   1.9650060  63.2448630  72.2250050   1.6245940
  64.5615760  71.8438240   2.2671250  68.5599100  69.2635610   3.2033130
  69.1628470  69.8355820   3.6781650  67.8192090  69.8275050   2.9807030
  65.0215250  87.3632310  13.2405720  65.9482560  87.1276580  13.2841680
  65.0065680  88.1904310  12.7591750  62.2078860  70.0277060  13.0047600
  61.9263130  70.5310660  12.2408420  62.5898560  69.2298810  12.6389730
  68.8094320  69.4430640  13.5828070  68.6959770  69.7625250  14.4779590
  69.6264060  69.8443150  13.2865350  71.5892810  86.5902170  13.0646760
  72.3818130  86.0951400  12.8572720  71.8825960  87.2692310  13.6722370
  67.7152470  58.6879620  59.0436770  67.6346520  57.7734230  58.7728480
  67.3016890  59.1846690  58.3376480  65.8470510  60.4658640  60.9246040
  65.0712610  59.9859080  61.2144610  66.4983440  59.7864290  60.7502200
  59.8636340  60.7778450  61.8021800  59.0321220  60.5227160  62.2018310
  60.4717320  60.8489220  62.5379720  69.8677940  64.8718830  59.7045170
  69.4059470  64.1006070  60.0332340  70.6803490  64.8984900  60.2097620
  59.8437600  64.8118540  61.9979820  60.1465640  63.9216280  61.8190040
  60.5881190  65.3688760  61.7702070  58.2728290  55.7380340  55.5864190
  57.3844990  56.0796310  55.4844070  58.5569480  55.5380660  54.6945020
  56.2361300  58.3385990  61.4703890  56.8077410  57.5708190  61.4707530
  56.2362840  58.6374750  60.5610500  66.0941250  67.1576840  59.3249160
  65.4752690  67.6134340  58.7543600  66.9493030  67.3128300  58.9238860
  65.2879500  63.1415830  60.9316200  65.2187780  62.2005770  60.7705330
  66.0499360  63.2317240  61.5038770  66.3184670  55.9486210  61.1585130
  66.6949490  55.0758090  61.0458800  66.2204180  56.2844910  60.2675570
  60.4489680  54.3211840  56.6202570  60.5556430  55.2215570  56.9271330
  59.5382040  54.2729810  56.3297220  70.1008790  53.4436650  58.0913470
  70.9218410  52.9533220  58.1338950  70.1342870  54.0334310  58.8445310
  58.0972840  56.2430850  61.8655160  58.7782950  56.5069220  62.4842560
  57.7820890  55.4031720  62.1993170  62.2897410  57.2898210  60.9527750
  62.7975630  57.7879180  61.5932770  62.8210650  56.5133410  60.7767110
  66.9604600  62.0416080  56.7181070  66.3421870  62.5065530  56.1543790
  67.4727850  62.7343560  57.1350580  70.3370270  55.3837030  60.8641010
  69.6325840  55.6721920  61.4444120  70.6982430  56.1937140  60.5040570
  60.2548840  53.6406730  63.2261620  60.5965650  54.4848780  62.9315490
  59.3164650  53.7890470  63.3426960  56.3287800  62.7272610  54.0920700
  55.9515780  63.2159710  53.3605600  56.5860870  63.3997890  54.7227230
  71.9533050  65.0012160  63.1268490  71.2696570  65.6711270  63.1185160
  72.4927340  65.1992810  62.3613350  73.4057190  54.8291820  61.2550220
  72.4582100  54.8630800  61.3865650  73.7307180  55.6430770  61.6399580
  63.9376730  51.1289000  59.5506210  64.2451710  50.5735890  58.8341710
  63.0077430  51.2633460  59.3679200  69.4891790  66.8456290  61.8413670
  69.5018950  66.4418580  60.9735930  68.9367010  67.6203580  61.7375100
  70.7837210  63.5672510  56.9303840  70.6733540  62.6246840  57.0553260
  70.7805460  63.9288150  57.8166600  66.3257490  59.1937830  56.2866330
  65.3986770  59.1275210  56.5154800  66.4782310  60.1317960  56.1721570
  66.3126570  55.4654830  53.2833490  65.3730240  55.6268790  53.3685950
  66.6309830  56.1840510  52.7369480  72.8339330  60.1473350  63.2612520
  72.0057960  60.2166440  62.7862650  73.4289810  60.7327660  62.7928350
  70.3554780  60.7558130  56.7901580  69.7367200  60.4177680  56.1427880
  70.3379230  60.1117890  57.4980770  61.9314130  59.7202570  59.0686060
  61.5271130  59.0079820  58.5731960  62.0177250  59.3755810  59.9574100
  62.3995830  63.4070130  61.2325270  62.1024120  62.8015600  60.5533050
  63.3495650  63.4447440  61.1214630  68.5319480  59.9944940  53.7974330
  68.9712760  59.1567370  53.6512150  69.2447900  60.6274340  53.8838470
  66.6414860  64.9341010  57.7655570  67.0810770  65.6765340  57.3510960
  66.5801750  65.1767580  58.6894530  72.1136620  51.2487750  52.1115370
  71.8009280  51.3414580  53.0114440  72.8749090  51.8268780  52.0612800
  58.6318760  58.6147550  56.5692710  58.5116360  59.3409640  55.9573980
  58.3219650  57.8450460  56.0920620  56.2704130  61.7862690  62.3761350
  56.3484550  61.9211460  61.4317070  56.8845810  61.0778580  62.5689470
  57.5151760  63.4862880  58.7867530  57.1079840  63.6277470  57.9321130
  58.4064770  63.2023040  58.5838740  69.3085040  67.9210130  55.1218580
  69.1486180  67.6313070  56.0200410  69.1431750  67.1450260  54.5863810
  61.7873420  67.7008660  56.8990200  61.6115900  66.7844200  56.6858000
  60.9329160  68.0595950  57.1388000  69.0111170  65.4297690  53.6816580
  68.3176330  65.4274980  53.0218860  69.7534030  65.0057010  53.2510750
  68.5761100  67.0560400  57.7565070  69.0318050  66.2749780  58.0703690
  68.9153620  67.7667220  58.3006250  61.0982420  51.9582620  59.9516380
  60.6550570  52.7392160  59.6200900  61.6567410  52.2812510  60.6587320
  64.2141240  51.5793320  54.8322210  63.5895420  51.5753190  55.5575520
  64.1271360  50.7124280  54.4358180  63.1358320  52.5029950  61.8105980
  63.4330650  53.4092780  61.7298000  63.6843880  52.0148730  61.1965550
  60.8896640  57.0816190  57.6797630  60.6637560  56.8653360  58.5844250
  60.1089170  57.5144650  57.3343600  68.1194400  57.0879560  56.2788280
  67.5203290  57.8115360  56.0951900  68.6674010  57.0256340  55.4964730
  66.7259270  55.7243100  58.3091560  67.1188840  56.0415300  57.4960250
  67.0876120  54.8454980  58.4236080  55.7623440  52.3143900  60.5321760
  55.4736490  52.8846760  61.2446740  56.5069200  51.8348350  60.8952990
  55.9493670  56.2564020  51.7424480  55.8668340  57.1994780  51.8839470
  55.5976730  56.1138930  50.8636830  67.3114410  58.3148850  62.4042340
  66.5795530  58.8235660  62.7532440  66.9138750  57.4978830  62.1031120
  63.7491800  54.9903050  60.8094830  63.7527860  54.5493000  59.9599370
  64.6442920  55.3120380  60.9166650  59.5994180  54.8729540  59.7689040
  59.2594230  55.3504770  60.5256090  58.8371500  54.4194660  59.4090140
  63.8111950  55.9915130  53.8001590  63.9324770  55.9501610  54.7487410
  63.4260460  56.8539280  53.6448320  67.7740320  53.7682530  61.8165280
  67.7913060  54.2191180  62.6607130  67.5255900  52.8688170  62.0298720
  62.8233450  58.3016270  53.1984890  62.2550350  57.8534520  52.5720800
  63.5322450  58.6609050  52.6650040  64.0499770  59.0504830  62.5560240
  64.4169900  58.5763400  63.3021580  63.8604830  59.9246400  62.8968580
  56.9140260  53.7948520  58.6853710  56.6287180  53.4304190  59.5232330
  56.8519120  53.0628980  58.0716850  60.3680930  62.2974460  55.4711300
  59.5943190  61.7572080  55.3110020  61.0975560  61.7781070  55.1329060
  71.1268910  61.2939820  61.2637690  71.8468030  61.7895110  60.8733800
  70.9250730  60.6157710  60.6191560  66.5878850  52.6877780  55.4067080
  65.7743460  52.1890950  55.3312390  66.3940800  53.5276030  54.9903430
  69.3027240  57.0597430  53.7029240  70.1906860  57.3714660  53.5280580
  69.2732330  56.1869680  53.3109820  60.4118330  61.9654840  59.1090110
  60.9297000  61.1623100  59.0547000  59.9602350  61.9033980  59.9506940
  65.2987830  63.2321120  54.3817410  65.6403530  63.9763350  53.8860730
  64.4700540  63.5452240  54.7442240  71.5741510  58.3709270  53.1709100
  71.4905230  58.8023490  52.3205540  72.2935700  58.8307620  53.6035920
  72.6028760  65.2251530  55.8991230  71.9604920  64.5707150  56.1734950
  72.2159420  65.6306620  55.1231900  68.1815240  62.5536960  59.7462920
  68.5339060  61.9565090  59.0864290  67.2977570  62.2281190  59.9171170
  64.2678520  63.3134650  57.1533330  64.9549650  63.8603860  57.5340920
  63.4810940  63.8575380  57.1882940  56.4070920  58.9307470  52.6450410
  57.2765770  59.2132270  52.9286330  55.9161240  59.7443340  52.5299220
  63.5705730  60.3180680  56.7658690  64.0268510  61.1285930  56.9918880
  63.2193940  60.0003820  57.5977180  59.4717510  50.6618330  57.2381210
  59.3432140  50.6536230  58.1866130  58.6479530  51.0001420  56.8872220
  67.1470420  63.8319370  62.7128440  67.7892650  63.1312530  62.8260610
  67.6719770  64.6117810  62.5325330  70.9926140  64.1167990  52.4367580
  70.7663720  63.3998430  53.0292220  70.6022340  63.8680430  51.5989330
  56.7742170  68.1434850  53.2112040  57.1339810  68.7424190  52.5569310
  56.6334510  68.6894740  53.9847070  70.5742390  62.0339930  54.0981740
  70.2864090  62.4952620  54.8859620  71.3694560  61.5737700  54.3665960
  62.7910790  65.5266050  54.0285710  62.7820890  66.2595740  53.4130220
  61.8709150  65.2797630  54.1212670  58.3917430  60.7480940  54.7732470
  57.7845380  61.4879840  54.7827770  58.8666780  60.8380300  53.9470670
  71.3312250  53.8688700  55.2576920  70.7025410  53.9734370  54.5435150
  70.8364170  54.0885480  56.0470800  65.7770390  65.5894290  52.6910900
  65.8782370  65.3858280  51.7612880  64.8772130  65.3352570  52.8958680
  63.2996280  56.1474650  56.6734800  62.5912430  56.6160990  57.1148410
  63.5840760  55.4896660  57.3079990  67.3311710  52.8725310  58.1130590
  67.2079490  52.8911440  57.1640100  68.2796270  52.9204250  58.2328990
  64.4188500  68.1080610  57.3858570  64.6730000  68.0702000  56.4637940
  63.4700980  67.9813940  57.3786820  61.5031300  54.4559730  54.0485510
  62.3521830  54.8929880  53.9825700  61.1362570  54.7679990  54.8757570
  70.4241080  59.0272490  58.9617080  69.4831220  59.0422720  59.1364770
  70.7385150  58.2408450  59.4077380  60.4022720  60.7092090  52.5221040
  61.1685990  60.5973450  53.0846470  60.4797410  60.0130060  51.8697810
  59.0969480  58.1417160  53.2053930  59.1773070  57.1944670  53.3171330
  59.9889230  58.4724040  53.3114590  72.4266660  66.1981340  60.6371340
  72.5514080  67.0212510  61.1095150  73.2932220  65.9872070  60.2895490
  59.8984190  68.2912550  60.3088470  60.6346670  67.7428010  60.5797040
  60.2825110  69.1568560  60.1694460  56.7829670  64.3586120  56.1829980
  55.8569450  64.6007260  56.1735390  57.2486100  65.1860380  56.0614730
  63.0086500  67.4642860  52.1314040  63.8015110  67.7531690  51.6795830
  62.4890850  67.0335030  51.4526520  72.0616670  66.6912990  53.5550780
  71.7758180  66.2778130  52.7404960  71.8636220  67.6200700  53.4351300
  63.5263900  62.6846270  51.9956390  63.4214540  62.0698620  52.7217770
  63.3588120  62.1612160  51.2119400  66.7666630  61.7466300  52.5998380
  66.2176730  62.1935600  53.2441120  67.3885890  61.2415550  53.1236050
  62.4341750  60.7057220  54.4963680  62.8558170  60.5397090  55.3395070
  62.5592590  59.8957450  54.0018820  64.9469390  59.7294830  51.7440780
  65.4675050  59.0143850  51.3781930  65.5937790  60.3680700  52.0441290
  61.3300650  56.7790450  51.4421840  61.1289710  55.9157810  51.8035180
  61.1592700  56.6923810  50.5043440  68.8088960  51.5898680  53.9708720
  69.0891250  50.7466580  54.3268140  68.0354690  51.8221790  54.4847470
  60.1283450  53.8791070  51.4299720  60.4309350  53.8858500  50.5218870
  60.8678040  53.5288930  51.9267380  63.3468380  52.8225690  52.4155920
  62.9990380  52.1449680  51.8358370  63.5481150  52.3615200  53.2299310
  65.5117420  67.8106440  54.0342520  66.4068210  68.1491410  54.0561280
  65.5435050  67.0885850  53.4066800  59.1513580  63.1833490  52.2629520
  59.5888450  63.7263160  52.9187100  59.6361310  62.3580440  52.2725860
  56.3659380  65.9722520  59.7149780  56.6962390  65.1043580  59.4828420
  56.7950380  66.1781040  60.5454740  60.9621300  64.3031530  57.3751750
  60.6616840  64.1796500  58.2755660  60.8558790  63.4440120  56.9667480
  56.8549590  66.8393110  62.4531410  56.4180580  67.0193910  63.2855560
  57.4227270  67.5967730  62.3113130  73.7313220  64.0827930  52.0778430
  72.9006180  64.1504580  52.5485660  73.9085050  64.9732050  51.7745290
  73.1869680  60.8275410  54.5812630  73.9488590  61.3972060  54.6872320
  73.2024050  60.2602610  55.3520940  56.6874020  59.3513340  58.8120290
  56.0322860  59.0824980  58.1679990  57.5251970  59.2417820  58.3622270
  74.1929650  61.6825510  59.4254560  74.5638480  60.8992830  59.0190530
  74.8331580  62.3714610  59.2471860  73.2388850  61.1209780  51.7385150
  73.5137690  62.0288660  51.6104370  73.0499590  61.0572310  52.6747140
  69.6364460  54.1454630  53.0338780  70.0549340  53.9585610  52.1935440
  69.3300520  53.2933680  53.3441710  73.1354190  59.0578770  56.7314580
  72.7597790  58.2906700  56.2995870  72.4057310  59.4401470  57.2189510
  55.9012100  56.5612270  54.7545620  54.9976180  56.8242470  54.5797280
  56.3852720  56.8323440  53.9745580  72.4105150  57.2836260  60.0321820
  72.9342630  56.7898910  59.4011990  72.9964570  57.4186620  60.7769390
  58.4439310  55.6177810  52.6640000  59.1531010  55.1961030  52.1787280
  57.7279250  55.6853040  52.0323350  58.0913470  51.6717140  51.7042650
  58.8141600  52.2126080  52.0223870  58.3637990  51.3980560  50.8284190
  71.9005120  56.5409610  55.9714230  72.3964240  56.3080480  56.7563110
  71.7021190  55.7021450  55.5551870  57.7805660  50.9223330  61.6065270
  58.4281850  50.3720710  61.1660430  58.2007500  51.1766480  62.4281080
  73.3292280  55.1770560  58.5051910  73.2191560  55.0226600  59.4434180
  74.0899870  54.6491500  58.2627320  74.2182550  53.0078480  51.7458050
  75.1431860  52.8759660  51.5376340  74.1958340  53.0871300  52.6994500
  74.2921040  53.7789140  54.3714760  73.4972540  53.7134260  54.9007670
  74.4964320  54.7139780  54.3600110  71.2339460  67.8180690  58.3653150
  71.8298530  67.4965260  57.6887570  71.4917610  67.3452510  59.1566420
  71.7851670  68.4675990  62.1950880  71.3254640  69.2191800  61.8208900
  71.1564130  67.7482460  62.1365680  62.2147390  66.7764230  61.3699010
  62.7312410  66.1651590  60.8447270  62.8644770  67.2793010  61.8610020
  64.9542890  67.6672720  62.1967990  65.2420700  67.4127020  61.3201000
  65.4666110  67.1150080  62.7873560  66.1719900  51.4062920  62.7764500
  65.3891690  51.8808420  63.0561260  65.8782830  50.5017750  62.6677680
  70.7240970  52.1086020  60.8213590  71.1649060  52.0531120  59.9735190
  70.4548560  53.0244030  60.8923770  72.5879540  51.7401260  58.8322410
  72.5267940  50.7962480  58.6853430  73.3671570  51.8481350  59.3775870
  56.8932290  67.8793620  57.7946360  56.7254330  67.2464300  58.4928250
  56.0266800  68.0853020  57.4440550  57.5160310  51.7110400  55.2978220
  58.2739670  51.8239280  54.7242250  57.0537480  52.5479600  55.2521650
  64.0574120  53.8249670  58.2880530  63.2448630  53.4506560  57.9476410
  64.5615760  53.0694750  58.5901720  68.5599100  50.4892120  59.5263600
  69.1628470  51.0612330  60.0012120  67.8192090  51.0531560  59.3037500
  71.7033700  50.8913680  54.8003880  71.8984330  51.7897130  55.0671310
  70.9163570  50.6600760  55.2936830  58.4994990  66.5726850  55.2396500
  57.9742610  66.9534880  54.5358460  58.4239570  67.1977620  55.9606210
  59.8885460  52.2374450  53.8380190  60.4178220  51.4504250  53.7088140
  60.5213780  52.9165640  54.0715720  62.0823300  51.9749590  56.8925580
  61.4526040  51.2736900  57.0595710  61.5428440  52.7353720  56.6758740
  73.2560310  68.1314390  56.5610440  73.4312500  67.4452130  55.9171360
  72.5581880  68.6561440  56.1687110  61.0987960  68.5209230  54.1145750
  61.8306780  68.2368510  53.5669640  61.3581630  68.2822510  55.0045130
  60.2602750  64.6373960  54.1192080  59.6311630  65.1059060  54.6677910
  60.3750580  63.7923180  54.5538270  67.7152470  58.6879620  40.2693280
  67.6346520  57.7734230  39.9984990  67.3016890  59.1846690  39.5632990
  65.8470510  60.4658640  42.1502550  65.0712610  59.9859080  42.4401120
  66.4983440  59.7864290  41.9758710  59.8636340  60.7778450  43.0278310
  59.0321220  60.5227160  43.4274820  60.4717320  60.8489220  43.7636230
  69.8677940  64.8718830  40.9301680  69.4059470  64.1006070  41.2588850
  70.6803490  64.8984900  41.4354130  59.8437600  64.8118540  43.2236330
  60.1465640  63.9216280  43.0446550  60.5881190  65.3688760  42.9958580
  58.2728290  55.7380340  36.8120700  57.3844990  56.0796310  36.7100580
  58.5569480  55.5380660  35.9201530  56.2361300  58.3385990  42.6960400
  56.8077410  57.5708190  42.6964040  56.2362840  58.6374750  41.7867010
  57.4786170  53.7470350  44.4829330  57.2989010  52.8496100  44.7632090
  57.0766250  54.2942220  45.1576280  66.3184670  55.9486210  42.3841640
  66.6949490  55.0758090  42.2715310  66.2204180  56.2844910  41.4932080
  60.4489680  54.3211840  37.8459080  60.5556430  55.2215570  38.1527840
  59.5382040  54.2729810  37.5553730  70.1008790  53.4436650  39.3169980
  70.9218410  52.9533220  39.3595460  70.1342870  54.0334310  40.0701820
  58.0972840  56.2430850  43.0911670  58.7782950  56.5069220  43.7099070
  57.7820890  55.4031720  43.4249680  62.2897410  57.2898210  42.1784260
  62.7975630  57.7879180  42.8189280  62.8210650  56.5133410  42.0023620
  74.3908340  55.4603400  45.8813610  73.6860510  55.8485110  45.3628720
  74.6566260  56.1553690  46.4834540  60.5733510  51.9296770  46.4447680
  60.5751950  52.4469160  45.6393580  59.7437820  51.4526950  46.4217610
  61.8236360  61.5691950  44.6221180  61.4905740  62.1960870  45.2642250
  62.0003040  62.0953830  43.8422850  70.3370270  55.3837030  42.0897520
  69.6325840  55.6721920  42.6700630  70.6982430  56.1937140  41.7297080
  60.2548840  53.6406730  44.4518130  60.5965650  54.4848780  44.1572000
  59.3164650  53.7890470  44.5683470  61.0355460  63.5372750  46.4370360
  61.6529460  64.2123830  46.1554810  60.1748580  63.9460730  46.3457860
  71.9533050  65.0012160  44.3525000  71.2696570  65.6711270  44.3441670
  72.4927340  65.1992810  43.5869860  73.4057190  54.8291820  42.4806730
  72.4582100  54.8630800  42.6122160  73.7307180  55.6430770  42.8656090
  63.9376730  51.1289000  40.7762720  64.2451710  50.5735890  40.0598220
  63.0077430  51.2633460  40.5935710  69.4891790  66.8456290  43.0670180
  69.5018950  66.4418580  42.1992440  68.9367010  67.6203580  42.9631610
  70.7837210  63.5672510  38.1560350  70.6733540  62.6246840  38.2809770
  70.7805460  63.9288150  39.0423110  68.8877230  61.7486130  44.3952790
  69.3046020  61.5346240  43.5606250  69.6117050  62.0058920  44.9661410
  66.3257490  59.1937830  37.5122840  65.3986770  59.1275210  37.7411310
  66.4782310  60.1317960  37.3978080  66.3126570  55.4654830  34.5090000
  65.3730240  55.6268790  34.5942460  66.6309830  56.1840510  33.9625990
  72.8339330  60.1473350  44.4869030  72.0057960  60.2166440  44.0119160
  73.4289810  60.7327660  44.0184860  70.3554780  60.7558130  38.0158090
  69.7367200  60.4177680  37.3684390  70.3379230  60.1117890  38.7237280
  69.7981340  56.9342670  45.4323900  69.3852520  57.7596380  45.6863890
  69.0657290  56.3487710  45.2400260  61.9314130  59.7202570  40.2942570
  61.5271130  59.0079820  39.7988470  62.0177250  59.3755810  41.1830610
  62.3995830  63.4070130  42.4581780  62.1024120  62.8015600  41.7789560
  63.3495650  63.4447440  42.3471140  60.6442750  56.4945780  44.0741610
  61.1957340  56.6041120  43.2994860  61.1586260  56.8683380  44.7896840
  70.4881440  66.9802000  46.1204880  70.0112000  67.7874190  45.9277490
  69.8043230  66.3280330  46.2731090  61.4914260  63.1451820  49.1089580
  60.5942790  63.3691790  49.3562980  61.5167130  63.2686760  48.1600980
  68.5319480  59.9944940  35.0230840  68.9712760  59.1567370  34.8768660
  69.2447900  60.6274340  35.1094980  60.3185480  60.0165140  47.6846950
  60.1793250  60.8887940  48.0534350  59.4366840  59.6737950  47.5394890
  62.1165830  65.9586840  49.8932100  62.0881260  66.3629790  49.0260530
  61.9530800  65.0297200  49.7303700  72.1136620  51.2487750  33.3371880
  71.8009280  51.3414580  34.2370950  72.8749090  51.8268780  33.2869310
  58.6318760  58.6147550  37.7949220  58.5116360  59.3409640  37.1830490
  58.3219650  57.8450460  37.3177130  74.0680650  66.7413940  51.1896270
  74.5440370  67.2196830  51.8685350  74.6887810  66.6731430  50.4641770
  56.2704130  61.7862690  43.6017860  56.3484550  61.9211460  42.6573580
  56.8845810  61.0778580  43.7945980  73.4713900  63.9326790  48.3496280
  73.5976960  63.6938670  47.4313460  73.5135280  63.1011330  48.8218360
  67.3330640  67.6354790  46.9191090  67.8475310  67.5462800  47.7213520
  66.4899720  67.9814490  47.2119000  73.3237910  55.9859250  49.3146020
  72.7082180  56.4938920  48.7861480  73.0034330  55.0857580  49.2571960
  56.3263650  62.8276860  46.1412320  56.4894690  62.3582220  45.3231690
  56.7916100  62.3200420  46.8061160  61.0982420  51.9582620  41.1772890
  60.6550570  52.7392160  40.8457410  61.6567410  52.2812510  41.8843830
  65.3852230  54.8251140  46.7808210  64.9231600  55.0334160  47.5928150
  64.9830340  54.0110490  46.4778880  70.3856740  56.0460090  47.9104870
  69.5350330  55.7465840  48.2313940  70.2258530  56.2902100  46.9988690
  67.4806450  57.5461840  50.0103660  67.8059860  56.7125590  49.6705890
  68.2686780  58.0690360  50.1581990  64.2141240  51.5793320  36.0578720
  63.5895420  51.5753190  36.7832030  64.1271360  50.7124280  35.6614690
  63.1358320  52.5029950  43.0362490  63.4330650  53.4092780  42.9554510
  63.6843880  52.0148730  42.4222060  60.8896640  57.0816190  38.9054140
  60.6637560  56.8653360  39.8100760  60.1089170  57.5144650  38.5600110
  68.1194400  57.0879560  37.5044790  67.5203290  57.8115360  37.3208410
  68.6674010  57.0256340  36.7221240  63.3295850  57.9801770  49.5714410
  63.2339450  57.0396500  49.4214810  64.1727830  58.2016840  49.1762480
  66.7259270  55.7243100  39.5348070  67.1188840  56.0415300  38.7216760
  67.0876120  54.8454980  39.6492590  58.4606390  54.3915440  47.7248190
  58.0669780  55.2390650  47.9320970  57.7724790  53.7541810  47.9156830
  65.0351440  54.4750410  50.7944930  64.3449760  54.2822610  51.4291020
  65.7783740  54.7585050  51.3269230  55.7623440  52.3143900  41.7578270
  55.4736490  52.8846760  42.4703250  56.5069200  51.8348350  42.1209500
  55.9493670  56.2564020  32.9680990  55.8668340  57.1994780  33.1095980
  55.5976730  56.1138930  32.0893340  67.3114410  58.3148850  43.6298850
  66.5795530  58.8235660  43.9788950  66.9138750  57.4978830  43.3287630
  63.7491800  54.9903050  42.0351340  63.7527860  54.5493000  41.1855880
  64.6442920  55.3120380  42.1423160  59.5994180  54.8729540  40.9945550
  59.2594230  55.3504770  41.7512600  58.8371500  54.4194660  40.6346650
  63.8111950  55.9915130  35.0258100  63.9324770  55.9501610  35.9743920
  63.4260460  56.8539280  34.8704830  67.7740320  53.7682530  43.0421790
  67.7913060  54.2191180  43.8863640  67.5255900  52.8688170  43.2555230
  62.8233450  58.3016270  34.4241400  62.2550350  57.8534520  33.7977310
  63.5322450  58.6609050  33.8906550  71.2011070  51.1814710  48.8808170
  71.5256840  50.4504370  49.4066150  71.2367580  50.8628350  47.9789160
  57.9002630  62.2028290  48.3008130  57.5157420  61.5621960  48.8991090
  58.2114820  62.9064410  48.8702860  64.0499770  59.0504830  43.7816750
  64.4169900  58.5763400  44.5278090  63.8604830  59.9246400  44.1225090
  56.9140260  53.7948520  39.9110220  56.6287180  53.4304190  40.7488840
  56.8519120  53.0628980  39.2973360  61.8399140  58.0913470  46.1000960
  61.5356210  58.9705450  46.3251320  62.7945600  58.1513260  46.1358400
  71.1268910  61.2939820  42.4894200  71.8468030  61.7895110  42.0990310
  70.9250730  60.6157710  41.8448070  66.5878850  52.6877780  36.6323590
  65.7743460  52.1890950  36.5568900  66.3940800  53.5276030  36.2159940
  66.5087710  61.3648880  48.3763200  66.4425020  60.4444550  48.1220790
  65.8792850  61.4624320  49.0907840  69.3027240  57.0597430  34.9285750
  70.1906860  57.3714660  34.7537090  69.2732330  56.1869680  34.5366330
  60.4118330  61.9654840  40.3346620  60.9297000  61.1623100  40.2803510
  59.9602350  61.9033980  41.1763450  57.8962870  58.9316210  47.2472320
  57.5377810  59.5970060  47.8345660  57.6017430  58.0999760  47.6184940
  61.0975990  59.3900450  50.1311870  60.7976130  59.5357630  49.2339690
  61.8687230  58.8305740  50.0385260  66.4404440  64.1869450  48.1267000
  66.4548980  63.2550410  47.9085910  65.7329540  64.2729210  48.7656770
  71.5741510  58.3709270  34.3965610  71.4905230  58.8023490  33.5462050
  72.2935700  58.8307620  34.8292430  72.6515650  60.8276790  47.4735580
  71.9263840  61.4205570  47.2764970  73.1791110  60.8200330  46.6748950
  72.6028760  65.2251530  37.1247740  71.9604920  64.5707150  37.3991460
  72.2159420  65.6306620  36.3488410  68.1815240  62.5536960  40.9719430
  68.5339060  61.9565090  40.3120800  67.2977570  62.2281190  41.1427680
  63.5705730  60.3180680  37.9915200  64.0268510  61.1285930  38.2175390
  63.2193940  60.0003820  38.8233690  65.8738340  65.8287020  45.2207500
  66.5180560  66.0346400  45.8980920  66.2367780  65.0675420  44.7678350
  59.4717510  50.6618330  38.4637720  59.3432140  50.6536230  39.4122640
  58.6479530  51.0001420  38.1128730  67.1470420  63.8319370  43.9384950
  67.7892650  63.1312530  44.0517120  67.6719770  64.6117810  43.7581840
  70.9926140  64.1167990  33.6624090  70.7663720  63.3998430  34.2548730
  70.6022340  63.8680430  32.8245840  68.9208040  64.6314270  47.1421010
  69.2564280  65.2180960  47.8198930  68.0008380  64.5006980  47.3718800
  56.4711440  52.4209450  47.9244420  55.7569960  52.6206370  48.5297030
  56.8906480  51.6449020  48.2959220  70.5742390  62.0339930  35.3238250
  70.2864090  62.4952620  36.1116130  71.3694560  61.5737700  35.5922470
  56.7584030  66.4089710  48.9110950  56.8675150  65.4684450  48.7706340
  56.1064590  66.6744460  48.2624680  64.7496620  64.6805600  50.3109070
  64.4293490  63.9614840  50.8554760  64.0754980  65.3560670  50.3845130
  67.9650220  54.9131760  45.6745870  68.3331040  54.0926970  46.0025440
  67.1048420  54.9733650  46.0901520  71.3312250  53.8688700  36.4833430
  70.7025410  53.9734370  35.7691660  70.8364170  54.0885480  37.2727310
  63.2996280  56.1474650  37.8991310  62.5912430  56.6160990  38.3404920
  63.5840760  55.4896660  38.5336500  64.9252210  57.5671350  45.8983840
  65.4237460  58.0417170  46.5635690  65.0675160  56.6434870  46.1053870
  67.3311710  52.8725310  39.3387100  67.2079490  52.8911440  38.3896610
  68.2796270  52.9204250  39.4585500  61.5031300  54.4559730  35.2742020
  62.3521830  54.8929880  35.2082210  61.1362570  54.7679990  36.1014080
  72.1319070  53.7839310  46.7412230  71.6292670  54.5244710  47.0806040
  72.9475730  54.1723310  46.4249020  70.4241080  59.0272490  40.1873590
  69.4831220  59.0422720  40.3621280  70.7385150  58.2408450  40.6333890
  59.0969480  58.1417160  34.4310440  59.1773070  57.1944670  34.5427840
  59.9889230  58.4724040  34.5371100  72.4266660  66.1981340  41.8627850
  72.5514080  67.0212510  42.3351660  73.2932220  65.9872070  41.5152000
  58.9042470  67.4758620  50.7230560  59.7055200  67.7970670  51.1365960
  58.3894290  67.1154200  51.4450470  67.7407100  63.5838490  50.6705970
  67.1345260  63.6070090  49.9301720  67.4361210  62.8521530  51.2073220
  69.1707470  67.3118780  49.2815380  70.1229220  67.2276800  49.2315620
  69.0235690  67.9760490  49.9549170  72.0616670  66.6912990  34.7807290
  71.7758180  66.2778130  33.9661470  71.8636220  67.6200700  34.6607810
  56.6240280  59.9632080  49.6666610  57.1279300  59.3839360  50.2382840
  55.8847700  60.2472310  50.2042980  63.6778220  61.3703070  49.2002130
  62.9123890  61.9388070  49.1156800  63.8594180  61.0779280  48.3070360
  70.8201570  63.1008400  49.7577150  71.5611040  63.4384160  49.2544610
  70.0574250  63.2700460  49.2046920  58.6563360  58.1061670  50.5616680
  58.6968700  57.8075540  51.4701910  59.5108860  58.5069280  50.4024200
  62.4341750  60.7057220  35.7220190  62.8558170  60.5397090  36.5651580
  62.5592590  59.8957450  35.2275330  60.5969170  56.6853770  48.5291170
  60.0665630  56.1944720  47.9014510  61.2657240  57.1137970  47.9949100
  64.9469390  59.7294830  32.9697290  65.4675050  59.0143850  32.6038440
  65.5937790  60.3680700  33.2697800  69.4947230  61.1523230  48.2932360
  69.9088250  61.3068310  49.1422780  68.5598230  61.2778450  48.4558140
  69.9669400  58.4919390  50.2971510  70.5490170  57.7371710  50.2091990
  70.1431170  59.0226830  49.5202990  61.0841470  53.6516140  48.6088460
  60.9898340  53.0336890  47.8839330  60.5038860  54.3782430  48.3818370
  63.8502910  52.2089380  45.6415850  63.4020210  52.2313640  44.7961400
  63.2168110  51.8108400  46.2386150  64.2562460  61.1043710  46.2628290
  64.6750570  61.9476440  46.0904530  63.3371090  61.2415750  46.0335070
  66.5926360  58.8359890  47.6466130  66.7122570  58.2401030  48.3860970
  67.4520360  58.8729580  47.2267430  68.9314260  59.3897080  46.2228640
  68.4049480  59.9139700  45.6193780  69.2745600  60.0224470  46.8538370
  61.3300650  56.7790450  32.6678350  61.1289710  55.9157810  33.0291690
  61.1592700  56.6923810  31.7299950  62.1069880  67.4096720  47.3786020
  61.5690970  68.1342780  47.0594720  62.3603840  66.9327060  46.5883360
  63.3595130  55.3781240  48.9041950  63.9494820  55.0697090  49.5919770
  62.5415370  54.9060990  49.0601850  68.1788560  54.9947050  49.1374970
  67.4904080  54.3328590  49.0724960  68.8994580  54.5485320  49.5823430
  68.8088960  51.5898680  35.1965230  69.0891250  50.7466580  35.5524650
  68.0354690  51.8221790  35.7103980  60.1283450  53.8791070  32.6556230
  60.4309350  53.8858500  31.7475380  60.8678040  53.5288930  33.1523890
  64.9632090  68.6447930  47.6372670  64.8890790  69.5483070  47.9445040
  64.0610930  68.3259830  47.6094740  63.3468380  52.8225690  33.6412430
  62.9990380  52.1449680  33.0614880  63.5481150  52.3615200  34.4555820
  56.8549590  66.8393110  43.6787920  56.4180580  67.0193910  44.5112070
  57.4227270  67.5967730  43.5369640  72.4911770  66.3410110  47.9665230
  71.8913760  66.4002670  47.2229150  72.6205670  65.4015090  48.0962080
  73.7313220  64.0827930  33.3034940  72.9006180  64.1504580  33.7742170
  73.9085050  64.9732050  33.0001800  73.1869680  60.8275410  35.8069140
  73.9488590  61.3972060  35.9128830  73.2024050  60.2602610  36.5777450
  74.1929650  61.6825510  40.6511070  74.5638480  60.8992830  40.2447040
  74.8331580  62.3714610  40.4728370  71.1763410  63.0662090  46.0641390
  70.3623250  63.4959250  46.3267180  71.5837610  63.6780500  45.4510440
  73.2388850  61.1209780  32.9641660  73.5137690  62.0288660  32.8360880
  73.0499590  61.0572310  33.9003650  69.6364460  54.1454630  34.2595290
  70.0549340  53.9585610  33.4191950  69.3300520  53.2933680  34.5698220
  73.1354190  59.0578770  37.9571090  72.7597790  58.2906700  37.5252380
  72.4057310  59.4401470  38.4446020  57.7249950  59.7365910  44.5780140
  58.0922990  59.6493310  45.4576160  57.1560770  58.9732460  44.4787000
  72.5253810  58.2050290  47.5910610  72.2939900  57.9763040  46.6908560
  72.7858360  59.1249840  47.5455500  57.2765950  56.6475000  48.4838560
  56.3822000  56.6141760  48.8232270  57.8163500  56.8461790  49.2489810
  70.9641880  53.4306720  50.3690310  71.8412060  53.4390120  50.7524310
  70.9762720  52.6937560  49.7582660  55.9012100  56.5612270  35.9802130
  54.9976180  56.8242470  35.8053790  56.3852720  56.8323440  35.2002090
  72.4105150  57.2836260  41.2578330  72.9342630  56.7898910  40.6268500
  72.9964570  57.4186620  42.0025900  72.5894870  57.3676130  44.7797880
  71.6397580  57.3339670  44.8942870  72.7707880  58.2776240  44.5447650
  58.4439310  55.6177810  33.8896510  59.1531010  55.1961030  33.4043790
  57.7279250  55.6853040  33.2579860  58.0913470  51.6717140  32.9299160
  58.8141600  52.2126080  33.2480380  58.3637990  51.3980560  32.0540700
  71.9005120  56.5409610  37.1970740  72.3964240  56.3080480  37.9819620
  71.7021190  55.7021450  36.7808380  57.7805660  50.9223330  42.8321780
  58.4281850  50.3720710  42.3916940  58.2007500  51.1766480  43.6537590
  73.3292280  55.1770560  39.7308420  73.2191560  55.0226600  40.6690690
  74.0899870  54.6491500  39.4883830  71.6758000  51.1164690  46.1891420
  72.3130220  51.7298830  46.5550610  71.8232890  51.1525350  45.2440650
  74.2182550  53.0078480  32.9714560  75.1431860  52.8759660  32.7632850
  74.1958340  53.0871300  33.9251010  74.2921040  53.7789140  35.5971270
  73.4972540  53.7134260  36.1264180  74.4964320  54.7139780  35.5856620
  57.5337660  51.0779000  45.5747100  57.1852480  51.5342820  46.3405280
  57.2025360  50.1836130  45.6569530  59.1402030  64.2498600  49.7400290
  59.0971660  63.8791510  50.6214750  59.2713040  65.1876170  49.8802110
  62.8408060  65.8058190  45.3410010  62.5999420  66.0732750  44.4540530
  63.7810700  65.9763920  45.3960870  65.0462480  52.2690880  49.0966520
  64.9851370  52.8612710  49.8461930  65.9862860  52.1616840  48.9516780
  67.6837040  51.9260940  48.7358810  68.2977450  52.2440230  48.0739890
  68.2286600  51.4409530  49.3554670  74.1012220  67.8252570  46.1420650
  73.6070500  68.2221440  45.4247780  73.4925510  67.2001780  46.5357930
  58.2058300  50.6055200  48.8497870  58.7541290  50.4243250  48.0863980
  58.2713610  49.8149310  49.3854180  58.9790060  67.1960850  46.8598070
  58.3850380  67.0645550  47.5988110  58.9713900  66.3598990  46.3940170
  68.4245080  50.4893080  45.0628100  67.5504920  50.8228190  44.8601030
  68.3155830  50.0166260  45.8879970  69.3317060  52.6963950  46.4469820
  69.0030420  51.8815710  46.0671550  70.2799360  52.6533760  46.3235510
  71.7851670  68.4675990  43.4207390  71.3254640  69.2191800  43.0465410
  71.1564130  67.7482460  43.3622190  58.6102290  64.5619230  45.8106110
  57.8836350  63.9424520  45.7432060  58.6711440  64.9559840  44.9404190
  62.2147390  66.7764230  42.5955520  62.7312410  66.1651590  42.0703780
  62.8644770  67.2793010  43.0866530  64.9542890  67.6672720  43.4224500
  65.2420700  67.4127020  42.5457510  65.4666110  67.1150080  44.0130070
  66.1719900  51.4062920  44.0021010  65.3891690  51.8808420  44.2817770
  65.8782830  50.5017750  43.8934190  70.7240970  52.1086020  42.0470100
  71.1649060  52.0531120  41.1991700  70.4548560  53.0244030  42.1180280
  72.5879540  51.7401260  40.0578920  72.5267940  50.7962480  39.9109940
  73.3671570  51.8481350  40.6032380  57.5160310  51.7110400  36.5234730
  58.2739670  51.8239280  35.9498760  57.0537480  52.5479600  36.4778160
  64.0574120  53.8249670  39.5137040  63.2448630  53.4506560  39.1732920
  64.5615760  53.0694750  39.8158230  68.5599100  50.4892120  40.7520110
  69.1628470  51.0612330  41.2268630  67.8192090  51.0531560  40.5294010
  71.7033700  50.8913680  36.0260390  71.8984330  51.7897130  36.2927820
  70.9163570  50.6600760  36.5193340  59.8885460  52.2374450  35.0636700
  60.4178220  51.4504250  34.9344650  60.5213780  52.9165640  35.2972230
  62.0823300  51.9749590  38.1182090  61.4526040  51.2736900  38.2852220
  61.5428440  52.7353720  37.9015250  65.0215250  68.5888820  50.7892700
  65.9482560  68.3533090  50.8328660  65.0065680  69.4160820  50.3078730
  73.2560310  68.1314390  37.7866950  73.4312500  67.4452130  37.1427870
  72.5581880  68.6561440  37.3943620  62.2078860  51.2533570  50.5534580
  61.9263130  51.7567170  49.7895400  62.5898560  50.4555320  50.1876710
  68.8094320  50.6687150  51.1315050  68.6959770  50.9881760  52.0266570
  69.6264060  51.0699660  50.8352330  71.5892810  67.8158680  50.6133740
  72.3818130  67.3207910  50.4059700  71.8825960  68.4948820  51.2209350
  67.7152470  58.6879620  21.4949790  67.6346520  57.7734230  21.2241500
  67.3016890  59.1846690  20.7889500  65.8470510  60.4658640  23.3759060
  65.0712610  59.9859080  23.6657630  66.4983440  59.7864290  23.2015220
  59.8636340  60.7778450  24.2534820  59.0321220  60.5227160  24.6531330
  60.4717320  60.8489220  24.9892740  69.8677940  64.8718830  22.1558190
  69.4059470  64.1006070  22.4845360  70.6803490  64.8984900  22.6610640
  59.8437600  64.8118540  24.4492840  60.1465640  63.9216280  24.2703060
  60.5881190  65.3688760  24.2215090  58.2728290  55.7380340  18.0377210
  57.3844990  56.0796310  17.9357090  58.5569480  55.5380660  17.1458040
  56.2361300  58.3385990  23.9216910  56.8077410  57.5708190  23.9220550
  56.2362840  58.6374750  23.0123520  66.0941250  67.1576840  21.7762180
  65.4752690  67.6134340  21.2056620  66.9493030  67.3128300  21.3751880
  65.2879500  63.1415830  23.3829220  65.2187780  62.2005770  23.2218350
  66.0499360  63.2317240  23.9551790  57.4786170  53.7470350  25.7085840
  57.2989010  52.8496100  25.9888600  57.0766250  54.2942220  26.3832790
  66.3184670  55.9486210  23.6098150  66.6949490  55.0758090  23.4971820
  66.2204180  56.2844910  22.7188590  60.4489680  54.3211840  19.0715590
  60.5556430  55.2215570  19.3784350  59.5382040  54.2729810  18.7810240
  70.1008790  53.4436650  20.5426490  70.9218410  52.9533220  20.5851970
  70.1342870  54.0334310  21.2958330  58.0972840  56.2430850  24.3168180
  58.7782950  56.5069220  24.9355580  57.7820890  55.4031720  24.6506190
  62.2897410  57.2898210  23.4040770  62.7975630  57.7879180  24.0445790
  62.8210650  56.5133410  23.2280130  74.3908340  55.4603400  27.1070120
  73.6860510  55.8485110  26.5885230  74.6566260  56.1553690  27.7091050
  60.5733510  51.9296770  27.6704190  60.5751950  52.4469160  26.8650090
  59.7437820  51.4526950  27.6474120  66.9604600  62.0416080  19.1694090
  66.3421870  62.5065530  18.6056810  67.4727850  62.7343560  19.5863600
  61.8236360  61.5691950  25.8477690  61.4905740  62.1960870  26.4898760
  62.0003040  62.0953830  25.0679360  70.3370270  55.3837030  23.3154030
  69.6325840  55.6721920  23.8957140  70.6982430  56.1937140  22.9553590
  60.2548840  53.6406730  25.6774640  60.5965650  54.4848780  25.3828510
  59.3164650  53.7890470  25.7939980  56.3287800  62.7272610  16.5433720
  55.9515780  63.2159710  15.8118620  56.5860870  63.3997890  17.1740250
  71.9533050  65.0012160  25.5781510  71.2696570  65.6711270  25.5698180
  72.4927340  65.1992810  24.8126370  73.4057190  54.8291820  23.7063240
  72.4582100  54.8630800  23.8378670  73.7307180  55.6430770  24.0912600
  63.9376730  51.1289000  22.0019230  64.2451710  50.5735890  21.2854730
  63.0077430  51.2633460  21.8192220  69.4891790  66.8456290  24.2926690
  69.5018950  66.4418580  23.4248950  68.9367010  67.6203580  24.1888120
  70.7837210  63.5672510  19.3816860  70.6733540  62.6246840  19.5066280
  70.7805460  63.9288150  20.2679620  68.8877230  61.7486130  25.6209300
  69.3046020  61.5346240  24.7862760  69.6117050  62.0058920  26.1917920
  66.3257490  59.1937830  18.7379350  65.3986770  59.1275210  18.9667820
  66.4782310  60.1317960  18.6234590  66.3126570  55.4654830  15.7346510
  65.3730240  55.6268790  15.8198970  66.6309830  56.1840510  15.1882500
  72.8339330  60.1473350  25.7125540  72.0057960  60.2166440  25.2375670
  73.4289810  60.7327660  25.2441370  70.3554780  60.7558130  19.2414600
  69.7367200  60.4177680  18.5940900  70.3379230  60.1117890  19.9493790
  69.7981340  56.9342670  26.6580410  69.3852520  57.7596380  26.9120400
  69.0657290  56.3487710  26.4656770  61.9314130  59.7202570  21.5199080
  61.5271130  59.0079820  21.0244980  62.0177250  59.3755810  22.4087120
  62.3995830  63.4070130  23.6838290  62.1024120  62.8015600  23.0046070
  63.3495650  63.4447440  23.5727650  60.6442750  56.4945780  25.2998120
  61.1957340  56.6041120  24.5251370  61.1586260  56.8683380  26.0153350
  68.5319480  59.9944940  16.2487350  68.9712760  59.1567370  16.1025170
  69.2447900  60.6274340  16.3351490  66.6414860  64.9341010  20.2168590
  67.0810770  65.6765340  19.8023980  66.5801750  65.1767580  21.1407550
  72.1136620  51.2487750  14.5628390  71.8009280  51.3414580  15.4627460
  72.8749090  51.8268780  14.5125820  58.6318760  58.6147550  19.0205730
  58.5116360  59.3409640  18.4087000  58.3219650  57.8450460  18.5433640
  74.0680650  66.7413940  32.4152780  74.5440370  67.2196830  33.0941860
  74.6887810  66.6731430  31.6898280  56.2704130  61.7862690  24.8274370
  56.3484550  61.9211460  23.8830090  56.8845810  61.0778580  25.0202490
  57.5151760  63.4862880  21.2380550  57.1079840  63.6277470  20.3834150
  58.4064770  63.2023040  21.0351760  73.4713900  63.9326790  29.5752790
  73.5976960  63.6938670  28.6569970  73.5135280  63.1011330  30.0474870
  69.3085040  67.9210130  17.5731600  69.1486180  67.6313070  18.4713430
  69.1431750  67.1450260  17.0376830  61.7873420  67.7008660  19.3503220
  61.6115900  66.7844200  19.1371020  60.9329160  68.0595950  19.5901020
  69.0111170  65.4297690  16.1329600  68.3176330  65.4274980  15.4731880
  69.7534030  65.0057010  15.7023770  68.5761100  67.0560400  20.2078090
  69.0318050  66.2749780  20.5216710  68.9153620  67.7667220  20.7519270
  73.3237910  55.9859250  30.5402530  72.7082180  56.4938920  30.0117990
  73.0034330  55.0857580  30.4828470  61.0982420  51.9582620  22.4029400
  60.6550570  52.7392160  22.0713920  61.6567410  52.2812510  23.1100340
  65.3852230  54.8251140  28.0064720  64.9231600  55.0334160  28.8184660
  64.9830340  54.0110490  27.7035390  70.3856740  56.0460090  29.1361380
  69.5350330  55.7465840  29.4570450  70.2258530  56.2902100  28.2245200
  67.4806450  57.5461840  31.2360170  67.8059860  56.7125590  30.8962400
  68.2686780  58.0690360  31.3838500  64.2141240  51.5793320  17.2835230
  63.5895420  51.5753190  18.0088540  64.1271360  50.7124280  16.8871200
  63.1358320  52.5029950  24.2619000  63.4330650  53.4092780  24.1811020
  63.6843880  52.0148730  23.6478570  60.8896640  57.0816190  20.1310650
  60.6637560  56.8653360  21.0357270  60.1089170  57.5144650  19.7856620
  68.1194400  57.0879560  18.7301300  67.5203290  57.8115360  18.5464920
  68.6674010  57.0256340  17.9477750  63.3295850  57.9801770  30.7970920
  63.2339450  57.0396500  30.6471320  64.1727830  58.2016840  30.4018990
  66.7259270  55.7243100  20.7604580  67.1188840  56.0415300  19.9473270
  67.0876120  54.8454980  20.8749100  58.4606390  54.3915440  28.9504700
  58.0669780  55.2390650  29.1577480  57.7724790  53.7541810  29.1413340
  65.0351440  54.4750410  32.0201440  64.3449760  54.2822610  32.6547530
  65.7783740  54.7585050  32.5525740  55.7623440  52.3143900  22.9834780
  55.4736490  52.8846760  23.6959760  56.5069200  51.8348350  23.3466010
  55.9493670  56.2564020  14.1937500  55.8668340  57.1994780  14.3352490
  55.5976730  56.1138930  13.3149850  67.3114410  58.3148850  24.8555360
  66.5795530  58.8235660  25.2045460  66.9138750  57.4978830  24.5544140
  63.7491800  54.9903050  23.2607850  63.7527860  54.5493000  22.4112390
  64.6442920  55.3120380  23.3679670  59.5994180  54.8729540  22.2202060
  59.2594230  55.3504770  22.9769110  58.8371500  54.4194660  21.8603160
  63.8111950  55.9915130  16.2514610  63.9324770  55.9501610  17.2000430
  63.4260460  56.8539280  16.0961340  67.7740320  53.7682530  24.2678300
  67.7913060  54.2191180  25.1120150  67.5255900  52.8688170  24.4811740
  62.8233450  58.3016270  15.6497910  62.2550350  57.8534520  15.0233820
  63.5322450  58.6609050  15.1163060  71.2011070  51.1814710  30.1064680
  71.5256840  50.4504370  30.6322660  71.2367580  50.8628350  29.2045670
  64.0499770  59.0504830  25.0073260  64.4169900  58.5763400  25.7534600
  63.8604830  59.9246400  25.3481600  56.9140260  53.7948520  21.1366730
  56.6287180  53.4304190  21.9745350  56.8519120  53.0628980  20.5229870
  61.8399140  58.0913470  27.3257470  61.5356210  58.9705450  27.5507830
  62.7945600  58.1513260  27.3614910  60.3680930  62.2974460  17.9224320
  59.5943190  61.7572080  17.7623040  61.0975560  61.7781070  17.5842080
  71.1268910  61.2939820  23.7150710  71.8468030  61.7895110  23.3246820
  70.9250730  60.6157710  23.0704580  66.5878850  52.6877780  17.8580100
  65.7743460  52.1890950  17.7825410  66.3940800  53.5276030  17.4416450
  69.3027240  57.0597430  16.1542260  70.1906860  57.3714660  15.9793600
  69.2732330  56.1869680  15.7622840  60.4118330  61.9654840  21.5603130
  60.9297000  61.1623100  21.5060020  59.9602350  61.9033980  22.4019960
  65.2987830  63.2321120  16.8330430  65.6403530  63.9763350  16.3373750
  64.4700540  63.5452240  17.1955260  61.0975990  59.3900450  31.3568380
  60.7976130  59.5357630  30.4596200  61.8687230  58.8305740  31.2641770
  71.5741510  58.3709270  15.6222120  71.4905230  58.8023490  14.7718560
  72.2935700  58.8307620  16.0548940  72.6515650  60.8276790  28.6992090
  71.9263840  61.4205570  28.5021480  73.1791110  60.8200330  27.9005460
  72.6028760  65.2251530  18.3504250  71.9604920  64.5707150  18.6247970
  72.2159420  65.6306620  17.5744920  68.1815240  62.5536960  22.1975940
  68.5339060  61.9565090  21.5377310  67.2977570  62.2281190  22.3684190
  64.2678520  63.3134650  19.6046350  64.9549650  63.8603860  19.9853940
  63.4810940  63.8575380  19.6395960  56.4070920  58.9307470  15.0963430
  57.2765770  59.2132270  15.3799350  55.9161240  59.7443340  14.9812240
  63.5705730  60.3180680  19.2171710  64.0268510  61.1285930  19.4431900
  63.2193940  60.0003820  20.0490200  59.4717510  50.6618330  19.6894230
  59.3432140  50.6536230  20.6379150  58.6479530  51.0001420  19.3385240
  67.1470420  63.8319370  25.1641460  67.7892650  63.1312530  25.2773630
  67.6719770  64.6117810  24.9838350  70.9926140  64.1167990  14.8880600
  70.7663720  63.3998430  15.4805240  70.6022340  63.8680430  14.0502350
  56.7742170  68.1434850  15.6625060  57.1339810  68.7424190  15.0082330
  56.6334510  68.6894740  16.4360090  56.4711440  52.4209450  29.1500930
  55.7569960  52.6206370  29.7553540  56.8906480  51.6449020  29.5215730
  70.5742390  62.0339930  16.5494760  70.2864090  62.4952620  17.3372640
  71.3694560  61.5737700  16.8178980  62.7910790  65.5266050  16.4798730
  62.7820890  66.2595740  15.8643240  61.8709150  65.2797630  16.5725690
  58.3917430  60.7480940  17.2245490  57.7845380  61.4879840  17.2340790
  58.8666780  60.8380300  16.3983690  67.9650220  54.9131760  26.9002380
  68.3331040  54.0926970  27.2281950  67.1048420  54.9733650  27.3158030
  71.3312250  53.8688700  17.7089940  70.7025410  53.9734370  16.9948170
  70.8364170  54.0885480  18.4983820  65.7770390  65.5894290  15.1423920
  65.8782370  65.3858280  14.2125900  64.8772130  65.3352570  15.3471700
  63.2996280  56.1474650  19.1247820  62.5912430  56.6160990  19.5661430
  63.5840760  55.4896660  19.7593010  64.9252210  57.5671350  27.1240350
  65.4237460  58.0417170  27.7892200  65.0675160  56.6434870  27.3310380
  67.3311710  52.8725310  20.5643610  67.2079490  52.8911440  19.6153120
  68.2796270  52.9204250  20.6842010  64.4188500  68.1080610  19.8371590
  64.6730000  68.0702000  18.9150960  63.4700980  67.9813940  19.8299840
  61.5031300  54.4559730  16.4998530  62.3521830  54.8929880  16.4338720
  61.1362570  54.7679990  17.3270590  72.1319070  53.7839310  27.9668740
  71.6292670  54.5244710  28.3062550  72.9475730  54.1723310  27.6505530
  70.4241080  59.0272490  21.4130100  69.4831220  59.0422720  21.5877790
  70.7385150  58.2408450  21.8590400  60.4022720  60.7092090  14.9734060
  61.1685990  60.5973450  15.5359490  60.4797410  60.0130060  14.3210830
  59.0969480  58.1417160  15.6566950  59.1773070  57.1944670  15.7684350
  59.9889230  58.4724040  15.7627610  72.4266660  66.1981340  23.0884360
  72.5514080  67.0212510  23.5608170  73.2932220  65.9872070  22.7408510
  59.8984190  68.2912550  22.7601490  60.6346670  67.7428010  23.0310060
  60.2825110  69.1568560  22.6207480  56.7829670  64.3586120  18.6343000
  55.8569450  64.6007260  18.6248410  57.2486100  65.1860380  18.5127750
  63.0086500  67.4642860  14.5827060  63.8015110  67.7531690  14.1308850
  62.4890850  67.0335030  13.9039540  72.0616670  66.6912990  16.0063800
  71.7758180  66.2778130  15.1917980  71.8636220  67.6200700  15.8864320
  63.5263900  62.6846270  14.4469410  63.4214540  62.0698620  15.1730790
  63.3588120  62.1612160  13.6632420  66.7666630  61.7466300  15.0511400
  66.2176730  62.1935600  15.6954140  67.3885890  61.2415550  15.5749070
  70.8201570  63.1008400  30.9833660  71.5611040  63.4384160  30.4801120
  70.0574250  63.2700460  30.4303430  58.6563360  58.1061670  31.7873190
  58.6968700  57.8075540  32.6958420  59.5108860  58.5069280  31.6280710
  62.4341750  60.7057220  16.9476700  62.8558170  60.5397090  17.7908090
  62.5592590  59.8957450  16.4531840  60.5969170  56.6853770  29.7547680
  60.0665630  56.1944720  29.1271020  61.2657240  57.1137970  29.2205610
  64.9469390  59.7294830  14.1953800  65.4675050  59.0143850  13.8294950
  65.5937790  60.3680700  14.4954310  69.4947230  61.1523230  29.5188870
  69.9088250  61.3068310  30.3679290  68.5598230  61.2778450  29.6814650
  69.9669400  58.4919390  31.5228020  70.5490170  57.7371710  31.4348500
  70.1431170  59.0226830  30.7459500  61.0841470  53.6516140  29.8344970
  60.9898340  53.0336890  29.1095840  60.5038860  54.3782430  29.6074880
  63.8502910  52.2089380  26.8672360  63.4020210  52.2313640  26.0217910
  63.2168110  51.8108400  27.4642660  66.5926360  58.8359890  28.8722640
  66.7122570  58.2401030  29.6117480  67.4520360  58.8729580  28.4523940
  68.9314260  59.3897080  27.4485150  68.4049480  59.9139700  26.8450290
  69.2745600  60.0224470  28.0794880  61.3300650  56.7790450  13.8934860
  61.1289710  55.9157810  14.2548200  61.1592700  56.6923810  12.9556460
  63.3595130  55.3781240  30.1298460  63.9494820  55.0697090  30.8176280
  62.5415370  54.9060990  30.2858360  68.1788560  54.9947050  30.3631480
  67.4904080  54.3328590  30.2981470  68.8994580  54.5485320  30.8079940
  68.8088960  51.5898680  16.4221740  69.0891250  50.7466580  16.7781160
  68.0354690  51.8221790  16.9360490  60.1283450  53.8791070  13.8812740
  60.4309350  53.8858500  12.9731890  60.8678040  53.5288930  14.3780400
  63.3468380  52.8225690  14.8668940  62.9990380  52.1449680  14.2871390
  63.5481150  52.3615200  15.6812330  65.5117420  67.8106440  16.4855540
  66.4068210  68.1491410  16.5074300  65.5435050  67.0885850  15.8579820
  59.1513580  63.1833490  14.7142540  59.5888450  63.7263160  15.3700120
  59.6361310  62.3580440  14.7238880  56.3659380  65.9722520  22.1662800
  56.6962390  65.1043580  21.9341440  56.7950380  66.1781040  22.9967760
  60.9621300  64.3031530  19.8264770  60.6616840  64.1796500  20.7268680
  60.8558790  63.4440120  19.4180500  72.4911770  66.3410110  29.1921740
  71.8913760  66.4002670  28.4485660  72.6205670  65.4015090  29.3218590
  73.7313220  64.0827930  14.5291450  72.9006180  64.1504580  14.9998680
  73.9085050  64.9732050  14.2258310  73.1869680  60.8275410  17.0325650
  73.9488590  61.3972060  17.1385340  73.2024050  60.2602610  17.8033960
  56.6874020  59.3513340  21.2633310  56.0322860  59.0824980  20.6193010
  57.5251970  59.2417820  20.8135290  74.1929650  61.6825510  21.8767580
  74.5638480  60.8992830  21.4703550  74.8331580  62.3714610  21.6984880
  71.1763410  63.0662090  27.2897900  70.3623250  63.4959250  27.5523690
  71.5837610  63.6780500  26.6766950  73.2388850  61.1209780  14.1898170
  73.5137690  62.0288660  14.0617390  73.0499590  61.0572310  15.1260160
  69.6364460  54.1454630  15.4851800  70.0549340  53.9585610  14.6448460
  69.3300520  53.2933680  15.7954730  73.1354190  59.0578770  19.1827600
  72.7597790  58.2906700  18.7508890  72.4057310  59.4401470  19.6702530
  72.5253810  58.2050290  28.8167120  72.2939900  57.9763040  27.9165070
  72.7858360  59.1249840  28.7712010  57.2765950  56.6475000  29.7095070
  56.3822000  56.6141760  30.0488780  57.8163500  56.8461790  30.4746320
  70.9641880  53.4306720  31.5946820  71.8412060  53.4390120  31.9780820
  70.9762720  52.6937560  30.9839170  55.9012100  56.5612270  17.2058640
  54.9976180  56.8242470  17.0310300  56.3852720  56.8323440  16.4258600
  72.4105150  57.2836260  22.4834840  72.9342630  56.7898910  21.8525010
  72.9964570  57.4186620  23.2282410  72.5894870  57.3676130  26.0054390
  71.6397580  57.3339670  26.1199380  72.7707880  58.2776240  25.7704160
  58.4439310  55.6177810  15.1153020  59.1531010  55.1961030  14.6300300
  57.7279250  55.6853040  14.4836370  58.0913470  51.6717140  14.1555670
  58.8141600  52.2126080  14.4736890  58.3637990  51.3980560  13.2797210
  71.9005120  56.5409610  18.4227250  72.3964240  56.3080480  19.2076130
  71.7021190  55.7021450  18.0064890  57.7805660  50.9223330  24.0578290
  58.4281850  50.3720710  23.6173450  58.2007500  51.1766480  24.8794100
  73.3292280  55.1770560  20.9564930  73.2191560  55.0226600  21.8947200
  74.0899870  54.6491500  20.7140340  71.6758000  51.1164690  27.4147930
  72.3130220  51.7298830  27.7807120  71.8232890  51.1525350  26.4697160
  74.2182550  53.0078480  14.1971070  75.1431860  52.8759660  13.9889360
  74.1958340  53.0871300  15.1507520  74.2921040  53.7789140  16.8227780
  73.4972540  53.7134260  17.3520690  74.4964320  54.7139780  16.8113130
  71.2339460  67.8180690  20.8166170  71.8298530  67.4965260  20.1400590
  71.4917610  67.3452510  21.6079440  57.5337660  51.0779000  26.8003610
  57.1852480  51.5342820  27.5661790  57.2025360  50.1836130  26.8826040
  65.0462480  52.2690880  30.3223030  64.9851370  52.8612710  31.0718440
  65.9862860  52.1616840  30.1773290  67.6837040  51.9260940  29.9615320
  68.2977450  52.2440230  29.2996400  68.2286600  51.4409530  30.5811180
  74.1012220  67.8252570  27.3677160  73.6070500  68.2221440  26.6504290
  73.4925510  67.2001780  27.7614440  58.2058300  50.6055200  30.0754380
  58.7541290  50.4243250  29.3120490  58.2713610  49.8149310  30.6110690
  68.4245080  50.4893080  26.2884610  67.5504920  50.8228190  26.0857540
  68.3155830  50.0166260  27.1136480  69.3317060  52.6963950  27.6726330
  69.0030420  51.8815710  27.2928060  70.2799360  52.6533760  27.5492020
  71.7851670  68.4675990  24.6463900  71.3254640  69.2191800  24.2721920
  71.1564130  67.7482460  24.5878700  62.2147390  66.7764230  23.8212030
  62.7312410  66.1651590  23.2960290  62.8644770  67.2793010  24.3123040
  66.1719900  51.4062920  25.2277520  65.3891690  51.8808420  25.5074280
  65.8782830  50.5017750  25.1190700  70.7240970  52.1086020  23.2726610
  71.1649060  52.0531120  22.4248210  70.4548560  53.0244030  23.3436790
  72.5879540  51.7401260  21.2835430  72.5267940  50.7962480  21.1366450
  73.3671570  51.8481350  21.8288890  56.8932290  67.8793620  20.2459380
  56.7254330  67.2464300  20.9441270  56.0266800  68.0853020  19.8953570
  57.5160310  51.7110400  17.7491240  58.2739670  51.8239280  17.1755270
  57.0537480  52.5479600  17.7034670  64.0574120  53.8249670  20.7393550
  63.2448630  53.4506560  20.3989430  64.5615760  53.0694750  21.0414740
  68.5599100  50.4892120  21.9776620  69.1628470  51.0612330  22.4525140
  67.8192090  51.0531560  21.7550520  71.7033700  50.8913680  17.2516900
  71.8984330  51.7897130  17.5184330  70.9163570  50.6600760  17.7449850
  58.4994990  66.5726850  17.6909520  57.9742610  66.9534880  16.9871480
  58.4239570  67.1977620  18.4119230  59.8885460  52.2374450  16.2893210
  60.4178220  51.4504250  16.1601160  60.5213780  52.9165640  16.5228740
  62.0823300  51.9749590  19.3438600  61.4526040  51.2736900  19.5108730
  61.5428440  52.7353720  19.1271760  73.2560310  68.1314390  19.0123460
  73.4312500  67.4452130  18.3684380  72.5581880  68.6561440  18.6200130
  62.2078860  51.2533570  31.7791090  61.9263130  51.7567170  31.0151910
  62.5898560  50.4555320  31.4133220  61.0987960  68.5209230  16.5658770
  61.8306780  68.2368510  16.0182660  61.3581630  68.2822510  17.4558150
  60.2602750  64.6373960  16.5705100  59.6311630  65.1059060  17.1190930
  60.3750580  63.7923180  17.0051290  68.8094320  50.6687150  32.3571560
  68.6959770  50.9881760  33.2523080  69.6264060  51.0699660  32.0608840
  67.7152470  58.6879620   2.7206300  67.6346520  57.7734230   2.4498010
  67.3016890  59.1846690   2.0146010  65.8470510  60.4658640   4.6015570
  65.0712610  59.9859080   4.8914140  66.4983440  59.7864290   4.4271730
  59.8636340  60.7778450   5.4791330  59.0321220  60.5227160   5.8787840
  60.4717320  60.8489220   6.2149250  69.8677940  64.8718830   3.3814700
  69.4059470  64.1006070   3.7101870  70.6803490  64.8984900   3.8867150
  59.8437600  64.8118540   5.6749350  60.1465640  63.9216280   5.4959570
  60.5881190  65.3688760   5.4471600  56.2361300  58.3385990   5.1473420
  56.8077410  57.5708190   5.1477060  56.2362840  58.6374750   4.2380030
  66.0941250  67.1576840   3.0018690  65.4752690  67.6134340   2.4313130
  66.9493030  67.3128300   2.6008390  65.2879500  63.1415830   4.6085730
  65.2187780  62.2005770   4.4474860  66.0499360  63.2317240   5.1808300
  57.4786170  53.7470350   6.9342350  57.2989010  52.8496100   7.2145110
  57.0766250  54.2942220   7.6089300  66.3184670  55.9486210   4.8354660
  66.6949490  55.0758090   4.7228330  66.2204180  56.2844910   3.9445100
  70.1008790  53.4436650   1.7683000  70.9218410  52.9533220   1.8108480
  70.1342870  54.0334310   2.5214840  58.0972840  56.2430850   5.5424690
  58.7782950  56.5069220   6.1612090  57.7820890  55.4031720   5.8762700
  62.2897410  57.2898210   4.6297280  62.7975630  57.7879180   5.2702300
  62.8210650  56.5133410   4.4536640  74.3908340  55.4603400   8.3326630
  73.6860510  55.8485110   7.8141740  74.6566260  56.1553690   8.9347560
  60.5733510  51.9296770   8.8960700  60.5751950  52.4469160   8.0906600
  59.7437820  51.4526950   8.8730630  61.8236360  61.5691950   7.0734200
  61.4905740  62.1960870   7.7155270  62.0003040  62.0953830   6.2935870
  70.3370270  55.3837030   4.5410540  69.6325840  55.6721920   5.1213650
  70.6982430  56.1937140   4.1810100  60.2548840  53.6406730   6.9031150
  60.5965650  54.4848780   6.6085020  59.3164650  53.7890470   7.0196490
  61.0355460  63.5372750   8.8883380  61.6529460  64.2123830   8.6067830
  60.1748580  63.9460730   8.7970880  71.9533050  65.0012160   6.8038020
  71.2696570  65.6711270   6.7954690  72.4927340  65.1992810   6.0382880
  73.4057190  54.8291820   4.9319750  72.4582100  54.8630800   5.0635180
  73.7307180  55.6430770   5.3169110  63.9376730  51.1289000   3.2275740
  64.2451710  50.5735890   2.5111240  63.0077430  51.2633460   3.0448730
  69.4891790  66.8456290   5.5183200  69.5018950  66.4418580   4.6505460
  68.9367010  67.6203580   5.4144630  68.8877230  61.7486130   6.8465810
  69.3046020  61.5346240   6.0119270  69.6117050  62.0058920   7.4174430
  72.8339330  60.1473350   6.9382050  72.0057960  60.2166440   6.4632180
  73.4289810  60.7327660   6.4697880  69.7981340  56.9342670   7.8836920
  69.3852520  57.7596380   8.1376910  69.0657290  56.3487710   7.6913280
  61.9314130  59.7202570   2.7455590  61.5271130  59.0079820   2.2501490
  62.0177250  59.3755810   3.6343630  62.3995830  63.4070130   4.9094800
  62.1024120  62.8015600   4.2302580  63.3495650  63.4447440   4.7984160
  60.6442750  56.4945780   6.5254630  61.1957340  56.6041120   5.7507880
  61.1586260  56.8683380   7.2409860  70.4881440  66.9802000   8.5717900
  70.0112000  67.7874190   8.3790510  69.8043230  66.3280330   8.7244110
  61.4914260  63.1451820  11.5602600  60.5942790  63.3691790  11.8076000
  61.5167130  63.2686760  10.6114000  60.3185480  60.0165140  10.1359970
  60.1793250  60.8887940  10.5047370  59.4366840  59.6737950   9.9907910
  62.1165830  65.9586840  12.3445120  62.0881260  66.3629790  11.4773550
  61.9530800  65.0297200  12.1816720  74.0680650  66.7413940  13.6409290
  74.5440370  67.2196830  14.3198370  74.6887810  66.6731430  12.9154790
  56.2704130  61.7862690   6.0530880  56.3484550  61.9211460   5.1086600
  56.8845810  61.0778580   6.2459000  57.5151760  63.4862880   2.4637060
  57.1079840  63.6277470   1.6090660  58.4064770  63.2023040   2.2608270
  73.4713900  63.9326790  10.8009300  73.5976960  63.6938670   9.8826480
  73.5135280  63.1011330  11.2731380  67.3330640  67.6354790   9.3704110
  67.8475310  67.5462800  10.1726540  66.4899720  67.9814490   9.6632020
  73.3237910  55.9859250  11.7659040  72.7082180  56.4938920  11.2374500
  73.0034330  55.0857580  11.7084980  56.3263650  62.8276860   8.5925340
  56.4894690  62.3582220   7.7744710  56.7916100  62.3200420   9.2574180
  61.0982420  51.9582620   3.6285910  60.6550570  52.7392160   3.2970430
  61.6567410  52.2812510   4.3356850  65.3852230  54.8251140   9.2321230
  64.9231600  55.0334160  10.0441170  64.9830340  54.0110490   8.9291900
  70.3856740  56.0460090  10.3617890  69.5350330  55.7465840  10.6826960
  70.2258530  56.2902100   9.4501710  67.4806450  57.5461840  12.4616680
  67.8059860  56.7125590  12.1218910  68.2686780  58.0690360  12.6095010
  63.1358320  52.5029950   5.4875510  63.4330650  53.4092780   5.4067530
  63.6843880  52.0148730   4.8735080  63.3295850  57.9801770  12.0227430
  63.2339450  57.0396500  11.8727830  64.1727830  58.2016840  11.6275500
  58.4606390  54.3915440  10.1761210  58.0669780  55.2390650  10.3833990
  57.7724790  53.7541810  10.3669850  65.0351440  54.4750410  13.2457950
  64.3449760  54.2822610  13.8804040  65.7783740  54.7585050  13.7782250
  55.7623440  52.3143900   4.2091290  55.4736490  52.8846760   4.9216270
  56.5069200  51.8348350   4.5722520  67.3114410  58.3148850   6.0811870
  66.5795530  58.8235660   6.4301970  66.9138750  57.4978830   5.7800650
  63.7491800  54.9903050   4.4864360  63.7527860  54.5493000   3.6368900
  64.6442920  55.3120380   4.5936180  59.5994180  54.8729540   3.4458570
  59.2594230  55.3504770   4.2025620  58.8371500  54.4194660   3.0859670
  67.7740320  53.7682530   5.4934810  67.7913060  54.2191180   6.3376660
  67.5255900  52.8688170   5.7068250  71.2011070  51.1814710  11.3321190
  71.5256840  50.4504370  11.8579170  71.2367580  50.8628350  10.4302180
  57.9002630  62.2028290  10.7521150  57.5157420  61.5621960  11.3504110
  58.2114820  62.9064410  11.3215880  64.0499770  59.0504830   6.2329770
  64.4169900  58.5763400   6.9791110  63.8604830  59.9246400   6.5738110
  56.9140260  53.7948520   2.3623240  56.6287180  53.4304190   3.2001860
  56.8519120  53.0628980   1.7486380  61.8399140  58.0913470   8.5513980
  61.5356210  58.9705450   8.7764340  62.7945600  58.1513260   8.5871420
  71.1268910  61.2939820   4.9407220  71.8468030  61.7895110   4.5503330
  70.9250730  60.6157710   4.2961090  66.5087710  61.3648880  10.8276220
  66.4425020  60.4444550  10.5733810  65.8792850  61.4624320  11.5420860
  60.4118330  61.9654840   2.7859640  60.9297000  61.1623100   2.7316530
  59.9602350  61.9033980   3.6276470  57.8962870  58.9316210   9.6985340
  57.5377810  59.5970060  10.2858680  57.6017430  58.0999760  10.0697960
  61.0975990  59.3900450  12.5824890  60.7976130  59.5357630  11.6852710
  61.8687230  58.8305740  12.4898280  66.4404440  64.1869450  10.5780020
  66.4548980  63.2550410  10.3598930  65.7329540  64.2729210  11.2169790
  72.6515650  60.8276790   9.9248600  71.9263840  61.4205570   9.7277990
  73.1791110  60.8200330   9.1261970  68.1815240  62.5536960   3.4232450
  68.5339060  61.9565090   2.7633820  67.2977570  62.2281190   3.5940700
  65.8738340  65.8287020   7.6720520  66.5180560  66.0346400   8.3493940
  66.2367780  65.0675420   7.2191370  67.1470420  63.8319370   6.3897970
  67.7892650  63.1312530   6.5030140  67.6719770  64.6117810   6.2094860
  68.9208040  64.6314270   9.5934030  69.2564280  65.2180960  10.2711950
  68.0008380  64.5006980   9.8231820  56.4711440  52.4209450  10.3757440
  55.7569960  52.6206370  10.9810050  56.8906480  51.6449020  10.7472240
  56.7584030  66.4089710  11.3623970  56.8675150  65.4684450  11.2219360
  56.1064590  66.6744460  10.7137700  64.7496620  64.6805600  12.7622090
  64.4293490  63.9614840  13.3067780  64.0754980  65.3560670  12.8358150
  67.9650220  54.9131760   8.1258890  68.3331040  54.0926970   8.4538460
  67.1048420  54.9733650   8.5414540  64.9252210  57.5671350   8.3496860
  65.4237460  58.0417170   9.0148710  65.0675160  56.6434870   8.5566890
  72.1319070  53.7839310   9.1925250  71.6292670  54.5244710   9.5319060
  72.9475730  54.1723310   8.8762040  70.4241080  59.0272490   2.6386610
  69.4831220  59.0422720   2.8134300  70.7385150  58.2408450   3.0846910
  72.4266660  66.1981340   4.3140870  72.5514080  67.0212510   4.7864680
  73.2932220  65.9872070   3.9665020  59.8984190  68.2912550   3.9858000
  60.6346670  67.7428010   4.2566570  60.2825110  69.1568560   3.8463990
  58.9042470  67.4758620  13.1743580  59.7055200  67.7970670  13.5878980
  58.3894290  67.1154200  13.8963490  67.7407100  63.5838490  13.1218990
  67.1345260  63.6070090  12.3814740  67.4361210  62.8521530  13.6586240
  69.1707470  67.3118780  11.7328400  70.1229220  67.2276800  11.6828640
  69.0235690  67.9760490  12.4062190  56.6240280  59.9632080  12.1179630
  57.1279300  59.3839360  12.6895860  55.8847700  60.2472310  12.6556000
  63.6778220  61.3703070  11.6515150  62.9123890  61.9388070  11.5669820
  63.8594180  61.0779280  10.7583380  70.8201570  63.1008400  12.2090170
  71.5611040  63.4384160  11.7057630  70.0574250  63.2700460  11.6559940
  58.6563360  58.1061670  13.0129700  58.6968700  57.8075540  13.9214930
  59.5108860  58.5069280  12.8537220  60.5969170  56.6853770  10.9804190
  60.0665630  56.1944720  10.3527530  61.2657240  57.1137970  10.4462120
  69.4947230  61.1523230  10.7445380  69.9088250  61.3068310  11.5935800
  68.5598230  61.2778450  10.9071160  69.9669400  58.4919390  12.7484530
  70.5490170  57.7371710  12.6605010  70.1431170  59.0226830  11.9716010
  61.0841470  53.6516140  11.0601480  60.9898340  53.0336890  10.3352350
  60.5038860  54.3782430  10.8331390  63.8502910  52.2089380   8.0928870
  63.4020210  52.2313640   7.2474420  63.2168110  51.8108400   8.6899170
  64.2562460  61.1043710   8.7141310  64.6750570  61.9476440   8.5417550
  63.3371090  61.2415750   8.4848090  66.5926360  58.8359890  10.0979150
  66.7122570  58.2401030  10.8373990  67.4520360  58.8729580   9.6780450
  68.9314260  59.3897080   8.6741660  68.4049480  59.9139700   8.0706800
  69.2745600  60.0224470   9.3051390  62.1069880  67.4096720   9.8299040
  61.5690970  68.1342780   9.5107740  62.3603840  66.9327060   9.0396380
  63.3595130  55.3781240  11.3554970  63.9494820  55.0697090  12.0432790
  62.5415370  54.9060990  11.5114870  68.1788560  54.9947050  11.5887990
  67.4904080  54.3328590  11.5237980  68.8994580  54.5485320  12.0336450
  64.9632090  68.6447930  10.0885690  64.8890790  69.5483070  10.3958060
  64.0610930  68.3259830  10.0607760  56.3659380  65.9722520   3.3919310
  56.6962390  65.1043580   3.1597950  56.7950380  66.1781040   4.2224270
  56.8549590  66.8393110   6.1300940  56.4180580  67.0193910   6.9625090
  57.4227270  67.5967730   5.9882660  72.4911770  66.3410110  10.4178250
  71.8913760  66.4002670   9.6742170  72.6205670  65.4015090  10.5475100
  56.6874020  59.3513340   2.4889820  56.0322860  59.0824980   1.8449520
  57.5251970  59.2417820   2.0391800  74.1929650  61.6825510   3.1024090
  74.5638480  60.8992830   2.6960060  74.8331580  62.3714610   2.9241390
  71.1763410  63.0662090   8.5154410  70.3623250  63.4959250   8.7780200
  71.5837610  63.6780500   7.9023460  57.7249950  59.7365910   7.0293160
  58.0922990  59.6493310   7.9089180  57.1560770  58.9732460   6.9300020
  72.5253810  58.2050290  10.0423630  72.2939900  57.9763040   9.1421580
  72.7858360  59.1249840   9.9968520  57.2765950  56.6475000  10.9351580
  56.3822000  56.6141760  11.2745290  57.8163500  56.8461790  11.7002830
  70.9641880  53.4306720  12.8203330  71.8412060  53.4390120  13.2037330
  70.9762720  52.6937560  12.2095680  72.4105150  57.2836260   3.7091350
  72.9342630  56.7898910   3.0781520  72.9964570  57.4186620   4.4538920
  72.5894870  57.3676130   7.2310900  71.6397580  57.3339670   7.3455890
  72.7707880  58.2776240   6.9960670  57.7805660  50.9223330   5.2834800
  58.4281850  50.3720710   4.8429960  58.2007500  51.1766480   6.1050610
  73.3292280  55.1770560   2.1821440  73.2191560  55.0226600   3.1203710
  74.0899870  54.6491500   1.9396850  71.6758000  51.1164690   8.6404440
  72.3130220  51.7298830   9.0063630  71.8232890  51.1525350   7.6953670
  57.5337660  51.0779000   8.0260120  57.1852480  51.5342820   8.7918300
  57.2025360  50.1836130   8.1082550  59.1402030  64.2498600  12.1913310
  59.0971660  63.8791510  13.0727770  59.2713040  65.1876170  12.3315130
  62.8408060  65.8058190   7.7923030  62.5999420  66.0732750   6.9053550
  63.7810700  65.9763920   7.8473890  65.0462480  52.2690880  11.5479540
  64.9851370  52.8612710  12.2974950  65.9862860  52.1616840  11.4029800
  67.6837040  51.9260940  11.1871830  68.2977450  52.2440230  10.5252910
  68.2286600  51.4409530  11.8067690  74.1012220  67.8252570   8.5933670
  73.6070500  68.2221440   7.8760800  73.4925510  67.2001780   8.9870950
  58.2058300  50.6055200  11.3010890  58.7541290  50.4243250  10.5377000
  58.2713610  49.8149310  11.8367200  58.9790060  67.1960850   9.3111090
  58.3850380  67.0645550  10.0501130  58.9713900  66.3598990   8.8453190
  68.4245080  50.4893080   7.5141120  67.5504920  50.8228190   7.3114050
  68.3155830  50.0166260   8.3392990  69.3317060  52.6963950   8.8982840
  69.0030420  51.8815710   8.5184570  70.2799360  52.6533760   8.7748530
  71.7851670  68.4675990   5.8720410  71.3254640  69.2191800   5.4978430
  71.1564130  67.7482460   5.8135210  58.6102290  64.5619230   8.2619130
  57.8836350  63.9424520   8.1945080  58.6711440  64.9559840   7.3917210
  62.2147390  66.7764230   5.0468540  62.7312410  66.1651590   4.5216800
  62.8644770  67.2793010   5.5379550  64.9542890  67.6672720   5.8737520
  65.2420700  67.4127020   4.9970530  65.4666110  67.1150080   6.4643090
  66.1719900  51.4062920   6.4534030  65.3891690  51.8808420   6.7330790
  65.8782830  50.5017750   6.3447210  70.7240970  52.1086020   4.4983120
  71.1649060  52.0531120   3.6504720  70.4548560  53.0244030   4.5693300
  72.5879540  51.7401260   2.5091940  72.5267940  50.7962480   2.3622960
  73.3671570  51.8481350   3.0545400  64.0574120  53.8249670   1.9650060
  63.2448630  53.4506560   1.6245940  64.5615760  53.0694750   2.2671250
  68.5599100  50.4892120   3.2033130  69.1628470  51.0612330   3.6781650
  67.8192090  51.0531560   2.9807030  65.0215250  68.5888820  13.2405720
  65.9482560  68.3533090  13.2841680  65.0065680  69.4160820  12.7591750
  62.2078860  51.2533570  13.0047600  61.9263130  51.7567170  12.2408420
  62.5898560  50.4555320  12.6389730  68.8094320  50.6687150  13.5828070
  68.6959770  50.9881760  14.4779590  69.6264060  51.0699660  13.2865350
  71.5892810  67.8158680  13.0646760  72.3818130  67.3207910  12.8572720
  71.8825960  68.4948820  13.6722370  67.7152470  39.9136130  59.0436770
  67.6346520  38.9990740  58.7728480  67.3016890  40.4103200  58.3376480
  65.8470510  41.6915150  60.9246040  65.0712610  41.2115590  61.2144610
  66.4983440  41.0120800  60.7502200  59.8636340  42.0034960  61.8021800
  59.0321220  41.7483670  62.2018310  60.4717320  42.0745730  62.5379720
  69.8677940  46.0975340  59.7045170  69.4059470  45.3262580  60.0332340
  70.6803490  46.1241410  60.2097620  59.8437600  46.0375050  61.9979820
  60.1465640  45.1472790  61.8190040  60.5881190  46.5945270  61.7702070
  58.2728290  36.9636850  55.5864190  57.3844990  37.3052820  55.4844070
  58.5569480  36.7637170  54.6945020  56.2361300  39.5642500  61.4703890
  56.8077410  38.7964700  61.4707530  56.2362840  39.8631260  60.5610500
  66.0941250  48.3833350  59.3249160  65.4752690  48.8390850  58.7543600
  66.9493030  48.5384810  58.9238860  65.2879500  44.3672340  60.9316200
  65.2187780  43.4262280  60.7705330  66.0499360  44.4573750  61.5038770
  66.3184670  37.1742720  61.1585130  66.6949490  36.3014600  61.0458800
  66.2204180  37.5101420  60.2675570  60.4489680  35.5468350  56.6202570
  60.5556430  36.4472080  56.9271330  59.5382040  35.4986320  56.3297220
  70.1008790  34.6693160  58.0913470  70.9218410  34.1789730  58.1338950
  70.1342870  35.2590820  58.8445310  58.0972840  37.4687360  61.8655160
  58.7782950  37.7325730  62.4842560  57.7820890  36.6288230  62.1993170
  62.2897410  38.5154720  60.9527750  62.7975630  39.0135690  61.5932770
  62.8210650  37.7389920  60.7767110  66.9604600  43.2672590  56.7181070
  66.3421870  43.7322040  56.1543790  67.4727850  43.9600070  57.1350580
  70.3370270  36.6093540  60.8641010  69.6325840  36.8978430  61.4444120
  70.6982430  37.4193650  60.5040570  60.2548840  34.8663240  63.2261620
  60.5965650  35.7105290  62.9315490  59.3164650  35.0146980  63.3426960
  56.3287800  43.9529120  54.0920700  55.9515780  44.4416220  53.3605600
  56.5860870  44.6254400  54.7227230  71.9533050  46.2268670  63.1268490
  71.2696570  46.8967780  63.1185160  72.4927340  46.4249320  62.3613350
  73.4057190  36.0548330  61.2550220  72.4582100  36.0887310  61.3865650
  73.7307180  36.8687280  61.6399580  63.9376730  32.3545510  59.5506210
  64.2451710  31.7992400  58.8341710  63.0077430  32.4889970  59.3679200
  69.4891790  48.0712800  61.8413670  69.5018950  47.6675090  60.9735930
  68.9367010  48.8460090  61.7375100  70.7837210  44.7929020  56.9303840
  70.6733540  43.8503350  57.0553260  70.7805460  45.1544660  57.8166600
  66.3257490  40.4194340  56.2866330  65.3986770  40.3531720  56.5154800
  66.4782310  41.3574470  56.1721570  66.3126570  36.6911340  53.2833490
  65.3730240  36.8525300  53.3685950  66.6309830  37.4097020  52.7369480
  72.8339330  41.3729860  63.2612520  72.0057960  41.4422950  62.7862650
  73.4289810  41.9584170  62.7928350  70.3554780  41.9814640  56.7901580
  69.7367200  41.6434190  56.1427880  70.3379230  41.3374400  57.4980770
  61.9314130  40.9459080  59.0686060  61.5271130  40.2336330  58.5731960
  62.0177250  40.6012320  59.9574100  62.3995830  44.6326640  61.2325270
  62.1024120  44.0272110  60.5533050  63.3495650  44.6703950  61.1214630
  68.5319480  41.2201450  53.7974330  68.9712760  40.3823880  53.6512150
  69.2447900  41.8530850  53.8838470  66.6414860  46.1597520  57.7655570
  67.0810770  46.9021850  57.3510960  66.5801750  46.4024090  58.6894530
  72.1136620  32.4744260  52.1115370  71.8009280  32.5671090  53.0114440
  72.8749090  33.0525290  52.0612800  58.6318760  39.8404060  56.5692710
  58.5116360  40.5666150  55.9573980  58.3219650  39.0706970  56.0920620
  56.2704130  43.0119200  62.3761350  56.3484550  43.1467970  61.4317070
  56.8845810  42.3035090  62.5689470  57.5151760  44.7119390  58.7867530
  57.1079840  44.8533980  57.9321130  58.4064770  44.4279550  58.5838740
  69.3085040  49.1466640  55.1218580  69.1486180  48.8569580  56.0200410
  69.1431750  48.3706770  54.5863810  61.7873420  48.9265170  56.8990200
  61.6115900  48.0100710  56.6858000  60.9329160  49.2852460  57.1388000
  69.0111170  46.6554200  53.6816580  68.3176330  46.6531490  53.0218860
  69.7534030  46.2313520  53.2510750  68.5761100  48.2816910  57.7565070
  69.0318050  47.5006290  58.0703690  68.9153620  48.9923730  58.3006250
  61.0982420  33.1839130  59.9516380  60.6550570  33.9648670  59.6200900
  61.6567410  33.5069020  60.6587320  64.2141240  32.8049830  54.8322210
  63.5895420  32.8009700  55.5575520  64.1271360  31.9380790  54.4358180
  63.1358320  33.7286460  61.8105980  63.4330650  34.6349290  61.7298000
  63.6843880  33.2405240  61.1965550  60.8896640  38.3072700  57.6797630
  60.6637560  38.0909870  58.5844250  60.1089170  38.7401160  57.3343600
  68.1194400  38.3136070  56.2788280  67.5203290  39.0371870  56.0951900
  68.6674010  38.2512850  55.4964730  66.7259270  36.9499610  58.3091560
  67.1188840  37.2671810  57.4960250  67.0876120  36.0711490  58.4236080
  55.7623440  33.5400410  60.5321760  55.4736490  34.1103270  61.2446740
  56.5069200  33.0604860  60.8952990  55.9493670  37.4820530  51.7424480
  55.8668340  38.4251290  51.8839470  55.5976730  37.3395440  50.8636830
  67.3114410  39.5405360  62.4042340  66.5795530  40.0492170  62.7532440
  66.9138750  38.7235340  62.1031120  63.7491800  36.2159560  60.8094830
  63.7527860  35.7749510  59.9599370  64.6442920  36.5376890  60.9166650
  59.5994180  36.0986050  59.7689040  59.2594230  36.5761280  60.5256090
  58.8371500  35.6451170  59.4090140  63.8111950  37.2171640  53.8001590
  63.9324770  37.1758120  54.7487410  63.4260460  38.0795790  53.6448320
  67.7740320  34.9939040  61.8165280  67.7913060  35.4447690  62.6607130
  67.5255900  34.0944680  62.0298720  62.8233450  39.5272780  53.1984890
  62.2550350  39.0791030  52.5720800  63.5322450  39.8865560  52.6650040
  64.0499770  40.2761340  62.5560240  64.4169900  39.8019910  63.3021580
  63.8604830  41.1502910  62.8968580  56.9140260  35.0205030  58.6853710
  56.6287180  34.6560700  59.5232330  56.8519120  34.2885490  58.0716850
  60.3680930  43.5230970  55.4711300  59.5943190  42.9828590  55.3110020
  61.0975560  43.0037580  55.1329060  71.1268910  42.5196330  61.2637690
  71.8468030  43.0151620  60.8733800  70.9250730  41.8414220  60.6191560
  66.5878850  33.9134290  55.4067080  65.7743460  33.4147460  55.3312390
  66.3940800  34.7532540  54.9903430  69.3027240  38.2853940  53.7029240
  70.1906860  38.5971170  53.5280580  69.2732330  37.4126190  53.3109820
  60.4118330  43.1911350  59.1090110  60.9297000  42.3879610  59.0547000
  59.9602350  43.1290490  59.9506940  65.2987830  44.4577630  54.3817410
  65.6403530  45.2019860  53.8860730  64.4700540  44.7708750  54.7442240
  71.5741510  39.5965780  53.1709100  71.4905230  40.0280000  52.3205540
  72.2935700  40.0564130  53.6035920  72.6028760  46.4508040  55.8991230
  71.9604920  45.7963660  56.1734950  72.2159420  46.8563130  55.1231900
  68.1815240  43.7793470  59.7462920  68.5339060  43.1821600  59.0864290
  67.2977570  43.4537700  59.9171170  64.2678520  44.5391160  57.1533330
  64.9549650  45.0860370  57.5340920  63.4810940  45.0831890  57.1882940
  56.4070920  40.1563980  52.6450410  57.2765770  40.4388780  52.9286330
  55.9161240  40.9699850  52.5299220  63.5705730  41.5437190  56.7658690
  64.0268510  42.3542440  56.9918880  63.2193940  41.2260330  57.5977180
  59.4717510  31.8874840  57.2381210  59.3432140  31.8792740  58.1866130
  58.6479530  32.2257930  56.8872220  67.1470420  45.0575880  62.7128440
  67.7892650  44.3569040  62.8260610  67.6719770  45.8374320  62.5325330
  70.9926140  45.3424500  52.4367580  70.7663720  44.6254940  53.0292220
  70.6022340  45.0936940  51.5989330  56.7742170  49.3691360  53.2112040
  57.1339810  49.9680700  52.5569310  56.6334510  49.9151250  53.9847070
  70.5742390  43.2596440  54.0981740  70.2864090  43.7209130  54.8859620
  71.3694560  42.7994210  54.3665960  62.7910790  46.7522560  54.0285710
  62.7820890  47.4852250  53.4130220  61.8709150  46.5054140  54.1212670
  58.3917430  41.9737450  54.7732470  57.7845380  42.7136350  54.7827770
  58.8666780  42.0636810  53.9470670  71.3312250  35.0945210  55.2576920
  70.7025410  35.1990880  54.5435150  70.8364170  35.3141990  56.0470800
  65.7770390  46.8150800  52.6910900  65.8782370  46.6114790  51.7612880
  64.8772130  46.5609080  52.8958680  63.2996280  37.3731160  56.6734800
  62.5912430  37.8417500  57.1148410  63.5840760  36.7153170  57.3079990
  67.3311710  34.0981820  58.1130590  67.2079490  34.1167950  57.1640100
  68.2796270  34.1460760  58.2328990  64.4188500  49.3337120  57.3858570
  64.6730000  49.2958510  56.4637940  63.4700980  49.2070450  57.3786820
  61.5031300  35.6816240  54.0485510  62.3521830  36.1186390  53.9825700
  61.1362570  35.9936500  54.8757570  70.4241080  40.2529000  58.9617080
  69.4831220  40.2679230  59.1364770  70.7385150  39.4664960  59.4077380
  60.4022720  41.9348600  52.5221040  61.1685990  41.8229960  53.0846470
  60.4797410  41.2386570  51.8697810  59.0969480  39.3673670  53.2053930
  59.1773070  38.4201180  53.3171330  59.9889230  39.6980550  53.3114590
  72.4266660  47.4237850  60.6371340  72.5514080  48.2469020  61.1095150
  73.2932220  47.2128580  60.2895490  59.8984190  49.5169060  60.3088470
  60.6346670  48.9684520  60.5797040  60.2825110  50.3825070  60.1694460
  56.7829670  45.5842630  56.1829980  55.8569450  45.8263770  56.1735390
  57.2486100  46.4116890  56.0614730  63.0086500  48.6899370  52.1314040
  63.8015110  48.9788200  51.6795830  62.4890850  48.2591540  51.4526520
  72.0616670  47.9169500  53.5550780  71.7758180  47.5034640  52.7404960
  71.8636220  48.8457210  53.4351300  63.5263900  43.9102780  51.9956390
  63.4214540  43.2955130  52.7217770  63.3588120  43.3868670  51.2119400
  66.7666630  42.9722810  52.5998380  66.2176730  43.4192110  53.2441120
  67.3885890  42.4672060  53.1236050  62.4341750  41.9313730  54.4963680
  62.8558170  41.7653600  55.3395070  62.5592590  41.1213960  54.0018820
  64.9469390  40.9551340  51.7440780  65.4675050  40.2400360  51.3781930
  65.5937790  41.5937210  52.0441290  61.3300650  38.0046960  51.4421840
  61.1289710  37.1414320  51.8035180  61.1592700  37.9180320  50.5043440
  68.8088960  32.8155190  53.9708720  69.0891250  31.9723090  54.3268140
  68.0354690  33.0478300  54.4847470  60.1283450  35.1047580  51.4299720
  60.4309350  35.1115010  50.5218870  60.8678040  34.7545440  51.9267380
  63.3468380  34.0482200  52.4155920  62.9990380  33.3706190  51.8358370
  63.5481150  33.5871710  53.2299310  65.5117420  49.0362950  54.0342520
  66.4068210  49.3747920  54.0561280  65.5435050  48.3142360  53.4066800
  59.1513580  44.4090000  52.2629520  59.5888450  44.9519670  52.9187100
  59.6361310  43.5836950  52.2725860  56.3659380  47.1979030  59.7149780
  56.6962390  46.3300090  59.4828420  56.7950380  47.4037550  60.5454740
  60.9621300  45.5288040  57.3751750  60.6616840  45.4053010  58.2755660
  60.8558790  44.6696630  56.9667480  56.8549590  48.0649620  62.4531410
  56.4180580  48.2450420  63.2855560  57.4227270  48.8224240  62.3113130
  73.7313220  45.3084440  52.0778430  72.9006180  45.3761090  52.5485660
  73.9085050  46.1988560  51.7745290  73.1869680  42.0531920  54.5812630
  73.9488590  42.6228570  54.6872320  73.2024050  41.4859120  55.3520940
  56.6874020  40.5769850  58.8120290  56.0322860  40.3081490  58.1679990
  57.5251970  40.4674330  58.3622270  74.1929650  42.9082020  59.4254560
  74.5638480  42.1249340  59.0190530  74.8331580  43.5971120  59.2471860
  73.2388850  42.3466290  51.7385150  73.5137690  43.2545170  51.6104370
  73.0499590  42.2828820  52.6747140  69.6364460  35.3711140  53.0338780
  70.0549340  35.1842120  52.1935440  69.3300520  34.5190190  53.3441710
  73.1354190  40.2835280  56.7314580  72.7597790  39.5163210  56.2995870
  72.4057310  40.6657980  57.2189510  55.9012100  37.7868780  54.7545620
  54.9976180  38.0498980  54.5797280  56.3852720  38.0579950  53.9745580
  72.4105150  38.5092770  60.0321820  72.9342630  38.0155420  59.4011990
  72.9964570  38.6443130  60.7769390  58.4439310  36.8434320  52.6640000
  59.1531010  36.4217540  52.1787280  57.7279250  36.9109550  52.0323350
  58.0913470  32.8973650  51.7042650  58.8141600  33.4382590  52.0223870
  58.3637990  32.6237070  50.8284190  71.9005120  37.7666120  55.9714230
  72.3964240  37.5336990  56.7563110  71.7021190  36.9277960  55.5551870
  57.7805660  32.1479840  61.6065270  58.4281850  31.5977220  61.1660430
  58.2007500  32.4022990  62.4281080  73.3292280  36.4027070  58.5051910
  73.2191560  36.2483110  59.4434180  74.0899870  35.8748010  58.2627320
  74.2182550  34.2334990  51.7458050  75.1431860  34.1016170  51.5376340
  74.1958340  34.3127810  52.6994500  74.2921040  35.0045650  54.3714760
  73.4972540  34.9390770  54.9007670  74.4964320  35.9396290  54.3600110
  71.2339460  49.0437200  58.3653150  71.8298530  48.7221770  57.6887570
  71.4917610  48.5709020  59.1566420  71.7851670  49.6932500  62.1950880
  71.3254640  50.4448310  61.8208900  71.1564130  48.9738970  62.1365680
  62.2147390  48.0020740  61.3699010  62.7312410  47.3908100  60.8447270
  62.8644770  48.5049520  61.8610020  64.9542890  48.8929230  62.1967990
  65.2420700  48.6383530  61.3201000  65.4666110  48.3406590  62.7873560
  66.1719900  32.6319430  62.7764500  65.3891690  33.1064930  63.0561260
  65.8782830  31.7274260  62.6677680  70.7240970  33.3342530  60.8213590
  71.1649060  33.2787630  59.9735190  70.4548560  34.2500540  60.8923770
  72.5879540  32.9657770  58.8322410  72.5267940  32.0218990  58.6853430
  73.3671570  33.0737860  59.3775870  56.8932290  49.1050130  57.7946360
  56.7254330  48.4720810  58.4928250  56.0266800  49.3109530  57.4440550
  57.5160310  32.9366910  55.2978220  58.2739670  33.0495790  54.7242250
  57.0537480  33.7736110  55.2521650  64.0574120  35.0506180  58.2880530
  63.2448630  34.6763070  57.9476410  64.5615760  34.2951260  58.5901720
  68.5599100  31.7148630  59.5263600  69.1628470  32.2868840  60.0012120
  67.8192090  32.2788070  59.3037500  71.7033700  32.1170190  54.8003880
  71.8984330  33.0153640  55.0671310  70.9163570  31.8857270  55.2936830
  58.4994990  47.7983360  55.2396500  57.9742610  48.1791390  54.5358460
  58.4239570  48.4234130  55.9606210  59.8885460  33.4630960  53.8380190
  60.4178220  32.6760760  53.7088140  60.5213780  34.1422150  54.0715720
  62.0823300  33.2006100  56.8925580  61.4526040  32.4993410  57.0595710
  61.5428440  33.9610230  56.6758740  73.2560310  49.3570900  56.5610440
  73.4312500  48.6708640  55.9171360  72.5581880  49.8817950  56.1687110
  61.0987960  49.7465740  54.1145750  61.8306780  49.4625020  53.5669640
  61.3581630  49.5079020  55.0045130  60.2602750  45.8630470  54.1192080
  59.6311630  46.3315570  54.6677910  60.3750580  45.0179690  54.5538270
  67.7152470  39.9136130  40.2693280  67.6346520  38.9990740  39.9984990
  67.3016890  40.4103200  39.5632990  65.8470510  41.6915150  42.1502550
  65.0712610  41.2115590  42.4401120  66.4983440  41.0120800  41.9758710
  59.8636340  42.0034960  43.0278310  59.0321220  41.7483670  43.4274820
  60.4717320  42.0745730  43.7636230  69.8677940  46.0975340  40.9301680
  69.4059470  45.3262580  41.2588850  70.6803490  46.1241410  41.4354130
  59.8437600  46.0375050  43.2236330  60.1465640  45.1472790  43.0446550
  60.5881190  46.5945270  42.9958580  58.2728290  36.9636850  36.8120700
  57.3844990  37.3052820  36.7100580  58.5569480  36.7637170  35.9201530
  56.2361300  39.5642500  42.6960400  56.8077410  38.7964700  42.6964040
  56.2362840  39.8631260  41.7867010  66.0941250  48.3833350  40.5505670
  65.4752690  48.8390850  39.9800110  66.9493030  48.5384810  40.1495370
  65.2879500  44.3672340  42.1572710  65.2187780  43.4262280  41.9961840
  66.0499360  44.4573750  42.7295280  57.4786170  34.9726860  44.4829330
  57.2989010  34.0752610  44.7632090  57.0766250  35.5198730  45.1576280
  66.3184670  37.1742720  42.3841640  66.6949490  36.3014600  42.2715310
  66.2204180  37.5101420  41.4932080  60.4489680  35.5468350  37.8459080
  60.5556430  36.4472080  38.1527840  59.5382040  35.4986320  37.5553730
  70.1008790  34.6693160  39.3169980  70.9218410  34.1789730  39.3595460
  70.1342870  35.2590820  40.0701820  58.0972840  37.4687360  43.0911670
  58.7782950  37.7325730  43.7099070  57.7820890  36.6288230  43.4249680
  62.2897410  38.5154720  42.1784260  62.7975630  39.0135690  42.8189280
  62.8210650  37.7389920  42.0023620  74.3908340  36.6859910  45.8813610
  73.6860510  37.0741620  45.3628720  74.6566260  37.3810200  46.4834540
  60.5733510  33.1553280  46.4447680  60.5751950  33.6725670  45.6393580
  59.7437820  32.6783460  46.4217610  66.9604600  43.2672590  37.9437580
  66.3421870  43.7322040  37.3800300  67.4727850  43.9600070  38.3607090
  61.8236360  42.7948460  44.6221180  61.4905740  43.4217380  45.2642250
  62.0003040  43.3210340  43.8422850  70.3370270  36.6093540  42.0897520
  69.6325840  36.8978430  42.6700630  70.6982430  37.4193650  41.7297080
  60.2548840  34.8663240  44.4518130  60.5965650  35.7105290  44.1572000
  59.3164650  35.0146980  44.5683470  61.0355460  44.7629260  46.4370360
  61.6529460  45.4380340  46.1554810  60.1748580  45.1717240  46.3457860
  56.3287800  43.9529120  35.3177210  55.9515780  44.4416220  34.5862110
  56.5860870  44.6254400  35.9483740  71.9533050  46.2268670  44.3525000
  71.2696570  46.8967780  44.3441670  72.4927340  46.4249320  43.5869860
  73.4057190  36.0548330  42.4806730  72.4582100  36.0887310  42.6122160
  73.7307180  36.8687280  42.8656090  63.9376730  32.3545510  40.7762720
  64.2451710  31.7992400  40.0598220  63.0077430  32.4889970  40.5935710
  69.4891790  48.0712800  43.0670180  69.5018950  47.6675090  42.1992440
  68.9367010  48.8460090  42.9631610  70.7837210  44.7929020  38.1560350
  70.6733540  43.8503350  38.2809770  70.7805460  45.1544660  39.0423110
  68.8877230  42.9742640  44.3952790  69.3046020  42.7602750  43.5606250
  69.6117050  43.2315430  44.9661410  66.3257490  40.4194340  37.5122840
  65.3986770  40.3531720  37.7411310  66.4782310  41.3574470  37.3978080
  66.3126570  36.6911340  34.5090000  65.3730240  36.8525300  34.5942460
  66.6309830  37.4097020  33.9625990  72.8339330  41.3729860  44.4869030
  72.0057960  41.4422950  44.0119160  73.4289810  41.9584170  44.0184860
  70.3554780  41.9814640  38.0158090  69.7367200  41.6434190  37.3684390
  70.3379230  41.3374400  38.7237280  69.7981340  38.1599180  45.4323900
  69.3852520  38.9852890  45.6863890  69.0657290  37.5744220  45.2400260
  61.9314130  40.9459080  40.2942570  61.5271130  40.2336330  39.7988470
  62.0177250  40.6012320  41.1830610  62.3995830  44.6326640  42.4581780
  62.1024120  44.0272110  41.7789560  63.3495650  44.6703950  42.3471140
  60.6442750  37.7202290  44.0741610  61.1957340  37.8297630  43.2994860
  61.1586260  38.0939890  44.7896840  70.4881440  48.2058510  46.1204880
  70.0112000  49.0130700  45.9277490  69.8043230  47.5536840  46.2731090
  61.4914260  44.3708330  49.1089580  60.5942790  44.5948300  49.3562980
  61.5167130  44.4943270  48.1600980  68.5319480  41.2201450  35.0230840
  68.9712760  40.3823880  34.8768660  69.2447900  41.8530850  35.1094980
  60.3185480  41.2421650  47.6846950  60.1793250  42.1144450  48.0534350
  59.4366840  40.8994460  47.5394890  66.6414860  46.1597520  38.9912080
  67.0810770  46.9021850  38.5767470  66.5801750  46.4024090  39.9151040
  62.1165830  47.1843350  49.8932100  62.0881260  47.5886300  49.0260530
  61.9530800  46.2553710  49.7303700  72.1136620  32.4744260  33.3371880
  71.8009280  32.5671090  34.2370950  72.8749090  33.0525290  33.2869310
  58.6318760  39.8404060  37.7949220  58.5116360  40.5666150  37.1830490
  58.3219650  39.0706970  37.3177130  74.0680650  47.9670450  51.1896270
  74.5440370  48.4453340  51.8685350  74.6887810  47.8987940  50.4641770
  56.2704130  43.0119200  43.6017860  56.3484550  43.1467970  42.6573580
  56.8845810  42.3035090  43.7945980  57.5151760  44.7119390  40.0124040
  57.1079840  44.8533980  39.1577640  58.4064770  44.4279550  39.8095250
  73.4713900  45.1583300  48.3496280  73.5976960  44.9195180  47.4313460
  73.5135280  44.3267840  48.8218360  67.3330640  48.8611300  46.9191090
  67.8475310  48.7719310  47.7213520  66.4899720  49.2071000  47.2119000
  69.3085040  49.1466640  36.3475090  69.1486180  48.8569580  37.2456920
  69.1431750  48.3706770  35.8120320  61.7873420  48.9265170  38.1246710
  61.6115900  48.0100710  37.9114510  60.9329160  49.2852460  38.3644510
  69.0111170  46.6554200  34.9073090  68.3176330  46.6531490  34.2475370
  69.7534030  46.2313520  34.4767260  68.5761100  48.2816910  38.9821580
  69.0318050  47.5006290  39.2960200  68.9153620  48.9923730  39.5262760
  73.3237910  37.2115760  49.3146020  72.7082180  37.7195430  48.7861480
  73.0034330  36.3114090  49.2571960  56.3263650  44.0533370  46.1412320
  56.4894690  43.5838730  45.3231690  56.7916100  43.5456930  46.8061160
  61.0982420  33.1839130  41.1772890  60.6550570  33.9648670  40.8457410
  61.6567410  33.5069020  41.8843830  65.3852230  36.0507650  46.7808210
  64.9231600  36.2590670  47.5928150  64.9830340  35.2367000  46.4778880
  70.3856740  37.2716600  47.9104870  69.5350330  36.9722350  48.2313940
  70.2258530  37.5158610  46.9988690  67.4806450  38.7718350  50.0103660
  67.8059860  37.9382100  49.6705890  68.2686780  39.2946870  50.1581990
  64.2141240  32.8049830  36.0578720  63.5895420  32.8009700  36.7832030
  64.1271360  31.9380790  35.6614690  63.1358320  33.7286460  43.0362490
  63.4330650  34.6349290  42.9554510  63.6843880  33.2405240  42.4222060
  60.8896640  38.3072700  38.9054140  60.6637560  38.0909870  39.8100760
  60.1089170  38.7401160  38.5600110  68.1194400  38.3136070  37.5044790
  67.5203290  39.0371870  37.3208410  68.6674010  38.2512850  36.7221240
  63.3295850  39.2058280  49.5714410  63.2339450  38.2653010  49.4214810
  64.1727830  39.4273350  49.1762480  66.7259270  36.9499610  39.5348070
  67.1188840  37.2671810  38.7216760  67.0876120  36.0711490  39.6492590
  58.4606390  35.6171950  47.7248190  58.0669780  36.4647160  47.9320970
  57.7724790  34.9798320  47.9156830  65.0351440  35.7006920  50.7944930
  64.3449760  35.5079120  51.4291020  65.7783740  35.9841560  51.3269230
  55.7623440  33.5400410  41.7578270  55.4736490  34.1103270  42.4703250
  56.5069200  33.0604860  42.1209500  55.9493670  37.4820530  32.9680990
  55.8668340  38.4251290  33.1095980  55.5976730  37.3395440  32.0893340
  67.3114410  39.5405360  43.6298850  66.5795530  40.0492170  43.9788950
  66.9138750  38.7235340  43.3287630  63.7491800  36.2159560  42.0351340
  63.7527860  35.7749510  41.1855880  64.6442920  36.5376890  42.1423160
  59.5994180  36.0986050  40.9945550  59.2594230  36.5761280  41.7512600
  58.8371500  35.6451170  40.6346650  63.8111950  37.2171640  35.0258100
  63.9324770  37.1758120  35.9743920  63.4260460  38.0795790  34.8704830
  67.7740320  34.9939040  43.0421790  67.7913060  35.4447690  43.8863640
  67.5255900  34.0944680  43.2555230  62.8233450  39.5272780  34.4241400
  62.2550350  39.0791030  33.7977310  63.5322450  39.8865560  33.8906550
  71.2011070  32.4071220  48.8808170  71.5256840  31.6760880  49.4066150
  71.2367580  32.0884860  47.9789160  57.9002630  43.4284800  48.3008130
  57.5157420  42.7878470  48.8991090  58.2114820  44.1320920  48.8702860
  64.0499770  40.2761340  43.7816750  64.4169900  39.8019910  44.5278090
  63.8604830  41.1502910  44.1225090  56.9140260  35.0205030  39.9110220
  56.6287180  34.6560700  40.7488840  56.8519120  34.2885490  39.2973360
  61.8399140  39.3169980  46.1000960  61.5356210  40.1961960  46.3251320
  62.7945600  39.3769770  46.1358400  60.3680930  43.5230970  36.6967810
  59.5943190  42.9828590  36.5366530  61.0975560  43.0037580  36.3585570
  71.1268910  42.5196330  42.4894200  71.8468030  43.0151620  42.0990310
  70.9250730  41.8414220  41.8448070  66.5878850  33.9134290  36.6323590
  65.7743460  33.4147460  36.5568900  66.3940800  34.7532540  36.2159940
  66.5087710  42.5905390  48.3763200  66.4425020  41.6701060  48.1220790
  65.8792850  42.6880830  49.0907840  69.3027240  38.2853940  34.9285750
  70.1906860  38.5971170  34.7537090  69.2732330  37.4126190  34.5366330
  60.4118330  43.1911350  40.3346620  60.9297000  42.3879610  40.2803510
  59.9602350  43.1290490  41.1763450  65.2987830  44.4577630  35.6073920
  65.6403530  45.2019860  35.1117240  64.4700540  44.7708750  35.9698750
  57.8962870  40.1572720  47.2472320  57.5377810  40.8226570  47.8345660
  57.6017430  39.3256270  47.6184940  61.0975990  40.6156960  50.1311870
  60.7976130  40.7614140  49.2339690  61.8687230  40.0562250  50.0385260
  66.4404440  45.4125960  48.1267000  66.4548980  44.4806920  47.9085910
  65.7329540  45.4985720  48.7656770  71.5741510  39.5965780  34.3965610
  71.4905230  40.0280000  33.5462050  72.2935700  40.0564130  34.8292430
  72.6515650  42.0533300  47.4735580  71.9263840  42.6462080  47.2764970
  73.1791110  42.0456840  46.6748950  72.6028760  46.4508040  37.1247740
  71.9604920  45.7963660  37.3991460  72.2159420  46.8563130  36.3488410
  68.1815240  43.7793470  40.9719430  68.5339060  43.1821600  40.3120800
  67.2977570  43.4537700  41.1427680  64.2678520  44.5391160  38.3789840
  64.9549650  45.0860370  38.7597430  63.4810940  45.0831890  38.4139450
  56.4070920  40.1563980  33.8706920  57.2765770  40.4388780  34.1542840
  55.9161240  40.9699850  33.7555730  63.5705730  41.5437190  37.9915200
  64.0268510  42.3542440  38.2175390  63.2193940  41.2260330  38.8233690
  65.8738340  47.0543530  45.2207500  66.5180560  47.2602910  45.8980920
  66.2367780  46.2931930  44.7678350  59.4717510  31.8874840  38.4637720
  59.3432140  31.8792740  39.4122640  58.6479530  32.2257930  38.1128730
  67.1470420  45.0575880  43.9384950  67.7892650  44.3569040  44.0517120
  67.6719770  45.8374320  43.7581840  70.9926140  45.3424500  33.6624090
  70.7663720  44.6254940  34.2548730  70.6022340  45.0936940  32.8245840
  68.9208040  45.8570780  47.1421010  69.2564280  46.4437470  47.8198930
  68.0008380  45.7263490  47.3718800  56.7742170  49.3691360  34.4368550
  57.1339810  49.9680700  33.7825820  56.6334510  49.9151250  35.2103580
  56.4711440  33.6465960  47.9244420  55.7569960  33.8462880  48.5297030
  56.8906480  32.8705530  48.2959220  70.5742390  43.2596440  35.3238250
  70.2864090  43.7209130  36.1116130  71.3694560  42.7994210  35.5922470
  56.7584030  47.6346220  48.9110950  56.8675150  46.6940960  48.7706340
  56.1064590  47.9000970  48.2624680  64.7496620  45.9062110  50.3109070
  64.4293490  45.1871350  50.8554760  64.0754980  46.5817180  50.3845130
  62.7910790  46.7522560  35.2542220  62.7820890  47.4852250  34.6386730
  61.8709150  46.5054140  35.3469180  58.3917430  41.9737450  35.9988980
  57.7845380  42.7136350  36.0084280  58.8666780  42.0636810  35.1727180
  67.9650220  36.1388270  45.6745870  68.3331040  35.3183480  46.0025440
  67.1048420  36.1990160  46.0901520  71.3312250  35.0945210  36.4833430
  70.7025410  35.1990880  35.7691660  70.8364170  35.3141990  37.2727310
  65.7770390  46.8150800  33.9167410  65.8782370  46.6114790  32.9869390
  64.8772130  46.5609080  34.1215190  63.2996280  37.3731160  37.8991310
  62.5912430  37.8417500  38.3404920  63.5840760  36.7153170  38.5336500
  64.9252210  38.7927860  45.8983840  65.4237460  39.2673680  46.5635690
  65.0675160  37.8691380  46.1053870  67.3311710  34.0981820  39.3387100
  67.2079490  34.1167950  38.3896610  68.2796270  34.1460760  39.4585500
  64.4188500  49.3337120  38.6115080  64.6730000  49.2958510  37.6894450
  63.4700980  49.2070450  38.6043330  61.5031300  35.6816240  35.2742020
  62.3521830  36.1186390  35.2082210  61.1362570  35.9936500  36.1014080
  72.1319070  35.0095820  46.7412230  71.6292670  35.7501220  47.0806040
  72.9475730  35.3979820  46.4249020  70.4241080  40.2529000  40.1873590
  69.4831220  40.2679230  40.3621280  70.7385150  39.4664960  40.6333890
  60.4022720  41.9348600  33.7477550  61.1685990  41.8229960  34.3102980
  60.4797410  41.2386570  33.0954320  59.0969480  39.3673670  34.4310440
  59.1773070  38.4201180  34.5427840  59.9889230  39.6980550  34.5371100
  72.4266660  47.4237850  41.8627850  72.5514080  48.2469020  42.3351660
  73.2932220  47.2128580  41.5152000  59.8984190  49.5169060  41.5344980
  60.6346670  48.9684520  41.8053550  60.2825110  50.3825070  41.3950970
  56.7829670  45.5842630  37.4086490  55.8569450  45.8263770  37.3991900
  57.2486100  46.4116890  37.2871240  58.9042470  48.7015130  50.7230560
  59.7055200  49.0227180  51.1365960  58.3894290  48.3410710  51.4450470
  63.0086500  48.6899370  33.3570550  63.8015110  48.9788200  32.9052340
  62.4890850  48.2591540  32.6783030  67.7407100  44.8095000  50.6705970
  67.1345260  44.8326600  49.9301720  67.4361210  44.0778040  51.2073220
  69.1707470  48.5375290  49.2815380  70.1229220  48.4533310  49.2315620
  69.0235690  49.2017000  49.9549170  72.0616670  47.9169500  34.7807290
  71.7758180  47.5034640  33.9661470  71.8636220  48.8457210  34.6607810
  56.6240280  41.1888590  49.6666610  57.1279300  40.6095870  50.2382840
  55.8847700  41.4728820  50.2042980  63.5263900  43.9102780  33.2212900
  63.4214540  43.2955130  33.9474280  63.3588120  43.3868670  32.4375910
  63.6778220  42.5959580  49.2002130  62.9123890  43.1644580  49.1156800
  63.8594180  42.3035790  48.3070360  66.7666630  42.9722810  33.8254890
  66.2176730  43.4192110  34.4697630  67.3885890  42.4672060  34.3492560
  70.8201570  44.3264910  49.7577150  71.5611040  44.6640670  49.2544610
  70.0574250  44.4956970  49.2046920  58.6563360  39.3318180  50.5616680
  58.6968700  39.0332050  51.4701910  59.5108860  39.7325790  50.4024200
  62.4341750  41.9313730  35.7220190  62.8558170  41.7653600  36.5651580
  62.5592590  41.1213960  35.2275330  60.5969170  37.9110280  48.5291170
  60.0665630  37.4201230  47.9014510  61.2657240  38.3394480  47.9949100
  64.9469390  40.9551340  32.9697290  65.4675050  40.2400360  32.6038440
  65.5937790  41.5937210  33.2697800  69.4947230  42.3779740  48.2932360
  69.9088250  42.5324820  49.1422780  68.5598230  42.5034960  48.4558140
  69.9669400  39.7175900  50.2971510  70.5490170  38.9628220  50.2091990
  70.1431170  40.2483340  49.5202990  61.0841470  34.8772650  48.6088460
  60.9898340  34.2593400  47.8839330  60.5038860  35.6038940  48.3818370
  63.8502910  33.4345890  45.6415850  63.4020210  33.4570150  44.7961400
  63.2168110  33.0364910  46.2386150  64.2562460  42.3300220  46.2628290
  64.6750570  43.1732950  46.0904530  63.3371090  42.4672260  46.0335070
  66.5926360  40.0616400  47.6466130  66.7122570  39.4657540  48.3860970
  67.4520360  40.0986090  47.2267430  68.9314260  40.6153590  46.2228640
  68.4049480  41.1396210  45.6193780  69.2745600  41.2480980  46.8538370
  61.3300650  38.0046960  32.6678350  61.1289710  37.1414320  33.0291690
  61.1592700  37.9180320  31.7299950  62.1069880  48.6353230  47.3786020
  61.5690970  49.3599290  47.0594720  62.3603840  48.1583570  46.5883360
  63.3595130  36.6037750  48.9041950  63.9494820  36.2953600  49.5919770
  62.5415370  36.1317500  49.0601850  68.1788560  36.2203560  49.1374970
  67.4904080  35.5585100  49.0724960  68.8994580  35.7741830  49.5823430
  68.8088960  32.8155190  35.1965230  69.0891250  31.9723090  35.5524650
  68.0354690  33.0478300  35.7103980  60.1283450  35.1047580  32.6556230
  60.4309350  35.1115010  31.7475380  60.8678040  34.7545440  33.1523890
  64.9632090  49.8704440  47.6372670  64.8890790  50.7739580  47.9445040
  64.0610930  49.5516340  47.6094740  63.3468380  34.0482200  33.6412430
  62.9990380  33.3706190  33.0614880  63.5481150  33.5871710  34.4555820
  65.5117420  49.0362950  35.2599030  66.4068210  49.3747920  35.2817790
  65.5435050  48.3142360  34.6323310  59.1513580  44.4090000  33.4886030
  59.5888450  44.9519670  34.1443610  59.6361310  43.5836950  33.4982370
  56.3659380  47.1979030  40.9406290  56.6962390  46.3300090  40.7084930
  56.7950380  47.4037550  41.7711250  60.9621300  45.5288040  38.6008260
  60.6616840  45.4053010  39.5012170  60.8558790  44.6696630  38.1923990
  56.8549590  48.0649620  43.6787920  56.4180580  48.2450420  44.5112070
  57.4227270  48.8224240  43.5369640  72.4911770  47.5666620  47.9665230
  71.8913760  47.6259180  47.2229150  72.6205670  46.6271600  48.0962080
  73.7313220  45.3084440  33.3034940  72.9006180  45.3761090  33.7742170
  73.9085050  46.1988560  33.0001800  73.1869680  42.0531920  35.8069140
  73.9488590  42.6228570  35.9128830  73.2024050  41.4859120  36.5777450
  56.6874020  40.5769850  40.0376800  56.0322860  40.3081490  39.3936500
  57.5251970  40.4674330  39.5878780  74.1929650  42.9082020  40.6511070
  74.5638480  42.1249340  40.2447040  74.8331580  43.5971120  40.4728370
  71.1763410  44.2918600  46.0641390  70.3623250  44.7215760  46.3267180
  71.5837610  44.9037010  45.4510440  73.2388850  42.3466290  32.9641660
  73.5137690  43.2545170  32.8360880  73.0499590  42.2828820  33.9003650
  69.6364460  35.3711140  34.2595290  70.0549340  35.1842120  33.4191950
  69.3300520  34.5190190  34.5698220  73.1354190  40.2835280  37.9571090
  72.7597790  39.5163210  37.5252380  72.4057310  40.6657980  38.4446020
  57.7249950  40.9622420  44.5780140  58.0922990  40.8749820  45.4576160
  57.1560770  40.1988970  44.4787000  72.5253810  39.4306800  47.5910610
  72.2939900  39.2019550  46.6908560  72.7858360  40.3506350  47.5455500
  57.2765950  37.8731510  48.4838560  56.3822000  37.8398270  48.8232270
  57.8163500  38.0718300  49.2489810  70.9641880  34.6563230  50.3690310
  71.8412060  34.6646630  50.7524310  70.9762720  33.9194070  49.7582660
  55.9012100  37.7868780  35.9802130  54.9976180  38.0498980  35.8053790
  56.3852720  38.0579950  35.2002090  72.4105150  38.5092770  41.2578330
  72.9342630  38.0155420  40.6268500  72.9964570  38.6443130  42.0025900
  72.5894870  38.5932640  44.7797880  71.6397580  38.5596180  44.8942870
  72.7707880  39.5032750  44.5447650  58.4439310  36.8434320  33.8896510
  59.1531010  36.4217540  33.4043790  57.7279250  36.9109550  33.2579860
  58.0913470  32.8973650  32.9299160  58.8141600  33.4382590  33.2480380
  58.3637990  32.6237070  32.0540700  71.9005120  37.7666120  37.1970740
  72.3964240  37.5336990  37.9819620  71.7021190  36.9277960  36.7808380
  57.7805660  32.1479840  42.8321780  58.4281850  31.5977220  42.3916940
  58.2007500  32.4022990  43.6537590  73.3292280  36.4027070  39.7308420
  73.2191560  36.2483110  40.6690690  74.0899870  35.8748010  39.4883830
  71.6758000  32.3421200  46.1891420  72.3130220  32.9555340  46.5550610
  71.8232890  32.3781860  45.2440650  74.2182550  34.2334990  32.9714560
  75.1431860  34.1016170  32.7632850  74.1958340  34.3127810  33.9251010
  74.2921040  35.0045650  35.5971270  73.4972540  34.9390770  36.1264180
  74.4964320  35.9396290  35.5856620  71.2339460  49.0437200  39.5909660
  71.8298530  48.7221770  38.9144080  71.4917610  48.5709020  40.3822930
  57.5337660  32.3035510  45.5747100  57.1852480  32.7599330  46.3405280
  57.2025360  31.4092640  45.6569530  59.1402030  45.4755110  49.7400290
  59.0971660  45.1048020  50.6214750  59.2713040  46.4132680  49.8802110
  62.8408060  47.0314700  45.3410010  62.5999420  47.2989260  44.4540530
  63.7810700  47.2020430  45.3960870  65.0462480  33.4947390  49.0966520
  64.9851370  34.0869220  49.8461930  65.9862860  33.3873350  48.9516780
  67.6837040  33.1517450  48.7358810  68.2977450  33.4696740  48.0739890
  68.2286600  32.6666040  49.3554670  74.1012220  49.0509080  46.1420650
  73.6070500  49.4477950  45.4247780  73.4925510  48.4258290  46.5357930
  58.2058300  31.8311710  48.8497870  58.7541290  31.6499760  48.0863980
  58.2713610  31.0405820  49.3854180  58.9790060  48.4217360  46.8598070
  58.3850380  48.2902060  47.5988110  58.9713900  47.5855500  46.3940170
  68.4245080  31.7149590  45.0628100  67.5504920  32.0484700  44.8601030
  68.3155830  31.2422770  45.8879970  69.3317060  33.9220460  46.4469820
  69.0030420  33.1072220  46.0671550  70.2799360  33.8790270  46.3235510
  71.7851670  49.6932500  43.4207390  71.3254640  50.4448310  43.0465410
  71.1564130  48.9738970  43.3622190  58.6102290  45.7875740  45.8106110
  57.8836350  45.1681030  45.7432060  58.6711440  46.1816350  44.9404190
  62.2147390  48.0020740  42.5955520  62.7312410  47.3908100  42.0703780
  62.8644770  48.5049520  43.0866530  64.9542890  48.8929230  43.4224500
  65.2420700  48.6383530  42.5457510  65.4666110  48.3406590  44.0130070
  66.1719900  32.6319430  44.0021010  65.3891690  33.1064930  44.2817770
  65.8782830  31.7274260  43.8934190  70.7240970  33.3342530  42.0470100
  71.1649060  33.2787630  41.1991700  70.4548560  34.2500540  42.1180280
  72.5879540  32.9657770  40.0578920  72.5267940  32.0218990  39.9109940
  73.3671570  33.0737860  40.6032380  56.8932290  49.1050130  39.0202870
  56.7254330  48.4720810  39.7184760  56.0266800  49.3109530  38.6697060
  57.5160310  32.9366910  36.5234730  58.2739670  33.0495790  35.9498760
  57.0537480  33.7736110  36.4778160  64.0574120  35.0506180  39.5137040
  63.2448630  34.6763070  39.1732920  64.5615760  34.2951260  39.8158230
  68.5599100  31.7148630  40.7520110  69.1628470  32.2868840  41.2268630
  67.8192090  32.2788070  40.5294010  71.7033700  32.1170190  36.0260390
  71.8984330  33.0153640  36.2927820  70.9163570  31.8857270  36.5193340
  58.4994990  47.7983360  36.4653010  57.9742610  48.1791390  35.7614970
  58.4239570  48.4234130  37.1862720  59.8885460  33.4630960  35.0636700
  60.4178220  32.6760760  34.9344650  60.5213780  34.1422150  35.2972230
  62.0823300  33.2006100  38.1182090  61.4526040  32.4993410  38.2852220
  61.5428440  33.9610230  37.9015250  65.0215250  49.8145330  50.7892700
  65.9482560  49.5789600  50.8328660  65.0065680  50.6417330  50.3078730
  73.2560310  49.3570900  37.7866950  73.4312500  48.6708640  37.1427870
  72.5581880  49.8817950  37.3943620  62.2078860  32.4790080  50.5534580
  61.9263130  32.9823680  49.7895400  62.5898560  31.6811830  50.1876710
  61.0987960  49.7465740  35.3402260  61.8306780  49.4625020  34.7926150
  61.3581630  49.5079020  36.2301640  60.2602750  45.8630470  35.3448590
  59.6311630  46.3315570  35.8934420  60.3750580  45.0179690  35.7794780
  68.8094320  31.8943660  51.1315050  68.6959770  32.2138270  52.0266570
  69.6264060  32.2956170  50.8352330  71.5892810  49.0415190  50.6133740
  72.3818130  48.5464420  50.4059700  71.8825960  49.7205330  51.2209350
  67.7152470  39.9136130  21.4949790  67.6346520  38.9990740  21.2241500
  67.3016890  40.4103200  20.7889500  65.8470510  41.6915150  23.3759060
  65.0712610  41.2115590  23.6657630  66.4983440  41.0120800  23.2015220
  59.8636340  42.0034960  24.2534820  59.0321220  41.7483670  24.6531330
  60.4717320  42.0745730  24.9892740  69.8677940  46.0975340  22.1558190
  69.4059470  45.3262580  22.4845360  70.6803490  46.1241410  22.6610640
  59.8437600  46.0375050  24.4492840  60.1465640  45.1472790  24.2703060
  60.5881190  46.5945270  24.2215090  58.2728290  36.9636850  18.0377210
  57.3844990  37.3052820  17.9357090  58.5569480  36.7637170  17.1458040
  56.2361300  39.5642500  23.9216910  56.8077410  38.7964700  23.9220550
  56.2362840  39.8631260  23.0123520  66.0941250  48.3833350  21.7762180
  65.4752690  48.8390850  21.2056620  66.9493030  48.5384810  21.3751880
  65.2879500  44.3672340  23.3829220  65.2187780  43.4262280  23.2218350
  66.0499360  44.4573750  23.9551790  57.4786170  34.9726860  25.7085840
  57.2989010  34.0752610  25.9888600  57.0766250  35.5198730  26.3832790
  66.3184670  37.1742720  23.6098150  66.6949490  36.3014600  23.4971820
  66.2204180  37.5101420  22.7188590  60.4489680  35.5468350  19.0715590
  60.5556430  36.4472080  19.3784350  59.5382040  35.4986320  18.7810240
  70.1008790  34.6693160  20.5426490  70.9218410  34.1789730  20.5851970
  70.1342870  35.2590820  21.2958330  58.0972840  37.4687360  24.3168180
  58.7782950  37.7325730  24.9355580  57.7820890  36.6288230  24.6506190
  62.2897410  38.5154720  23.4040770  62.7975630  39.0135690  24.0445790
  62.8210650  37.7389920  23.2280130  74.3908340  36.6859910  27.1070120
  73.6860510  37.0741620  26.5885230  74.6566260  37.3810200  27.7091050
  60.5733510  33.1553280  27.6704190  60.5751950  33.6725670  26.8650090
  59.7437820  32.6783460  27.6474120  66.9604600  43.2672590  19.1694090
  66.3421870  43.7322040  18.6056810  67.4727850  43.9600070  19.5863600
  61.8236360  42.7948460  25.8477690  61.4905740  43.4217380  26.4898760
  62.0003040  43.3210340  25.0679360  70.3370270  36.6093540  23.3154030
  69.6325840  36.8978430  23.8957140  70.6982430  37.4193650  22.9553590
  60.2548840  34.8663240  25.6774640  60.5965650  35.7105290  25.3828510
  59.3164650  35.0146980  25.7939980  61.0355460  44.7629260  27.6626870
  61.6529460  45.4380340  27.3811320  60.1748580  45.1717240  27.5714370
  56.3287800  43.9529120  16.5433720  55.9515780  44.4416220  15.8118620
  56.5860870  44.6254400  17.1740250  71.9533050  46.2268670  25.5781510
  71.2696570  46.8967780  25.5698180  72.4927340  46.4249320  24.8126370
  73.4057190  36.0548330  23.7063240  72.4582100  36.0887310  23.8378670
  73.7307180  36.8687280  24.0912600  63.9376730  32.3545510  22.0019230
  64.2451710  31.7992400  21.2854730  63.0077430  32.4889970  21.8192220
  69.4891790  48.0712800  24.2926690  69.5018950  47.6675090  23.4248950
  68.9367010  48.8460090  24.1888120  70.7837210  44.7929020  19.3816860
  70.6733540  43.8503350  19.5066280  70.7805460  45.1544660  20.2679620
  68.8877230  42.9742640  25.6209300  69.3046020  42.7602750  24.7862760
  69.6117050  43.2315430  26.1917920  66.3257490  40.4194340  18.7379350
  65.3986770  40.3531720  18.9667820  66.4782310  41.3574470  18.6234590
  66.3126570  36.6911340  15.7346510  65.3730240  36.8525300  15.8198970
  66.6309830  37.4097020  15.1882500  72.8339330  41.3729860  25.7125540
  72.0057960  41.4422950  25.2375670  73.4289810  41.9584170  25.2441370
  70.3554780  41.9814640  19.2414600  69.7367200  41.6434190  18.5940900
  70.3379230  41.3374400  19.9493790  69.7981340  38.1599180  26.6580410
  69.3852520  38.9852890  26.9120400  69.0657290  37.5744220  26.4656770
  61.9314130  40.9459080  21.5199080  61.5271130  40.2336330  21.0244980
  62.0177250  40.6012320  22.4087120  62.3995830  44.6326640  23.6838290
  62.1024120  44.0272110  23.0046070  63.3495650  44.6703950  23.5727650
  60.6442750  37.7202290  25.2998120  61.1957340  37.8297630  24.5251370
  61.1586260  38.0939890  26.0153350  70.4881440  48.2058510  27.3461390
  70.0112000  49.0130700  27.1534000  69.8043230  47.5536840  27.4987600
  61.4914260  44.3708330  30.3346090  60.5942790  44.5948300  30.5819490
  61.5167130  44.4943270  29.3857490  68.5319480  41.2201450  16.2487350
  68.9712760  40.3823880  16.1025170  69.2447900  41.8530850  16.3351490
  60.3185480  41.2421650  28.9103460  60.1793250  42.1144450  29.2790860
  59.4366840  40.8994460  28.7651400  66.6414860  46.1597520  20.2168590
  67.0810770  46.9021850  19.8023980  66.5801750  46.4024090  21.1407550
  62.1165830  47.1843350  31.1188610  62.0881260  47.5886300  30.2517040
  61.9530800  46.2553710  30.9560210  72.1136620  32.4744260  14.5628390
  71.8009280  32.5671090  15.4627460  72.8749090  33.0525290  14.5125820
  58.6318760  39.8404060  19.0205730  58.5116360  40.5666150  18.4087000
  58.3219650  39.0706970  18.5433640  74.0680650  47.9670450  32.4152780
  74.5440370  48.4453340  33.0941860  74.6887810  47.8987940  31.6898280
  56.2704130  43.0119200  24.8274370  56.3484550  43.1467970  23.8830090
  56.8845810  42.3035090  25.0202490  57.5151760  44.7119390  21.2380550
  57.1079840  44.8533980  20.3834150  58.4064770  44.4279550  21.0351760
  73.4713900  45.1583300  29.5752790  73.5976960  44.9195180  28.6569970
  73.5135280  44.3267840  30.0474870  67.3330640  48.8611300  28.1447600
  67.8475310  48.7719310  28.9470030  66.4899720  49.2071000  28.4375510
  69.3085040  49.1466640  17.5731600  69.1486180  48.8569580  18.4713430
  69.1431750  48.3706770  17.0376830  61.7873420  48.9265170  19.3503220
  61.6115900  48.0100710  19.1371020  60.9329160  49.2852460  19.5901020
  69.0111170  46.6554200  16.1329600  68.3176330  46.6531490  15.4731880
  69.7534030  46.2313520  15.7023770  68.5761100  48.2816910  20.2078090
  69.0318050  47.5006290  20.5216710  68.9153620  48.9923730  20.7519270
  73.3237910  37.2115760  30.5402530  72.7082180  37.7195430  30.0117990
  73.0034330  36.3114090  30.4828470  56.3263650  44.0533370  27.3668830
  56.4894690  43.5838730  26.5488200  56.7916100  43.5456930  28.0317670
  61.0982420  33.1839130  22.4029400  60.6550570  33.9648670  22.0713920
  61.6567410  33.5069020  23.1100340  65.3852230  36.0507650  28.0064720
  64.9231600  36.2590670  28.8184660  64.9830340  35.2367000  27.7035390
  70.3856740  37.2716600  29.1361380  69.5350330  36.9722350  29.4570450
  70.2258530  37.5158610  28.2245200  67.4806450  38.7718350  31.2360170
  67.8059860  37.9382100  30.8962400  68.2686780  39.2946870  31.3838500
  64.2141240  32.8049830  17.2835230  63.5895420  32.8009700  18.0088540
  64.1271360  31.9380790  16.8871200  63.1358320  33.7286460  24.2619000
  63.4330650  34.6349290  24.1811020  63.6843880  33.2405240  23.6478570
  60.8896640  38.3072700  20.1310650  60.6637560  38.0909870  21.0357270
  60.1089170  38.7401160  19.7856620  68.1194400  38.3136070  18.7301300
  67.5203290  39.0371870  18.5464920  68.6674010  38.2512850  17.9477750
  63.3295850  39.2058280  30.7970920  63.2339450  38.2653010  30.6471320
  64.1727830  39.4273350  30.4018990  66.7259270  36.9499610  20.7604580
  67.1188840  37.2671810  19.9473270  67.0876120  36.0711490  20.8749100
  58.4606390  35.6171950  28.9504700  58.0669780  36.4647160  29.1577480
  57.7724790  34.9798320  29.1413340  65.0351440  35.7006920  32.0201440
  64.3449760  35.5079120  32.6547530  65.7783740  35.9841560  32.5525740
  55.7623440  33.5400410  22.9834780  55.4736490  34.1103270  23.6959760
  56.5069200  33.0604860  23.3466010  55.9493670  37.4820530  14.1937500
  55.8668340  38.4251290  14.3352490  55.5976730  37.3395440  13.3149850
  67.3114410  39.5405360  24.8555360  66.5795530  40.0492170  25.2045460
  66.9138750  38.7235340  24.5544140  63.7491800  36.2159560  23.2607850
  63.7527860  35.7749510  22.4112390  64.6442920  36.5376890  23.3679670
  59.5994180  36.0986050  22.2202060  59.2594230  36.5761280  22.9769110
  58.8371500  35.6451170  21.8603160  63.8111950  37.2171640  16.2514610
  63.9324770  37.1758120  17.2000430  63.4260460  38.0795790  16.0961340
  67.7740320  34.9939040  24.2678300  67.7913060  35.4447690  25.1120150
  67.5255900  34.0944680  24.4811740  62.8233450  39.5272780  15.6497910
  62.2550350  39.0791030  15.0233820  63.5322450  39.8865560  15.1163060
  71.2011070  32.4071220  30.1064680  71.5256840  31.6760880  30.6322660
  71.2367580  32.0884860  29.2045670  57.9002630  43.4284800  29.5264640
  57.5157420  42.7878470  30.1247600  58.2114820  44.1320920  30.0959370
  64.0499770  40.2761340  25.0073260  64.4169900  39.8019910  25.7534600
  63.8604830  41.1502910  25.3481600  56.9140260  35.0205030  21.1366730
  56.6287180  34.6560700  21.9745350  56.8519120  34.2885490  20.5229870
  61.8399140  39.3169980  27.3257470  61.5356210  40.1961960  27.5507830
  62.7945600  39.3769770  27.3614910  60.3680930  43.5230970  17.9224320
  59.5943190  42.9828590  17.7623040  61.0975560  43.0037580  17.5842080
  71.1268910  42.5196330  23.7150710  71.8468030  43.0151620  23.3246820
  70.9250730  41.8414220  23.0704580  66.5878850  33.9134290  17.8580100
  65.7743460  33.4147460  17.7825410  66.3940800  34.7532540  17.4416450
  66.5087710  42.5905390  29.6019710  66.4425020  41.6701060  29.3477300
  65.8792850  42.6880830  30.3164350  69.3027240  38.2853940  16.1542260
  70.1906860  38.5971170  15.9793600  69.2732330  37.4126190  15.7622840
  60.4118330  43.1911350  21.5603130  60.9297000  42.3879610  21.5060020
  59.9602350  43.1290490  22.4019960  65.2987830  44.4577630  16.8330430
  65.6403530  45.2019860  16.3373750  64.4700540  44.7708750  17.1955260
  57.8962870  40.1572720  28.4728830  57.5377810  40.8226570  29.0602170
  57.6017430  39.3256270  28.8441450  61.0975990  40.6156960  31.3568380
  60.7976130  40.7614140  30.4596200  61.8687230  40.0562250  31.2641770
  66.4404440  45.4125960  29.3523510  66.4548980  44.4806920  29.1342420
  65.7329540  45.4985720  29.9913280  71.5741510  39.5965780  15.6222120
  71.4905230  40.0280000  14.7718560  72.2935700  40.0564130  16.0548940
  72.6515650  42.0533300  28.6992090  71.9263840  42.6462080  28.5021480
  73.1791110  42.0456840  27.9005460  72.6028760  46.4508040  18.3504250
  71.9604920  45.7963660  18.6247970  72.2159420  46.8563130  17.5744920
  68.1815240  43.7793470  22.1975940  68.5339060  43.1821600  21.5377310
  67.2977570  43.4537700  22.3684190  64.2678520  44.5391160  19.6046350
  64.9549650  45.0860370  19.9853940  63.4810940  45.0831890  19.6395960
  56.4070920  40.1563980  15.0963430  57.2765770  40.4388780  15.3799350
  55.9161240  40.9699850  14.9812240  63.5705730  41.5437190  19.2171710
  64.0268510  42.3542440  19.4431900  63.2193940  41.2260330  20.0490200
  65.8738340  47.0543530  26.4464010  66.5180560  47.2602910  27.1237430
  66.2367780  46.2931930  25.9934860  59.4717510  31.8874840  19.6894230
  59.3432140  31.8792740  20.6379150  58.6479530  32.2257930  19.3385240
  67.1470420  45.0575880  25.1641460  67.7892650  44.3569040  25.2773630
  67.6719770  45.8374320  24.9838350  70.9926140  45.3424500  14.8880600
  70.7663720  44.6254940  15.4805240  70.6022340  45.0936940  14.0502350
  68.9208040  45.8570780  28.3677520  69.2564280  46.4437470  29.0455440
  68.0008380  45.7263490  28.5975310  56.7742170  49.3691360  15.6625060
  57.1339810  49.9680700  15.0082330  56.6334510  49.9151250  16.4360090
  56.4711440  33.6465960  29.1500930  55.7569960  33.8462880  29.7553540
  56.8906480  32.8705530  29.5215730  70.5742390  43.2596440  16.5494760
  70.2864090  43.7209130  17.3372640  71.3694560  42.7994210  16.8178980
  56.7584030  47.6346220  30.1367460  56.8675150  46.6940960  29.9962850
  56.1064590  47.9000970  29.4881190  64.7496620  45.9062110  31.5365580
  64.4293490  45.1871350  32.0811270  64.0754980  46.5817180  31.6101640
  62.7910790  46.7522560  16.4798730  62.7820890  47.4852250  15.8643240
  61.8709150  46.5054140  16.5725690  58.3917430  41.9737450  17.2245490
  57.7845380  42.7136350  17.2340790  58.8666780  42.0636810  16.3983690
  67.9650220  36.1388270  26.9002380  68.3331040  35.3183480  27.2281950
  67.1048420  36.1990160  27.3158030  71.3312250  35.0945210  17.7089940
  70.7025410  35.1990880  16.9948170  70.8364170  35.3141990  18.4983820
  65.7770390  46.8150800  15.1423920  65.8782370  46.6114790  14.2125900
  64.8772130  46.5609080  15.3471700  63.2996280  37.3731160  19.1247820
  62.5912430  37.8417500  19.5661430  63.5840760  36.7153170  19.7593010
  64.9252210  38.7927860  27.1240350  65.4237460  39.2673680  27.7892200
  65.0675160  37.8691380  27.3310380  67.3311710  34.0981820  20.5643610
  67.2079490  34.1167950  19.6153120  68.2796270  34.1460760  20.6842010
  64.4188500  49.3337120  19.8371590  64.6730000  49.2958510  18.9150960
  63.4700980  49.2070450  19.8299840  61.5031300  35.6816240  16.4998530
  62.3521830  36.1186390  16.4338720  61.1362570  35.9936500  17.3270590
  72.1319070  35.0095820  27.9668740  71.6292670  35.7501220  28.3062550
  72.9475730  35.3979820  27.6505530  70.4241080  40.2529000  21.4130100
  69.4831220  40.2679230  21.5877790  70.7385150  39.4664960  21.8590400
  60.4022720  41.9348600  14.9734060  61.1685990  41.8229960  15.5359490
  60.4797410  41.2386570  14.3210830  59.0969480  39.3673670  15.6566950
  59.1773070  38.4201180  15.7684350  59.9889230  39.6980550  15.7627610
  72.4266660  47.4237850  23.0884360  72.5514080  48.2469020  23.5608170
  73.2932220  47.2128580  22.7408510  59.8984190  49.5169060  22.7601490
  60.6346670  48.9684520  23.0310060  60.2825110  50.3825070  22.6207480
  56.7829670  45.5842630  18.6343000  55.8569450  45.8263770  18.6248410
  57.2486100  46.4116890  18.5127750  58.9042470  48.7015130  31.9487070
  59.7055200  49.0227180  32.3622470  58.3894290  48.3410710  32.6706980
  63.0086500  48.6899370  14.5827060  63.8015110  48.9788200  14.1308850
  62.4890850  48.2591540  13.9039540  67.7407100  44.8095000  31.8962480
  67.1345260  44.8326600  31.1558230  67.4361210  44.0778040  32.4329730
  69.1707470  48.5375290  30.5071890  70.1229220  48.4533310  30.4572130
  69.0235690  49.2017000  31.1805680  72.0616670  47.9169500  16.0063800
  71.7758180  47.5034640  15.1917980  71.8636220  48.8457210  15.8864320
  56.6240280  41.1888590  30.8923120  57.1279300  40.6095870  31.4639350
  55.8847700  41.4728820  31.4299490  63.5263900  43.9102780  14.4469410
  63.4214540  43.2955130  15.1730790  63.3588120  43.3868670  13.6632420
  63.6778220  42.5959580  30.4258640  62.9123890  43.1644580  30.3413310
  63.8594180  42.3035790  29.5326870  66.7666630  42.9722810  15.0511400
  66.2176730  43.4192110  15.6954140  67.3885890  42.4672060  15.5749070
  70.8201570  44.3264910  30.9833660  71.5611040  44.6640670  30.4801120
  70.0574250  44.4956970  30.4303430  58.6563360  39.3318180  31.7873190
  58.6968700  39.0332050  32.6958420  59.5108860  39.7325790  31.6280710
  62.4341750  41.9313730  16.9476700  62.8558170  41.7653600  17.7908090
  62.5592590  41.1213960  16.4531840  60.5969170  37.9110280  29.7547680
  60.0665630  37.4201230  29.1271020  61.2657240  38.3394480  29.2205610
  64.9469390  40.9551340  14.1953800  65.4675050  40.2400360  13.8294950
  65.5937790  41.5937210  14.4954310  69.4947230  42.3779740  29.5188870
  69.9088250  42.5324820  30.3679290  68.5598230  42.5034960  29.6814650
  69.9669400  39.7175900  31.5228020  70.5490170  38.9628220  31.4348500
  70.1431170  40.2483340  30.7459500  61.0841470  34.8772650  29.8344970
  60.9898340  34.2593400  29.1095840  60.5038860  35.6038940  29.6074880
  63.8502910  33.4345890  26.8672360  63.4020210  33.4570150  26.0217910
  63.2168110  33.0364910  27.4642660  64.2562460  42.3300220  27.4884800
  64.6750570  43.1732950  27.3161040  63.3371090  42.4672260  27.2591580
  66.5926360  40.0616400  28.8722640  66.7122570  39.4657540  29.6117480
  67.4520360  40.0986090  28.4523940  68.9314260  40.6153590  27.4485150
  68.4049480  41.1396210  26.8450290  69.2745600  41.2480980  28.0794880
  61.3300650  38.0046960  13.8934860  61.1289710  37.1414320  14.2548200
  61.1592700  37.9180320  12.9556460  62.1069880  48.6353230  28.6042530
  61.5690970  49.3599290  28.2851230  62.3603840  48.1583570  27.8139870
  63.3595130  36.6037750  30.1298460  63.9494820  36.2953600  30.8176280
  62.5415370  36.1317500  30.2858360  68.1788560  36.2203560  30.3631480
  67.4904080  35.5585100  30.2981470  68.8994580  35.7741830  30.8079940
  68.8088960  32.8155190  16.4221740  69.0891250  31.9723090  16.7781160
  68.0354690  33.0478300  16.9360490  60.1283450  35.1047580  13.8812740
  60.4309350  35.1115010  12.9731890  60.8678040  34.7545440  14.3780400
  64.9632090  49.8704440  28.8629180  64.8890790  50.7739580  29.1701550
  64.0610930  49.5516340  28.8351250  63.3468380  34.0482200  14.8668940
  62.9990380  33.3706190  14.2871390  63.5481150  33.5871710  15.6812330
  65.5117420  49.0362950  16.4855540  66.4068210  49.3747920  16.5074300
  65.5435050  48.3142360  15.8579820  59.1513580  44.4090000  14.7142540
  59.5888450  44.9519670  15.3700120  59.6361310  43.5836950  14.7238880
  56.3659380  47.1979030  22.1662800  56.6962390  46.3300090  21.9341440
  56.7950380  47.4037550  22.9967760  60.9621300  45.5288040  19.8264770
  60.6616840  45.4053010  20.7268680  60.8558790  44.6696630  19.4180500
  56.8549590  48.0649620  24.9044430  56.4180580  48.2450420  25.7368580
  57.4227270  48.8224240  24.7626150  72.4911770  47.5666620  29.1921740
  71.8913760  47.6259180  28.4485660  72.6205670  46.6271600  29.3218590
  73.7313220  45.3084440  14.5291450  72.9006180  45.3761090  14.9998680
  73.9085050  46.1988560  14.2258310  73.1869680  42.0531920  17.0325650
  73.9488590  42.6228570  17.1385340  73.2024050  41.4859120  17.8033960
  56.6874020  40.5769850  21.2633310  56.0322860  40.3081490  20.6193010
  57.5251970  40.4674330  20.8135290  74.1929650  42.9082020  21.8767580
  74.5638480  42.1249340  21.4703550  74.8331580  43.5971120  21.6984880
  71.1763410  44.2918600  27.2897900  70.3623250  44.7215760  27.5523690
  71.5837610  44.9037010  26.6766950  73.2388850  42.3466290  14.1898170
  73.5137690  43.2545170  14.0617390  73.0499590  42.2828820  15.1260160
  69.6364460  35.3711140  15.4851800  70.0549340  35.1842120  14.6448460
  69.3300520  34.5190190  15.7954730  73.1354190  40.2835280  19.1827600
  72.7597790  39.5163210  18.7508890  72.4057310  40.6657980  19.6702530
  57.7249950  40.9622420  25.8036650  58.0922990  40.8749820  26.6832670
  57.1560770  40.1988970  25.7043510  72.5253810  39.4306800  28.8167120
  72.2939900  39.2019550  27.9165070  72.7858360  40.3506350  28.7712010
  57.2765950  37.8731510  29.7095070  56.3822000  37.8398270  30.0488780
  57.8163500  38.0718300  30.4746320  70.9641880  34.6563230  31.5946820
  71.8412060  34.6646630  31.9780820  70.9762720  33.9194070  30.9839170
  55.9012100  37.7868780  17.2058640  54.9976180  38.0498980  17.0310300
  56.3852720  38.0579950  16.4258600  72.4105150  38.5092770  22.4834840
  72.9342630  38.0155420  21.8525010  72.9964570  38.6443130  23.2282410
  72.5894870  38.5932640  26.0054390  71.6397580  38.5596180  26.1199380
  72.7707880  39.5032750  25.7704160  58.4439310  36.8434320  15.1153020
  59.1531010  36.4217540  14.6300300  57.7279250  36.9109550  14.4836370
  58.0913470  32.8973650  14.1555670  58.8141600  33.4382590  14.4736890
  58.3637990  32.6237070  13.2797210  71.9005120  37.7666120  18.4227250
  72.3964240  37.5336990  19.2076130  71.7021190  36.9277960  18.0064890
  57.7805660  32.1479840  24.0578290  58.4281850  31.5977220  23.6173450
  58.2007500  32.4022990  24.8794100  73.3292280  36.4027070  20.9564930
  73.2191560  36.2483110  21.8947200  74.0899870  35.8748010  20.7140340
  71.6758000  32.3421200  27.4147930  72.3130220  32.9555340  27.7807120
  71.8232890  32.3781860  26.4697160  74.2182550  34.2334990  14.1971070
  75.1431860  34.1016170  13.9889360  74.1958340  34.3127810  15.1507520
  74.2921040  35.0045650  16.8227780  73.4972540  34.9390770  17.3520690
  74.4964320  35.9396290  16.8113130  71.2339460  49.0437200  20.8166170
  71.8298530  48.7221770  20.1400590  71.4917610  48.5709020  21.6079440
  57.5337660  32.3035510  26.8003610  57.1852480  32.7599330  27.5661790
  57.2025360  31.4092640  26.8826040  59.1402030  45.4755110  30.9656800
  59.0971660  45.1048020  31.8471260  59.2713040  46.4132680  31.1058620
  62.8408060  47.0314700  26.5666520  62.5999420  47.2989260  25.6797040
  63.7810700  47.2020430  26.6217380  65.0462480  33.4947390  30.3223030
  64.9851370  34.0869220  31.0718440  65.9862860  33.3873350  30.1773290
  67.6837040  33.1517450  29.9615320  68.2977450  33.4696740  29.2996400
  68.2286600  32.6666040  30.5811180  74.1012220  49.0509080  27.3677160
  73.6070500  49.4477950  26.6504290  73.4925510  48.4258290  27.7614440
  58.2058300  31.8311710  30.0754380  58.7541290  31.6499760  29.3120490
  58.2713610  31.0405820  30.6110690  58.9790060  48.4217360  28.0854580
  58.3850380  48.2902060  28.8244620  58.9713900  47.5855500  27.6196680
  68.4245080  31.7149590  26.2884610  67.5504920  32.0484700  26.0857540
  68.3155830  31.2422770  27.1136480  69.3317060  33.9220460  27.6726330
  69.0030420  33.1072220  27.2928060  70.2799360  33.8790270  27.5492020
  71.7851670  49.6932500  24.6463900  71.3254640  50.4448310  24.2721920
  71.1564130  48.9738970  24.5878700  58.6102290  45.7875740  27.0362620
  57.8836350  45.1681030  26.9688570  58.6711440  46.1816350  26.1660700
  62.2147390  48.0020740  23.8212030  62.7312410  47.3908100  23.2960290
  62.8644770  48.5049520  24.3123040  64.9542890  48.8929230  24.6481010
  65.2420700  48.6383530  23.7714020  65.4666110  48.3406590  25.2386580
  66.1719900  32.6319430  25.2277520  65.3891690  33.1064930  25.5074280
  65.8782830  31.7274260  25.1190700  70.7240970  33.3342530  23.2726610
  71.1649060  33.2787630  22.4248210  70.4548560  34.2500540  23.3436790
  72.5879540  32.9657770  21.2835430  72.5267940  32.0218990  21.1366450
  73.3671570  33.0737860  21.8288890  56.8932290  49.1050130  20.2459380
  56.7254330  48.4720810  20.9441270  56.0266800  49.3109530  19.8953570
  57.5160310  32.9366910  17.7491240  58.2739670  33.0495790  17.1755270
  57.0537480  33.7736110  17.7034670  64.0574120  35.0506180  20.7393550
  63.2448630  34.6763070  20.3989430  64.5615760  34.2951260  21.0414740
  68.5599100  31.7148630  21.9776620  69.1628470  32.2868840  22.4525140
  67.8192090  32.2788070  21.7550520  71.7033700  32.1170190  17.2516900
  71.8984330  33.0153640  17.5184330  70.9163570  31.8857270  17.7449850
  58.4994990  47.7983360  17.6909520  57.9742610  48.1791390  16.9871480
  58.4239570  48.4234130  18.4119230  59.8885460  33.4630960  16.2893210
  60.4178220  32.6760760  16.1601160  60.5213780  34.1422150  16.5228740
  62.0823300  33.2006100  19.3438600  61.4526040  32.4993410  19.5108730
  61.5428440  33.9610230  19.1271760  65.0215250  49.8145330  32.0149210
  65.9482560  49.5789600  32.0585170  65.0065680  50.6417330  31.5335240
  73.2560310  49.3570900  19.0123460  73.4312500  48.6708640  18.3684380
  72.5581880  49.8817950  18.6200130  62.2078860  32.4790080  31.7791090
  61.9263130  32.9823680  31.0151910  62.5898560  31.6811830  31.4133220
  61.0987960  49.7465740  16.5658770  61.8306780  49.4625020  16.0182660
  61.3581630  49.5079020  17.4558150  60.2602750  45.8630470  16.5705100
  59.6311630  46.3315570  17.1190930  60.3750580  45.0179690  17.0051290
  68.8094320  31.8943660  32.3571560  68.6959770  32.2138270  33.2523080
  69.6264060  32.2956170  32.0608840  71.5892810  49.0415190  31.8390250
  72.3818130  48.5464420  31.6316210  71.8825960  49.7205330  32.4465860
  67.7152470  39.9136130   2.7206300  67.6346520  38.9990740   2.4498010
  67.3016890  40.4103200   2.0146010  65.8470510  41.6915150   4.6015570
  65.0712610  41.2115590   4.8914140  66.4983440  41.0120800   4.4271730
  59.8636340  42.0034960   5.4791330  59.0321220  41.7483670   5.8787840
  60.4717320  42.0745730   6.2149250  69.8677940  46.0975340   3.3814700
  69.4059470  45.3262580   3.7101870  70.6803490  46.1241410   3.8867150
  59.8437600  46.0375050   5.6749350  60.1465640  45.1472790   5.4959570
  60.5881190  46.5945270   5.4471600  56.2361300  39.5642500   5.1473420
  56.8077410  38.7964700   5.1477060  56.2362840  39.8631260   4.2380030
  66.0941250  48.3833350   3.0018690  65.4752690  48.8390850   2.4313130
  66.9493030  48.5384810   2.6008390  65.2879500  44.3672340   4.6085730
  65.2187780  43.4262280   4.4474860  66.0499360  44.4573750   5.1808300
  57.4786170  34.9726860   6.9342350  57.2989010  34.0752610   7.2145110
  57.0766250  35.5198730   7.6089300  66.3184670  37.1742720   4.8354660
  66.6949490  36.3014600   4.7228330  66.2204180  37.5101420   3.9445100
  70.1008790  34.6693160   1.7683000  70.9218410  34.1789730   1.8108480
  70.1342870  35.2590820   2.5214840  58.0972840  37.4687360   5.5424690
  58.7782950  37.7325730   6.1612090  57.7820890  36.6288230   5.8762700
  62.2897410  38.5154720   4.6297280  62.7975630  39.0135690   5.2702300
  62.8210650  37.7389920   4.4536640  74.3908340  36.6859910   8.3326630
  73.6860510  37.0741620   7.8141740  74.6566260  37.3810200   8.9347560
  60.5733510  33.1553280   8.8960700  60.5751950  33.6725670   8.0906600
  59.7437820  32.6783460   8.8730630  61.8236360  42.7948460   7.0734200
  61.4905740  43.4217380   7.7155270  62.0003040  43.3210340   6.2935870
  70.3370270  36.6093540   4.5410540  69.6325840  36.8978430   5.1213650
  70.6982430  37.4193650   4.1810100  60.2548840  34.8663240   6.9031150
  60.5965650  35.7105290   6.6085020  59.3164650  35.0146980   7.0196490
  61.0355460  44.7629260   8.8883380  61.6529460  45.4380340   8.6067830
  60.1748580  45.1717240   8.7970880  71.9533050  46.2268670   6.8038020
  71.2696570  46.8967780   6.7954690  72.4927340  46.4249320   6.0382880
  73.4057190  36.0548330   4.9319750  72.4582100  36.0887310   5.0635180
  73.7307180  36.8687280   5.3169110  63.9376730  32.3545510   3.2275740
  64.2451710  31.7992400   2.5111240  63.0077430  32.4889970   3.0448730
  69.4891790  48.0712800   5.5183200  69.5018950  47.6675090   4.6505460
  68.9367010  48.8460090   5.4144630  68.8877230  42.9742640   6.8465810
  69.3046020  42.7602750   6.0119270  69.6117050  43.2315430   7.4174430
  72.8339330  41.3729860   6.9382050  72.0057960  41.4422950   6.4632180
  73.4289810  41.9584170   6.4697880  69.7981340  38.1599180   7.8836920
  69.3852520  38.9852890   8.1376910  69.0657290  37.5744220   7.6913280
  61.9314130  40.9459080   2.7455590  61.5271130  40.2336330   2.2501490
  62.0177250  40.6012320   3.6343630  62.3995830  44.6326640   4.9094800
  62.1024120  44.0272110   4.2302580  63.3495650  44.6703950   4.7984160
  60.6442750  37.7202290   6.5254630  61.1957340  37.8297630   5.7507880
  61.1586260  38.0939890   7.2409860  70.4881440  48.2058510   8.5717900
  70.0112000  49.0130700   8.3790510  69.8043230  47.5536840   8.7244110
  61.4914260  44.3708330  11.5602600  60.5942790  44.5948300  11.8076000
  61.5167130  44.4943270  10.6114000  60.3185480  41.2421650  10.1359970
  60.1793250  42.1144450  10.5047370  59.4366840  40.8994460   9.9907910
  62.1165830  47.1843350  12.3445120  62.0881260  47.5886300  11.4773550
  61.9530800  46.2553710  12.1816720  74.0680650  47.9670450  13.6409290
  74.5440370  48.4453340  14.3198370  74.6887810  47.8987940  12.9154790
  56.2704130  43.0119200   6.0530880  56.3484550  43.1467970   5.1086600
  56.8845810  42.3035090   6.2459000  57.5151760  44.7119390   2.4637060
  57.1079840  44.8533980   1.6090660  58.4064770  44.4279550   2.2608270
  73.4713900  45.1583300  10.8009300  73.5976960  44.9195180   9.8826480
  73.5135280  44.3267840  11.2731380  67.3330640  48.8611300   9.3704110
  67.8475310  48.7719310  10.1726540  66.4899720  49.2071000   9.6632020
  73.3237910  37.2115760  11.7659040  72.7082180  37.7195430  11.2374500
  73.0034330  36.3114090  11.7084980  56.3263650  44.0533370   8.5925340
  56.4894690  43.5838730   7.7744710  56.7916100  43.5456930   9.2574180
  61.0982420  33.1839130   3.6285910  60.6550570  33.9648670   3.2970430
  61.6567410  33.5069020   4.3356850  65.3852230  36.0507650   9.2321230
  64.9231600  36.2590670  10.0441170  64.9830340  35.2367000   8.9291900
  70.3856740  37.2716600  10.3617890  69.5350330  36.9722350  10.6826960
  70.2258530  37.5158610   9.4501710  67.4806450  38.7718350  12.4616680
  67.8059860  37.9382100  12.1218910  68.2686780  39.2946870  12.6095010
  63.1358320  33.7286460   5.4875510  63.4330650  34.6349290   5.4067530
  63.6843880  33.2405240   4.8735080  63.3295850  39.2058280  12.0227430
  63.2339450  38.2653010  11.8727830  64.1727830  39.4273350  11.6275500
  58.4606390  35.6171950  10.1761210  58.0669780  36.4647160  10.3833990
  57.7724790  34.9798320  10.3669850  65.0351440  35.7006920  13.2457950
  64.3449760  35.5079120  13.8804040  65.7783740  35.9841560  13.7782250
  55.7623440  33.5400410   4.2091290  55.4736490  34.1103270   4.9216270
  56.5069200  33.0604860   4.5722520  67.3114410  39.5405360   6.0811870
  66.5795530  40.0492170   6.4301970  66.9138750  38.7235340   5.7800650
  63.7491800  36.2159560   4.4864360  63.7527860  35.7749510   3.6368900
  64.6442920  36.5376890   4.5936180  59.5994180  36.0986050   3.4458570
  59.2594230  36.5761280   4.2025620  58.8371500  35.6451170   3.0859670
  67.7740320  34.9939040   5.4934810  67.7913060  35.4447690   6.3376660
  67.5255900  34.0944680   5.7068250  71.2011070  32.4071220  11.3321190
  71.5256840  31.6760880  11.8579170  71.2367580  32.0884860  10.4302180
  57.9002630  43.4284800  10.7521150  57.5157420  42.7878470  11.3504110
  58.2114820  44.1320920  11.3215880  64.0499770  40.2761340   6.2329770
  64.4169900  39.8019910   6.9791110  63.8604830  41.1502910   6.5738110
  56.9140260  35.0205030   2.3623240  56.6287180  34.6560700   3.2001860
  56.8519120  34.2885490   1.7486380  61.8399140  39.3169980   8.5513980
  61.5356210  40.1961960   8.7764340  62.7945600  39.3769770   8.5871420
  71.1268910  42.5196330   4.9407220  71.8468030  43.0151620   4.5503330
  70.9250730  41.8414220   4.2961090  66.5087710  42.5905390  10.8276220
  66.4425020  41.6701060  10.5733810  65.8792850  42.6880830  11.5420860
  60.4118330  43.1911350   2.7859640  60.9297000  42.3879610   2.7316530
  59.9602350  43.1290490   3.6276470  57.8962870  40.1572720   9.6985340
  57.5377810  40.8226570  10.2858680  57.6017430  39.3256270  10.0697960
  61.0975990  40.6156960  12.5824890  60.7976130  40.7614140  11.6852710
  61.8687230  40.0562250  12.4898280  66.4404440  45.4125960  10.5780020
  66.4548980  44.4806920  10.3598930  65.7329540  45.4985720  11.2169790
  72.6515650  42.0533300   9.9248600  71.9263840  42.6462080   9.7277990
  73.1791110  42.0456840   9.1261970  68.1815240  43.7793470   3.4232450
  68.5339060  43.1821600   2.7633820  67.2977570  43.4537700   3.5940700
  65.8738340  47.0543530   7.6720520  66.5180560  47.2602910   8.3493940
  66.2367780  46.2931930   7.2191370  67.1470420  45.0575880   6.3897970
  67.7892650  44.3569040   6.5030140  67.6719770  45.8374320   6.2094860
  68.9208040  45.8570780   9.5934030  69.2564280  46.4437470  10.2711950
  68.0008380  45.7263490   9.8231820  56.4711440  33.6465960  10.3757440
  55.7569960  33.8462880  10.9810050  56.8906480  32.8705530  10.7472240
  56.7584030  47.6346220  11.3623970  56.8675150  46.6940960  11.2219360
  56.1064590  47.9000970  10.7137700  64.7496620  45.9062110  12.7622090
  64.4293490  45.1871350  13.3067780  64.0754980  46.5817180  12.8358150
  67.9650220  36.1388270   8.1258890  68.3331040  35.3183480   8.4538460
  67.1048420  36.1990160   8.5414540  64.9252210  38.7927860   8.3496860
  65.4237460  39.2673680   9.0148710  65.0675160  37.8691380   8.5566890
  72.1319070  35.0095820   9.1925250  71.6292670  35.7501220   9.5319060
  72.9475730  35.3979820   8.8762040  70.4241080  40.2529000   2.6386610
  69.4831220  40.2679230   2.8134300  70.7385150  39.4664960   3.0846910
  72.4266660  47.4237850   4.3140870  72.5514080  48.2469020   4.7864680
  73.2932220  47.2128580   3.9665020  59.8984190  49.5169060   3.9858000
  60.6346670  48.9684520   4.2566570  60.2825110  50.3825070   3.8463990
  58.9042470  48.7015130  13.1743580  59.7055200  49.0227180  13.5878980
  58.3894290  48.3410710  13.8963490  67.7407100  44.8095000  13.1218990
  67.1345260  44.8326600  12.3814740  67.4361210  44.0778040  13.6586240
  69.1707470  48.5375290  11.7328400  70.1229220  48.4533310  11.6828640
  69.0235690  49.2017000  12.4062190  56.6240280  41.1888590  12.1179630
  57.1279300  40.6095870  12.6895860  55.8847700  41.4728820  12.6556000
  63.6778220  42.5959580  11.6515150  62.9123890  43.1644580  11.5669820
  63.8594180  42.3035790  10.7583380  70.8201570  44.3264910  12.2090170
  71.5611040  44.6640670  11.7057630  70.0574250  44.4956970  11.6559940
  58.6563360  39.3318180  13.0129700  58.6968700  39.0332050  13.9214930
  59.5108860  39.7325790  12.8537220  60.5969170  37.9110280  10.9804190
  60.0665630  37.4201230  10.3527530  61.2657240  38.3394480  10.4462120
  69.4947230  42.3779740  10.7445380  69.9088250  42.5324820  11.5935800
  68.5598230  42.5034960  10.9071160  69.9669400  39.7175900  12.7484530
  70.5490170  38.9628220  12.6605010  70.1431170  40.2483340  11.9716010
  61.0841470  34.8772650  11.0601480  60.9898340  34.2593400  10.3352350
  60.5038860  35.6038940  10.8331390  63.8502910  33.4345890   8.0928870
  63.4020210  33.4570150   7.2474420  63.2168110  33.0364910   8.6899170
  64.2562460  42.3300220   8.7141310  64.6750570  43.1732950   8.5417550
  63.3371090  42.4672260   8.4848090  66.5926360  40.0616400  10.0979150
  66.7122570  39.4657540  10.8373990  67.4520360  40.0986090   9.6780450
  68.9314260  40.6153590   8.6741660  68.4049480  41.1396210   8.0706800
  69.2745600  41.2480980   9.3051390  62.1069880  48.6353230   9.8299040
  61.5690970  49.3599290   9.5107740  62.3603840  48.1583570   9.0396380
  63.3595130  36.6037750  11.3554970  63.9494820  36.2953600  12.0432790
  62.5415370  36.1317500  11.5114870  68.1788560  36.2203560  11.5887990
  67.4904080  35.5585100  11.5237980  68.8994580  35.7741830  12.0336450
  64.9632090  49.8704440  10.0885690  64.8890790  50.7739580  10.3958060
  64.0610930  49.5516340  10.0607760  56.3659380  47.1979030   3.3919310
  56.6962390  46.3300090   3.1597950  56.7950380  47.4037550   4.2224270
  56.8549590  48.0649620   6.1300940  56.4180580  48.2450420   6.9625090
  57.4227270  48.8224240   5.9882660  72.4911770  47.5666620  10.4178250
  71.8913760  47.6259180   9.6742170  72.6205670  46.6271600  10.5475100
  56.6874020  40.5769850   2.4889820  56.0322860  40.3081490   1.8449520
  57.5251970  40.4674330   2.0391800  74.1929650  42.9082020   3.1024090
  74.5638480  42.1249340   2.6960060  74.8331580  43.5971120   2.9241390
  71.1763410  44.2918600   8.5154410  70.3623250  44.7215760   8.7780200
  71.5837610  44.9037010   7.9023460  57.7249950  40.9622420   7.0293160
  58.0922990  40.8749820   7.9089180  57.1560770  40.1988970   6.9300020
  72.5253810  39.4306800  10.0423630  72.2939900  39.2019550   9.1421580
  72.7858360  40.3506350   9.9968520  57.2765950  37.8731510  10.9351580
  56.3822000  37.8398270  11.2745290  57.8163500  38.0718300  11.7002830
  70.9641880  34.6563230  12.8203330  71.8412060  34.6646630  13.2037330
  70.9762720  33.9194070  12.2095680  72.4105150  38.5092770   3.7091350
  72.9342630  38.0155420   3.0781520  72.9964570  38.6443130   4.4538920
  72.5894870  38.5932640   7.2310900  71.6397580  38.5596180   7.3455890
  72.7707880  39.5032750   6.9960670  57.7805660  32.1479840   5.2834800
  58.4281850  31.5977220   4.8429960  58.2007500  32.4022990   6.1050610
  73.3292280  36.4027070   2.1821440  73.2191560  36.2483110   3.1203710
  74.0899870  35.8748010   1.9396850  71.6758000  32.3421200   8.6404440
  72.3130220  32.9555340   9.0063630  71.8232890  32.3781860   7.6953670
  57.5337660  32.3035510   8.0260120  57.1852480  32.7599330   8.7918300
  57.2025360  31.4092640   8.1082550  59.1402030  45.4755110  12.1913310
  59.0971660  45.1048020  13.0727770  59.2713040  46.4132680  12.3315130
  62.8408060  47.0314700   7.7923030  62.5999420  47.2989260   6.9053550
  63.7810700  47.2020430   7.8473890  65.0462480  33.4947390  11.5479540
  64.9851370  34.0869220  12.2974950  65.9862860  33.3873350  11.4029800
  67.6837040  33.1517450  11.1871830  68.2977450  33.4696740  10.5252910
  68.2286600  32.6666040  11.8067690  74.1012220  49.0509080   8.5933670
  73.6070500  49.4477950   7.8760800  73.4925510  48.4258290   8.9870950
  58.2058300  31.8311710  11.3010890  58.7541290  31.6499760  10.5377000
  58.2713610  31.0405820  11.8367200  58.9790060  48.4217360   9.3111090
  58.3850380  48.2902060  10.0501130  58.9713900  47.5855500   8.8453190
  68.4245080  31.7149590   7.5141120  67.5504920  32.0484700   7.3114050
  68.3155830  31.2422770   8.3392990  69.3317060  33.9220460   8.8982840
  69.0030420  33.1072220   8.5184570  70.2799360  33.8790270   8.7748530
  71.7851670  49.6932500   5.8720410  71.3254640  50.4448310   5.4978430
  71.1564130  48.9738970   5.8135210  58.6102290  45.7875740   8.2619130
  57.8836350  45.1681030   8.1945080  58.6711440  46.1816350   7.3917210
  62.2147390  48.0020740   5.0468540  62.7312410  47.3908100   4.5216800
  62.8644770  48.5049520   5.5379550  64.9542890  48.8929230   5.8737520
  65.2420700  48.6383530   4.9970530  65.4666110  48.3406590   6.4643090
  66.1719900  32.6319430   6.4534030  65.3891690  33.1064930   6.7330790
  65.8782830  31.7274260   6.3447210  70.7240970  33.3342530   4.4983120
  71.1649060  33.2787630   3.6504720  70.4548560  34.2500540   4.5693300
  72.5879540  32.9657770   2.5091940  72.5267940  32.0218990   2.3622960
  73.3671570  33.0737860   3.0545400  64.0574120  35.0506180   1.9650060
  63.2448630  34.6763070   1.6245940  64.5615760  34.2951260   2.2671250
  68.5599100  31.7148630   3.2033130  69.1628470  32.2868840   3.6781650
  67.8192090  32.2788070   2.9807030  65.0215250  49.8145330  13.2405720
  65.9482560  49.5789600  13.2841680  65.0065680  50.6417330  12.7591750
  62.2078860  32.4790080  13.0047600  61.9263130  32.9823680  12.2408420
  62.5898560  31.6811830  12.6389730  68.8094320  31.8943660  13.5828070
  68.6959770  32.2138270  14.4779590  69.6264060  32.2956170  13.2865350
  71.5892810  49.0415190  13.0646760  72.3818130  48.5464420  12.8572720
  71.8825960  49.7205330  13.6722370  67.7152470  21.1392640  59.0436770
  67.6346520  20.2247250  58.7728480  67.3016890  21.6359710  58.3376480
  65.8470510  22.9171660  60.9246040  65.0712610  22.4372100  61.2144610
  66.4983440  22.2377310  60.7502200  59.8636340  23.2291470  61.8021800
  59.0321220  22.9740180  62.2018310  60.4717320  23.3002240  62.5379720
  69.8677940  27.3231850  59.7045170  69.4059470  26.5519090  60.0332340
  70.6803490  27.3497920  60.2097620  59.8437600  27.2631560  61.9979820
  60.1465640  26.3729300  61.8190040  60.5881190  27.8201780  61.7702070
  58.2728290  18.1893360  55.5864190  57.3844990  18.5309330  55.4844070
  58.5569480  17.9893680  54.6945020  56.2361300  20.7899010  61.4703890
  56.8077410  20.0221210  61.4707530  56.2362840  21.0887770  60.5610500
  66.0941250  29.6089860  59.3249160  65.4752690  30.0647360  58.7543600
  66.9493030  29.7641320  58.9238860  65.2879500  25.5928850  60.9316200
  65.2187780  24.6518790  60.7705330  66.0499360  25.6830260  61.5038770
  66.3184670  18.3999230  61.1585130  66.6949490  17.5271110  61.0458800
  66.2204180  18.7357930  60.2675570  60.4489680  16.7724860  56.6202570
  60.5556430  17.6728590  56.9271330  59.5382040  16.7242830  56.3297220
  70.1008790  15.8949670  58.0913470  70.9218410  15.4046240  58.1338950
  70.1342870  16.4847330  58.8445310  58.0972840  18.6943870  61.8655160
  58.7782950  18.9582240  62.4842560  57.7820890  17.8544740  62.1993170
  62.2897410  19.7411230  60.9527750  62.7975630  20.2392200  61.5932770
  62.8210650  18.9646430  60.7767110  66.9604600  24.4929100  56.7181070
  66.3421870  24.9578550  56.1543790  67.4727850  25.1856580  57.1350580
  70.3370270  17.8350050  60.8641010  69.6325840  18.1234940  61.4444120
  70.6982430  18.6450160  60.5040570  60.2548840  16.0919750  63.2261620
  60.5965650  16.9361800  62.9315490  59.3164650  16.2403490  63.3426960
  56.3287800  25.1785630  54.0920700  55.9515780  25.6672730  53.3605600
  56.5860870  25.8510910  54.7227230  71.9533050  27.4525180  63.1268490
  71.2696570  28.1224290  63.1185160  72.4927340  27.6505830  62.3613350
  73.4057190  17.2804840  61.2550220  72.4582100  17.3143820  61.3865650
  73.7307180  18.0943790  61.6399580  63.9376730  13.5802020  59.5506210
  64.2451710  13.0248910  58.8341710  63.0077430  13.7146480  59.3679200
  69.4891790  29.2969310  61.8413670  69.5018950  28.8931600  60.9735930
  68.9367010  30.0716600  61.7375100  70.7837210  26.0185530  56.9303840
  70.6733540  25.0759860  57.0553260  70.7805460  26.3801170  57.8166600
  66.3257490  21.6450850  56.2866330  65.3986770  21.5788230  56.5154800
  66.4782310  22.5830980  56.1721570  66.3126570  17.9167850  53.2833490
  65.3730240  18.0781810  53.3685950  66.6309830  18.6353530  52.7369480
  72.8339330  22.5986370  63.2612520  72.0057960  22.6679460  62.7862650
  73.4289810  23.1840680  62.7928350  70.3554780  23.2071150  56.7901580
  69.7367200  22.8690700  56.1427880  70.3379230  22.5630910  57.4980770
  61.9314130  22.1715590  59.0686060  61.5271130  21.4592840  58.5731960
  62.0177250  21.8268830  59.9574100  62.3995830  25.8583150  61.2325270
  62.1024120  25.2528620  60.5533050  63.3495650  25.8960460  61.1214630
  68.5319480  22.4457960  53.7974330  68.9712760  21.6080390  53.6512150
  69.2447900  23.0787360  53.8838470  66.6414860  27.3854030  57.7655570
  67.0810770  28.1278360  57.3510960  66.5801750  27.6280600  58.6894530
  72.1136620  13.7000770  52.1115370  71.8009280  13.7927600  53.0114440
  72.8749090  14.2781800  52.0612800  58.6318760  21.0660570  56.5692710
  58.5116360  21.7922660  55.9573980  58.3219650  20.2963480  56.0920620
  56.2704130  24.2375710  62.3761350  56.3484550  24.3724480  61.4317070
  56.8845810  23.5291600  62.5689470  57.5151760  25.9375900  58.7867530
  57.1079840  26.0790490  57.9321130  58.4064770  25.6536060  58.5838740
  69.3085040  30.3723150  55.1218580  69.1486180  30.0826090  56.0200410
  69.1431750  29.5963280  54.5863810  61.7873420  30.1521680  56.8990200
  61.6115900  29.2357220  56.6858000  60.9329160  30.5108970  57.1388000
  69.0111170  27.8810710  53.6816580  68.3176330  27.8788000  53.0218860
  69.7534030  27.4570030  53.2510750  68.5761100  29.5073420  57.7565070
  69.0318050  28.7262800  58.0703690  68.9153620  30.2180240  58.3006250
  61.0982420  14.4095640  59.9516380  60.6550570  15.1905180  59.6200900
  61.6567410  14.7325530  60.6587320  64.2141240  14.0306340  54.8322210
  63.5895420  14.0266210  55.5575520  64.1271360  13.1637300  54.4358180
  63.1358320  14.9542970  61.8105980  63.4330650  15.8605800  61.7298000
  63.6843880  14.4661750  61.1965550  60.8896640  19.5329210  57.6797630
  60.6637560  19.3166380  58.5844250  60.1089170  19.9657670  57.3343600
  68.1194400  19.5392580  56.2788280  67.5203290  20.2628380  56.0951900
  68.6674010  19.4769360  55.4964730  66.7259270  18.1756120  58.3091560
  67.1188840  18.4928320  57.4960250  67.0876120  17.2968000  58.4236080
  55.7623440  14.7656920  60.5321760  55.4736490  15.3359780  61.2446740
  56.5069200  14.2861370  60.8952990  55.9493670  18.7077040  51.7424480
  55.8668340  19.6507800  51.8839470  55.5976730  18.5651950  50.8636830
  67.3114410  20.7661870  62.4042340  66.5795530  21.2748680  62.7532440
  66.9138750  19.9491850  62.1031120  63.7491800  17.4416070  60.8094830
  63.7527860  17.0006020  59.9599370  64.6442920  17.7633400  60.9166650
  59.5994180  17.3242560  59.7689040  59.2594230  17.8017790  60.5256090
  58.8371500  16.8707680  59.4090140  63.8111950  18.4428150  53.8001590
  63.9324770  18.4014630  54.7487410  63.4260460  19.3052300  53.6448320
  67.7740320  16.2195550  61.8165280  67.7913060  16.6704200  62.6607130
  67.5255900  15.3201190  62.0298720  62.8233450  20.7529290  53.1984890
  62.2550350  20.3047540  52.5720800  63.5322450  21.1122070  52.6650040
  64.0499770  21.5017850  62.5560240  64.4169900  21.0276420  63.3021580
  63.8604830  22.3759420  62.8968580  56.9140260  16.2461540  58.6853710
  56.6287180  15.8817210  59.5232330  56.8519120  15.5142000  58.0716850
  60.3680930  24.7487480  55.4711300  59.5943190  24.2085100  55.3110020
  61.0975560  24.2294090  55.1329060  71.1268910  23.7452840  61.2637690
  71.8468030  24.2408130  60.8733800  70.9250730  23.0670730  60.6191560
  66.5878850  15.1390800  55.4067080  65.7743460  14.6403970  55.3312390
  66.3940800  15.9789050  54.9903430  69.3027240  19.5110450  53.7029240
  70.1906860  19.8227680  53.5280580  69.2732330  18.6382700  53.3109820
  60.4118330  24.4167860  59.1090110  60.9297000  23.6136120  59.0547000
  59.9602350  24.3547000  59.9506940  65.2987830  25.6834140  54.3817410
  65.6403530  26.4276370  53.8860730  64.4700540  25.9965260  54.7442240
  71.5741510  20.8222290  53.1709100  71.4905230  21.2536510  52.3205540
  72.2935700  21.2820640  53.6035920  72.6028760  27.6764550  55.8991230
  71.9604920  27.0220170  56.1734950  72.2159420  28.0819640  55.1231900
  68.1815240  25.0049980  59.7462920  68.5339060  24.4078110  59.0864290
  67.2977570  24.6794210  59.9171170  64.2678520  25.7647670  57.1533330
  64.9549650  26.3116880  57.5340920  63.4810940  26.3088400  57.1882940
  56.4070920  21.3820490  52.6450410  57.2765770  21.6645290  52.9286330
  55.9161240  22.1956360  52.5299220  63.5705730  22.7693700  56.7658690
  64.0268510  23.5798950  56.9918880  63.2193940  22.4516840  57.5977180
  59.4717510  13.1131350  57.2381210  59.3432140  13.1049250  58.1866130
  58.6479530  13.4514440  56.8872220  67.1470420  26.2832390  62.7128440
  67.7892650  25.5825550  62.8260610  67.6719770  27.0630830  62.5325330
  70.9926140  26.5681010  52.4367580  70.7663720  25.8511450  53.0292220
  70.6022340  26.3193450  51.5989330  56.7742170  30.5947870  53.2112040
  57.1339810  31.1937210  52.5569310  56.6334510  31.1407760  53.9847070
  70.5742390  24.4852950  54.0981740  70.2864090  24.9465640  54.8859620
  71.3694560  24.0250720  54.3665960  62.7910790  27.9779070  54.0285710
  62.7820890  28.7108760  53.4130220  61.8709150  27.7310650  54.1212670
  58.3917430  23.1993960  54.7732470  57.7845380  23.9392860  54.7827770
  58.8666780  23.2893320  53.9470670  71.3312250  16.3201720  55.2576920
  70.7025410  16.4247390  54.5435150  70.8364170  16.5398500  56.0470800
  65.7770390  28.0407310  52.6910900  65.8782370  27.8371300  51.7612880
  64.8772130  27.7865590  52.8958680  63.2996280  18.5987670  56.6734800
  62.5912430  19.0674010  57.1148410  63.5840760  17.9409680  57.3079990
  67.3311710  15.3238330  58.1130590  67.2079490  15.3424460  57.1640100
  68.2796270  15.3717270  58.2328990  64.4188500  30.5593630  57.3858570
  64.6730000  30.5215020  56.4637940  63.4700980  30.4326960  57.3786820
  61.5031300  16.9072750  54.0485510  62.3521830  17.3442900  53.9825700
  61.1362570  17.2193010  54.8757570  70.4241080  21.4785510  58.9617080
  69.4831220  21.4935740  59.1364770  70.7385150  20.6921470  59.4077380
  60.4022720  23.1605110  52.5221040  61.1685990  23.0486470  53.0846470
  60.4797410  22.4643080  51.8697810  59.0969480  20.5930180  53.2053930
  59.1773070  19.6457690  53.3171330  59.9889230  20.9237060  53.3114590
  72.4266660  28.6494360  60.6371340  72.5514080  29.4725530  61.1095150
  73.2932220  28.4385090  60.2895490  59.8984190  30.7425570  60.3088470
  60.6346670  30.1941030  60.5797040  60.2825110  31.6081580  60.1694460
  56.7829670  26.8099140  56.1829980  55.8569450  27.0520280  56.1735390
  57.2486100  27.6373400  56.0614730  63.0086500  29.9155880  52.1314040
  63.8015110  30.2044710  51.6795830  62.4890850  29.4848050  51.4526520
  72.0616670  29.1426010  53.5550780  71.7758180  28.7291150  52.7404960
  71.8636220  30.0713720  53.4351300  63.5263900  25.1359290  51.9956390
  63.4214540  24.5211640  52.7217770  63.3588120  24.6125180  51.2119400
  66.7666630  24.1979320  52.5998380  66.2176730  24.6448620  53.2441120
  67.3885890  23.6928570  53.1236050  62.4341750  23.1570240  54.4963680
  62.8558170  22.9910110  55.3395070  62.5592590  22.3470470  54.0018820
  64.9469390  22.1807850  51.7440780  65.4675050  21.4656870  51.3781930
  65.5937790  22.8193720  52.0441290  61.3300650  19.2303470  51.4421840
  61.1289710  18.3670830  51.8035180  61.1592700  19.1436830  50.5043440
  68.8088960  14.0411700  53.9708720  69.0891250  13.1979600  54.3268140
  68.0354690  14.2734810  54.4847470  60.1283450  16.3304090  51.4299720
  60.4309350  16.3371520  50.5218870  60.8678040  15.9801950  51.9267380
  63.3468380  15.2738710  52.4155920  62.9990380  14.5962700  51.8358370
  63.5481150  14.8128220  53.2299310  65.5117420  30.2619460  54.0342520
  66.4068210  30.6004430  54.0561280  65.5435050  29.5398870  53.4066800
  59.1513580  25.6346510  52.2629520  59.5888450  26.1776180  52.9187100
  59.6361310  24.8093460  52.2725860  56.3659380  28.4235540  59.7149780
  56.6962390  27.5556600  59.4828420  56.7950380  28.6294060  60.5454740
  60.9621300  26.7544550  57.3751750  60.6616840  26.6309520  58.2755660
  60.8558790  25.8953140  56.9667480  56.8549590  29.2906130  62.4531410
  56.4180580  29.4706930  63.2855560  57.4227270  30.0480750  62.3113130
  73.7313220  26.5340950  52.0778430  72.9006180  26.6017600  52.5485660
  73.9085050  27.4245070  51.7745290  73.1869680  23.2788430  54.5812630
  73.9488590  23.8485080  54.6872320  73.2024050  22.7115630  55.3520940
  56.6874020  21.8026360  58.8120290  56.0322860  21.5338000  58.1679990
  57.5251970  21.6930840  58.3622270  74.1929650  24.1338530  59.4254560
  74.5638480  23.3505850  59.0190530  74.8331580  24.8227630  59.2471860
  73.2388850  23.5722800  51.7385150  73.5137690  24.4801680  51.6104370
  73.0499590  23.5085330  52.6747140  69.6364460  16.5967650  53.0338780
  70.0549340  16.4098630  52.1935440  69.3300520  15.7446700  53.3441710
  73.1354190  21.5091790  56.7314580  72.7597790  20.7419720  56.2995870
  72.4057310  21.8914490  57.2189510  55.9012100  19.0125290  54.7545620
  54.9976180  19.2755490  54.5797280  56.3852720  19.2836460  53.9745580
  72.4105150  19.7349280  60.0321820  72.9342630  19.2411930  59.4011990
  72.9964570  19.8699640  60.7769390  58.4439310  18.0690830  52.6640000
  59.1531010  17.6474050  52.1787280  57.7279250  18.1366060  52.0323350
  58.0913470  14.1230160  51.7042650  58.8141600  14.6639100  52.0223870
  58.3637990  13.8493580  50.8284190  71.9005120  18.9922630  55.9714230
  72.3964240  18.7593500  56.7563110  71.7021190  18.1534470  55.5551870
  57.7805660  13.3736350  61.6065270  58.4281850  12.8233730  61.1660430
  58.2007500  13.6279500  62.4281080  73.3292280  17.6283580  58.5051910
  73.2191560  17.4739620  59.4434180  74.0899870  17.1004520  58.2627320
  74.2182550  15.4591500  51.7458050  75.1431860  15.3272680  51.5376340
  74.1958340  15.5384320  52.6994500  74.2921040  16.2302160  54.3714760
  73.4972540  16.1647280  54.9007670  74.4964320  17.1652800  54.3600110
  71.2339460  30.2693710  58.3653150  71.8298530  29.9478280  57.6887570
  71.4917610  29.7965530  59.1566420  71.7851670  30.9189010  62.1950880
  71.3254640  31.6704820  61.8208900  71.1564130  30.1995480  62.1365680
  62.2147390  29.2277250  61.3699010  62.7312410  28.6164610  60.8447270
  62.8644770  29.7306030  61.8610020  64.9542890  30.1185740  62.1967990
  65.2420700  29.8640040  61.3201000  65.4666110  29.5663100  62.7873560
  66.1719900  13.8575940  62.7764500  65.3891690  14.3321440  63.0561260
  65.8782830  12.9530770  62.6677680  70.7240970  14.5599040  60.8213590
  71.1649060  14.5044140  59.9735190  70.4548560  15.4757050  60.8923770
  72.5879540  14.1914280  58.8322410  72.5267940  13.2475500  58.6853430
  73.3671570  14.2994370  59.3775870  56.8932290  30.3306640  57.7946360
  56.7254330  29.6977320  58.4928250  56.0266800  30.5366040  57.4440550
  57.5160310  14.1623420  55.2978220  58.2739670  14.2752300  54.7242250
  57.0537480  14.9992620  55.2521650  64.0574120  16.2762690  58.2880530
  63.2448630  15.9019580  57.9476410  64.5615760  15.5207770  58.5901720
  68.5599100  12.9405140  59.5263600  69.1628470  13.5125350  60.0012120
  67.8192090  13.5044580  59.3037500  71.7033700  13.3426700  54.8003880
  71.8984330  14.2410150  55.0671310  70.9163570  13.1113780  55.2936830
  58.4994990  29.0239870  55.2396500  57.9742610  29.4047900  54.5358460
  58.4239570  29.6490640  55.9606210  59.8885460  14.6887470  53.8380190
  60.4178220  13.9017270  53.7088140  60.5213780  15.3678660  54.0715720
  62.0823300  14.4262610  56.8925580  61.4526040  13.7249920  57.0595710
  61.5428440  15.1866740  56.6758740  73.2560310  30.5827410  56.5610440
  73.4312500  29.8965150  55.9171360  72.5581880  31.1074460  56.1687110
  61.0987960  30.9722250  54.1145750  61.8306780  30.6881530  53.5669640
  61.3581630  30.7335530  55.0045130  60.2602750  27.0886980  54.1192080
  59.6311630  27.5572080  54.6677910  60.3750580  26.2436200  54.5538270
  67.7152470  21.1392640  40.2693280  67.6346520  20.2247250  39.9984990
  67.3016890  21.6359710  39.5632990  65.8470510  22.9171660  42.1502550
  65.0712610  22.4372100  42.4401120  66.4983440  22.2377310  41.9758710
  59.8636340  23.2291470  43.0278310  59.0321220  22.9740180  43.4274820
  60.4717320  23.3002240  43.7636230  69.8677940  27.3231850  40.9301680
  69.4059470  26.5519090  41.2588850  70.6803490  27.3497920  41.4354130
  59.8437600  27.2631560  43.2236330  60.1465640  26.3729300  43.0446550
  60.5881190  27.8201780  42.9958580  58.2728290  18.1893360  36.8120700
  57.3844990  18.5309330  36.7100580  58.5569480  17.9893680  35.9201530
  56.2361300  20.7899010  42.6960400  56.8077410  20.0221210  42.6964040
  56.2362840  21.0887770  41.7867010  66.0941250  29.6089860  40.5505670
  65.4752690  30.0647360  39.9800110  66.9493030  29.7641320  40.1495370
  65.2879500  25.5928850  42.1572710  65.2187780  24.6518790  41.9961840
  66.0499360  25.6830260  42.7295280  57.4786170  16.1983370  44.4829330
  57.2989010  15.3009120  44.7632090  57.0766250  16.7455240  45.1576280
  66.3184670  18.3999230  42.3841640  66.6949490  17.5271110  42.2715310
  66.2204180  18.7357930  41.4932080  60.4489680  16.7724860  37.8459080
  60.5556430  17.6728590  38.1527840  59.5382040  16.7242830  37.5553730
  70.1008790  15.8949670  39.3169980  70.9218410  15.4046240  39.3595460
  70.1342870  16.4847330  40.0701820  58.0972840  18.6943870  43.0911670
  58.7782950  18.9582240  43.7099070  57.7820890  17.8544740  43.4249680
  62.2897410  19.7411230  42.1784260  62.7975630  20.2392200  42.8189280
  62.8210650  18.9646430  42.0023620  74.3908340  17.9116420  45.8813610
  73.6860510  18.2998130  45.3628720  74.6566260  18.6066710  46.4834540
  60.5733510  14.3809790  46.4447680  60.5751950  14.8982180  45.6393580
  59.7437820  13.9039970  46.4217610  66.9604600  24.4929100  37.9437580
  66.3421870  24.9578550  37.3800300  67.4727850  25.1856580  38.3607090
  61.8236360  24.0204970  44.6221180  61.4905740  24.6473890  45.2642250
  62.0003040  24.5466850  43.8422850  70.3370270  17.8350050  42.0897520
  69.6325840  18.1234940  42.6700630  70.6982430  18.6450160  41.7297080
  60.2548840  16.0919750  44.4518130  60.5965650  16.9361800  44.1572000
  59.3164650  16.2403490  44.5683470  61.0355460  25.9885770  46.4370360
  61.6529460  26.6636850  46.1554810  60.1748580  26.3973750  46.3457860
  56.3287800  25.1785630  35.3177210  55.9515780  25.6672730  34.5862110
  56.5860870  25.8510910  35.9483740  71.9533050  27.4525180  44.3525000
  71.2696570  28.1224290  44.3441670  72.4927340  27.6505830  43.5869860
  73.4057190  17.2804840  42.4806730  72.4582100  17.3143820  42.6122160
  73.7307180  18.0943790  42.8656090  63.9376730  13.5802020  40.7762720
  64.2451710  13.0248910  40.0598220  63.0077430  13.7146480  40.5935710
  69.4891790  29.2969310  43.0670180  69.5018950  28.8931600  42.1992440
  68.9367010  30.0716600  42.9631610  70.7837210  26.0185530  38.1560350
  70.6733540  25.0759860  38.2809770  70.7805460  26.3801170  39.0423110
  68.8877230  24.1999150  44.3952790  69.3046020  23.9859260  43.5606250
  69.6117050  24.4571940  44.9661410  66.3257490  21.6450850  37.5122840
  65.3986770  21.5788230  37.7411310  66.4782310  22.5830980  37.3978080
  66.3126570  17.9167850  34.5090000  65.3730240  18.0781810  34.5942460
  66.6309830  18.6353530  33.9625990  72.8339330  22.5986370  44.4869030
  72.0057960  22.6679460  44.0119160  73.4289810  23.1840680  44.0184860
  70.3554780  23.2071150  38.0158090  69.7367200  22.8690700  37.3684390
  70.3379230  22.5630910  38.7237280  69.7981340  19.3855690  45.4323900
  69.3852520  20.2109400  45.6863890  69.0657290  18.8000730  45.2400260
  61.9314130  22.1715590  40.2942570  61.5271130  21.4592840  39.7988470
  62.0177250  21.8268830  41.1830610  62.3995830  25.8583150  42.4581780
  62.1024120  25.2528620  41.7789560  63.3495650  25.8960460  42.3471140
  60.6442750  18.9458800  44.0741610  61.1957340  19.0554140  43.2994860
  61.1586260  19.3196400  44.7896840  70.4881440  29.4315020  46.1204880
  70.0112000  30.2387210  45.9277490  69.8043230  28.7793350  46.2731090
  61.4914260  25.5964840  49.1089580  60.5942790  25.8204810  49.3562980
  61.5167130  25.7199780  48.1600980  68.5319480  22.4457960  35.0230840
  68.9712760  21.6080390  34.8768660  69.2447900  23.0787360  35.1094980
  60.3185480  22.4678160  47.6846950  60.1793250  23.3400960  48.0534350
  59.4366840  22.1250970  47.5394890  66.6414860  27.3854030  38.9912080
  67.0810770  28.1278360  38.5767470  66.5801750  27.6280600  39.9151040
  62.1165830  28.4099860  49.8932100  62.0881260  28.8142810  49.0260530
  61.9530800  27.4810220  49.7303700  72.1136620  13.7000770  33.3371880
  71.8009280  13.7927600  34.2370950  72.8749090  14.2781800  33.2869310
  58.6318760  21.0660570  37.7949220  58.5116360  21.7922660  37.1830490
  58.3219650  20.2963480  37.3177130  74.0680650  29.1926960  51.1896270
  74.5440370  29.6709850  51.8685350  74.6887810  29.1244450  50.4641770
  56.2704130  24.2375710  43.6017860  56.3484550  24.3724480  42.6573580
  56.8845810  23.5291600  43.7945980  57.5151760  25.9375900  40.0124040
  57.1079840  26.0790490  39.1577640  58.4064770  25.6536060  39.8095250
  73.4713900  26.3839810  48.3496280  73.5976960  26.1451690  47.4313460
  73.5135280  25.5524350  48.8218360  67.3330640  30.0867810  46.9191090
  67.8475310  29.9975820  47.7213520  66.4899720  30.4327510  47.2119000
  69.3085040  30.3723150  36.3475090  69.1486180  30.0826090  37.2456920
  69.1431750  29.5963280  35.8120320  61.7873420  30.1521680  38.1246710
  61.6115900  29.2357220  37.9114510  60.9329160  30.5108970  38.3644510
  69.0111170  27.8810710  34.9073090  68.3176330  27.8788000  34.2475370
  69.7534030  27.4570030  34.4767260  68.5761100  29.5073420  38.9821580
  69.0318050  28.7262800  39.2960200  68.9153620  30.2180240  39.5262760
  73.3237910  18.4372270  49.3146020  72.7082180  18.9451940  48.7861480
  73.0034330  17.5370600  49.2571960  56.3263650  25.2789880  46.1412320
  56.4894690  24.8095240  45.3231690  56.7916100  24.7713440  46.8061160
  61.0982420  14.4095640  41.1772890  60.6550570  15.1905180  40.8457410
  61.6567410  14.7325530  41.8843830  65.3852230  17.2764160  46.7808210
  64.9231600  17.4847180  47.5928150  64.9830340  16.4623510  46.4778880
  70.3856740  18.4973110  47.9104870  69.5350330  18.1978860  48.2313940
  70.2258530  18.7415120  46.9988690  67.4806450  19.9974860  50.0103660
  67.8059860  19.1638610  49.6705890  68.2686780  20.5203380  50.1581990
  64.2141240  14.0306340  36.0578720  63.5895420  14.0266210  36.7832030
  64.1271360  13.1637300  35.6614690  63.1358320  14.9542970  43.0362490
  63.4330650  15.8605800  42.9554510  63.6843880  14.4661750  42.4222060
  60.8896640  19.5329210  38.9054140  60.6637560  19.3166380  39.8100760
  60.1089170  19.9657670  38.5600110  68.1194400  19.5392580  37.5044790
  67.5203290  20.2628380  37.3208410  68.6674010  19.4769360  36.7221240
  63.3295850  20.4314790  49.5714410  63.2339450  19.4909520  49.4214810
  64.1727830  20.6529860  49.1762480  66.7259270  18.1756120  39.5348070
  67.1188840  18.4928320  38.7216760  67.0876120  17.2968000  39.6492590
  58.4606390  16.8428460  47.7248190  58.0669780  17.6903670  47.9320970
  57.7724790  16.2054830  47.9156830  65.0351440  16.9263430  50.7944930
  64.3449760  16.7335630  51.4291020  65.7783740  17.2098070  51.3269230
  55.7623440  14.7656920  41.7578270  55.4736490  15.3359780  42.4703250
  56.5069200  14.2861370  42.1209500  55.9493670  18.7077040  32.9680990
  55.8668340  19.6507800  33.1095980  55.5976730  18.5651950  32.0893340
  67.3114410  20.7661870  43.6298850  66.5795530  21.2748680  43.9788950
  66.9138750  19.9491850  43.3287630  63.7491800  17.4416070  42.0351340
  63.7527860  17.0006020  41.1855880  64.6442920  17.7633400  42.1423160
  59.5994180  17.3242560  40.9945550  59.2594230  17.8017790  41.7512600
  58.8371500  16.8707680  40.6346650  63.8111950  18.4428150  35.0258100
  63.9324770  18.4014630  35.9743920  63.4260460  19.3052300  34.8704830
  67.7740320  16.2195550  43.0421790  67.7913060  16.6704200  43.8863640
  67.5255900  15.3201190  43.2555230  62.8233450  20.7529290  34.4241400
  62.2550350  20.3047540  33.7977310  63.5322450  21.1122070  33.8906550
  71.2011070  13.6327730  48.8808170  71.5256840  12.9017390  49.4066150
  71.2367580  13.3141370  47.9789160  57.9002630  24.6541310  48.3008130
  57.5157420  24.0134980  48.8991090  58.2114820  25.3577430  48.8702860
  64.0499770  21.5017850  43.7816750  64.4169900  21.0276420  44.5278090
  63.8604830  22.3759420  44.1225090  56.9140260  16.2461540  39.9110220
  56.6287180  15.8817210  40.7488840  56.8519120  15.5142000  39.2973360
  61.8399140  20.5426490  46.1000960  61.5356210  21.4218470  46.3251320
  62.7945600  20.6026280  46.1358400  60.3680930  24.7487480  36.6967810
  59.5943190  24.2085100  36.5366530  61.0975560  24.2294090  36.3585570
  71.1268910  23.7452840  42.4894200  71.8468030  24.2408130  42.0990310
  70.9250730  23.0670730  41.8448070  66.5878850  15.1390800  36.6323590
  65.7743460  14.6403970  36.5568900  66.3940800  15.9789050  36.2159940
  66.5087710  23.8161900  48.3763200  66.4425020  22.8957570  48.1220790
  65.8792850  23.9137340  49.0907840  69.3027240  19.5110450  34.9285750
  70.1906860  19.8227680  34.7537090  69.2732330  18.6382700  34.5366330
  60.4118330  24.4167860  40.3346620  60.9297000  23.6136120  40.2803510
  59.9602350  24.3547000  41.1763450  65.2987830  25.6834140  35.6073920
  65.6403530  26.4276370  35.1117240  64.4700540  25.9965260  35.9698750
  57.8962870  21.3829230  47.2472320  57.5377810  22.0483080  47.8345660
  57.6017430  20.5512780  47.6184940  61.0975990  21.8413470  50.1311870
  60.7976130  21.9870650  49.2339690  61.8687230  21.2818760  50.0385260
  66.4404440  26.6382470  48.1267000  66.4548980  25.7063430  47.9085910
  65.7329540  26.7242230  48.7656770  71.5741510  20.8222290  34.3965610
  71.4905230  21.2536510  33.5462050  72.2935700  21.2820640  34.8292430
  72.6515650  23.2789810  47.4735580  71.9263840  23.8718590  47.2764970
  73.1791110  23.2713350  46.6748950  72.6028760  27.6764550  37.1247740
  71.9604920  27.0220170  37.3991460  72.2159420  28.0819640  36.3488410
  68.1815240  25.0049980  40.9719430  68.5339060  24.4078110  40.3120800
  67.2977570  24.6794210  41.1427680  64.2678520  25.7647670  38.3789840
  64.9549650  26.3116880  38.7597430  63.4810940  26.3088400  38.4139450
  56.4070920  21.3820490  33.8706920  57.2765770  21.6645290  34.1542840
  55.9161240  22.1956360  33.7555730  63.5705730  22.7693700  37.9915200
  64.0268510  23.5798950  38.2175390  63.2193940  22.4516840  38.8233690
  65.8738340  28.2800040  45.2207500  66.5180560  28.4859420  45.8980920
  66.2367780  27.5188440  44.7678350  59.4717510  13.1131350  38.4637720
  59.3432140  13.1049250  39.4122640  58.6479530  13.4514440  38.1128730
  67.1470420  26.2832390  43.9384950  67.7892650  25.5825550  44.0517120
  67.6719770  27.0630830  43.7581840  70.9926140  26.5681010  33.6624090
  70.7663720  25.8511450  34.2548730  70.6022340  26.3193450  32.8245840
  68.9208040  27.0827290  47.1421010  69.2564280  27.6693980  47.8198930
  68.0008380  26.9520000  47.3718800  56.7742170  30.5947870  34.4368550
  57.1339810  31.1937210  33.7825820  56.6334510  31.1407760  35.2103580
  56.4711440  14.8722470  47.9244420  55.7569960  15.0719390  48.5297030
  56.8906480  14.0962040  48.2959220  70.5742390  24.4852950  35.3238250
  70.2864090  24.9465640  36.1116130  71.3694560  24.0250720  35.5922470
  56.7584030  28.8602730  48.9110950  56.8675150  27.9197470  48.7706340
  56.1064590  29.1257480  48.2624680  64.7496620  27.1318620  50.3109070
  64.4293490  26.4127860  50.8554760  64.0754980  27.8073690  50.3845130
  62.7910790  27.9779070  35.2542220  62.7820890  28.7108760  34.6386730
  61.8709150  27.7310650  35.3469180  58.3917430  23.1993960  35.9988980
  57.7845380  23.9392860  36.0084280  58.8666780  23.2893320  35.1727180
  67.9650220  17.3644780  45.6745870  68.3331040  16.5439990  46.0025440
  67.1048420  17.4246670  46.0901520  71.3312250  16.3201720  36.4833430
  70.7025410  16.4247390  35.7691660  70.8364170  16.5398500  37.2727310
  65.7770390  28.0407310  33.9167410  65.8782370  27.8371300  32.9869390
  64.8772130  27.7865590  34.1215190  63.2996280  18.5987670  37.8991310
  62.5912430  19.0674010  38.3404920  63.5840760  17.9409680  38.5336500
  64.9252210  20.0184370  45.8983840  65.4237460  20.4930190  46.5635690
  65.0675160  19.0947890  46.1053870  67.3311710  15.3238330  39.3387100
  67.2079490  15.3424460  38.3896610  68.2796270  15.3717270  39.4585500
  64.4188500  30.5593630  38.6115080  64.6730000  30.5215020  37.6894450
  63.4700980  30.4326960  38.6043330  61.5031300  16.9072750  35.2742020
  62.3521830  17.3442900  35.2082210  61.1362570  17.2193010  36.1014080
  72.1319070  16.2352330  46.7412230  71.6292670  16.9757730  47.0806040
  72.9475730  16.6236330  46.4249020  70.4241080  21.4785510  40.1873590
  69.4831220  21.4935740  40.3621280  70.7385150  20.6921470  40.6333890
  60.4022720  23.1605110  33.7477550  61.1685990  23.0486470  34.3102980
  60.4797410  22.4643080  33.0954320  59.0969480  20.5930180  34.4310440
  59.1773070  19.6457690  34.5427840  59.9889230  20.9237060  34.5371100
  72.4266660  28.6494360  41.8627850  72.5514080  29.4725530  42.3351660
  73.2932220  28.4385090  41.5152000  59.8984190  30.7425570  41.5344980
  60.6346670  30.1941030  41.8053550  60.2825110  31.6081580  41.3950970
  56.7829670  26.8099140  37.4086490  55.8569450  27.0520280  37.3991900
  57.2486100  27.6373400  37.2871240  58.9042470  29.9271640  50.7230560
  59.7055200  30.2483690  51.1365960  58.3894290  29.5667220  51.4450470
  63.0086500  29.9155880  33.3570550  63.8015110  30.2044710  32.9052340
  62.4890850  29.4848050  32.6783030  67.7407100  26.0351510  50.6705970
  67.1345260  26.0583110  49.9301720  67.4361210  25.3034550  51.2073220
  69.1707470  29.7631800  49.2815380  70.1229220  29.6789820  49.2315620
  69.0235690  30.4273510  49.9549170  72.0616670  29.1426010  34.7807290
  71.7758180  28.7291150  33.9661470  71.8636220  30.0713720  34.6607810
  56.6240280  22.4145100  49.6666610  57.1279300  21.8352380  50.2382840
  55.8847700  22.6985330  50.2042980  63.5263900  25.1359290  33.2212900
  63.4214540  24.5211640  33.9474280  63.3588120  24.6125180  32.4375910
  63.6778220  23.8216090  49.2002130  62.9123890  24.3901090  49.1156800
  63.8594180  23.5292300  48.3070360  66.7666630  24.1979320  33.8254890
  66.2176730  24.6448620  34.4697630  67.3885890  23.6928570  34.3492560
  70.8201570  25.5521420  49.7577150  71.5611040  25.8897180  49.2544610
  70.0574250  25.7213480  49.2046920  58.6563360  20.5574690  50.5616680
  58.6968700  20.2588560  51.4701910  59.5108860  20.9582300  50.4024200
  62.4341750  23.1570240  35.7220190  62.8558170  22.9910110  36.5651580
  62.5592590  22.3470470  35.2275330  60.5969170  19.1366790  48.5291170
  60.0665630  18.6457740  47.9014510  61.2657240  19.5650990  47.9949100
  64.9469390  22.1807850  32.9697290  65.4675050  21.4656870  32.6038440
  65.5937790  22.8193720  33.2697800  69.4947230  23.6036250  48.2932360
  69.9088250  23.7581330  49.1422780  68.5598230  23.7291470  48.4558140
  69.9669400  20.9432410  50.2971510  70.5490170  20.1884730  50.2091990
  70.1431170  21.4739850  49.5202990  61.0841470  16.1029160  48.6088460
  60.9898340  15.4849910  47.8839330  60.5038860  16.8295450  48.3818370
  63.8502910  14.6602400  45.6415850  63.4020210  14.6826660  44.7961400
  63.2168110  14.2621420  46.2386150  64.2562460  23.5556730  46.2628290
  64.6750570  24.3989460  46.0904530  63.3371090  23.6928770  46.0335070
  66.5926360  21.2872910  47.6466130  66.7122570  20.6914050  48.3860970
  67.4520360  21.3242600  47.2267430  68.9314260  21.8410100  46.2228640
  68.4049480  22.3652720  45.6193780  69.2745600  22.4737490  46.8538370
  61.3300650  19.2303470  32.6678350  61.1289710  18.3670830  33.0291690
  61.1592700  19.1436830  31.7299950  62.1069880  29.8609740  47.3786020
  61.5690970  30.5855800  47.0594720  62.3603840  29.3840080  46.5883360
  63.3595130  17.8294260  48.9041950  63.9494820  17.5210110  49.5919770
  62.5415370  17.3574010  49.0601850  68.1788560  17.4460070  49.1374970
  67.4904080  16.7841610  49.0724960  68.8994580  16.9998340  49.5823430
  68.8088960  14.0411700  35.1965230  69.0891250  13.1979600  35.5524650
  68.0354690  14.2734810  35.7103980  60.1283450  16.3304090  32.6556230
  60.4309350  16.3371520  31.7475380  60.8678040  15.9801950  33.1523890
  64.9632090  31.0960950  47.6372670  64.8890790  31.9996090  47.9445040
  64.0610930  30.7772850  47.6094740  63.3468380  15.2738710  33.6412430
  62.9990380  14.5962700  33.0614880  63.5481150  14.8128220  34.4555820
  65.5117420  30.2619460  35.2599030  66.4068210  30.6004430  35.2817790
  65.5435050  29.5398870  34.6323310  59.1513580  25.6346510  33.4886030
  59.5888450  26.1776180  34.1443610  59.6361310  24.8093460  33.4982370
  56.3659380  28.4235540  40.9406290  56.6962390  27.5556600  40.7084930
  56.7950380  28.6294060  41.7711250  60.9621300  26.7544550  38.6008260
  60.6616840  26.6309520  39.5012170  60.8558790  25.8953140  38.1923990
  56.8549590  29.2906130  43.6787920  56.4180580  29.4706930  44.5112070
  57.4227270  30.0480750  43.5369640  72.4911770  28.7923130  47.9665230
  71.8913760  28.8515690  47.2229150  72.6205670  27.8528110  48.0962080
  73.7313220  26.5340950  33.3034940  72.9006180  26.6017600  33.7742170
  73.9085050  27.4245070  33.0001800  73.1869680  23.2788430  35.8069140
  73.9488590  23.8485080  35.9128830  73.2024050  22.7115630  36.5777450
  56.6874020  21.8026360  40.0376800  56.0322860  21.5338000  39.3936500
  57.5251970  21.6930840  39.5878780  74.1929650  24.1338530  40.6511070
  74.5638480  23.3505850  40.2447040  74.8331580  24.8227630  40.4728370
  71.1763410  25.5175110  46.0641390  70.3623250  25.9472270  46.3267180
  71.5837610  26.1293520  45.4510440  73.2388850  23.5722800  32.9641660
  73.5137690  24.4801680  32.8360880  73.0499590  23.5085330  33.9003650
  69.6364460  16.5967650  34.2595290  70.0549340  16.4098630  33.4191950
  69.3300520  15.7446700  34.5698220  73.1354190  21.5091790  37.9571090
  72.7597790  20.7419720  37.5252380  72.4057310  21.8914490  38.4446020
  57.7249950  22.1878930  44.5780140  58.0922990  22.1006330  45.4576160
  57.1560770  21.4245480  44.4787000  72.5253810  20.6563310  47.5910610
  72.2939900  20.4276060  46.6908560  72.7858360  21.5762860  47.5455500
  57.2765950  19.0988020  48.4838560  56.3822000  19.0654780  48.8232270
  57.8163500  19.2974810  49.2489810  70.9641880  15.8819740  50.3690310
  71.8412060  15.8903140  50.7524310  70.9762720  15.1450580  49.7582660
  55.9012100  19.0125290  35.9802130  54.9976180  19.2755490  35.8053790
  56.3852720  19.2836460  35.2002090  72.4105150  19.7349280  41.2578330
  72.9342630  19.2411930  40.6268500  72.9964570  19.8699640  42.0025900
  72.5894870  19.8189150  44.7797880  71.6397580  19.7852690  44.8942870
  72.7707880  20.7289260  44.5447650  58.4439310  18.0690830  33.8896510
  59.1531010  17.6474050  33.4043790  57.7279250  18.1366060  33.2579860
  58.0913470  14.1230160  32.9299160  58.8141600  14.6639100  33.2480380
  58.3637990  13.8493580  32.0540700  71.9005120  18.9922630  37.1970740
  72.3964240  18.7593500  37.9819620  71.7021190  18.1534470  36.7808380
  57.7805660  13.3736350  42.8321780  58.4281850  12.8233730  42.3916940
  58.2007500  13.6279500  43.6537590  73.3292280  17.6283580  39.7308420
  73.2191560  17.4739620  40.6690690  74.0899870  17.1004520  39.4883830
  71.6758000  13.5677710  46.1891420  72.3130220  14.1811850  46.5550610
  71.8232890  13.6038370  45.2440650  74.2182550  15.4591500  32.9714560
  75.1431860  15.3272680  32.7632850  74.1958340  15.5384320  33.9251010
  74.2921040  16.2302160  35.5971270  73.4972540  16.1647280  36.1264180
  74.4964320  17.1652800  35.5856620  71.2339460  30.2693710  39.5909660
  71.8298530  29.9478280  38.9144080  71.4917610  29.7965530  40.3822930
  57.5337660  13.5292020  45.5747100  57.1852480  13.9855840  46.3405280
  57.2025360  12.6349150  45.6569530  59.1402030  26.7011620  49.7400290
  59.0971660  26.3304530  50.6214750  59.2713040  27.6389190  49.8802110
  62.8408060  28.2571210  45.3410010  62.5999420  28.5245770  44.4540530
  63.7810700  28.4276940  45.3960870  65.0462480  14.7203900  49.0966520
  64.9851370  15.3125730  49.8461930  65.9862860  14.6129860  48.9516780
  67.6837040  14.3773960  48.7358810  68.2977450  14.6953250  48.0739890
  68.2286600  13.8922550  49.3554670  74.1012220  30.2765590  46.1420650
  73.6070500  30.6734460  45.4247780  73.4925510  29.6514800  46.5357930
  58.2058300  13.0568220  48.8497870  58.7541290  12.8756270  48.0863980
  58.2713610  12.2662330  49.3854180  58.9790060  29.6473870  46.8598070
  58.3850380  29.5158570  47.5988110  58.9713900  28.8112010  46.3940170
  68.4245080  12.9406100  45.0628100  67.5504920  13.2741210  44.8601030
  68.3155830  12.4679280  45.8879970  69.3317060  15.1476970  46.4469820
  69.0030420  14.3328730  46.0671550  70.2799360  15.1046780  46.3235510
  71.7851670  30.9189010  43.4207390  71.3254640  31.6704820  43.0465410
  71.1564130  30.1995480  43.3622190  58.6102290  27.0132250  45.8106110
  57.8836350  26.3937540  45.7432060  58.6711440  27.4072860  44.9404190
  62.2147390  29.2277250  42.5955520  62.7312410  28.6164610  42.0703780
  62.8644770  29.7306030  43.0866530  64.9542890  30.1185740  43.4224500
  65.2420700  29.8640040  42.5457510  65.4666110  29.5663100  44.0130070
  66.1719900  13.8575940  44.0021010  65.3891690  14.3321440  44.2817770
  65.8782830  12.9530770  43.8934190  70.7240970  14.5599040  42.0470100
  71.1649060  14.5044140  41.1991700  70.4548560  15.4757050  42.1180280
  72.5879540  14.1914280  40.0578920  72.5267940  13.2475500  39.9109940
  73.3671570  14.2994370  40.6032380  56.8932290  30.3306640  39.0202870
  56.7254330  29.6977320  39.7184760  56.0266800  30.5366040  38.6697060
  57.5160310  14.1623420  36.5234730  58.2739670  14.2752300  35.9498760
  57.0537480  14.9992620  36.4778160  64.0574120  16.2762690  39.5137040
  63.2448630  15.9019580  39.1732920  64.5615760  15.5207770  39.8158230
  68.5599100  12.9405140  40.7520110  69.1628470  13.5125350  41.2268630
  67.8192090  13.5044580  40.5294010  71.7033700  13.3426700  36.0260390
  71.8984330  14.2410150  36.2927820  70.9163570  13.1113780  36.5193340
  58.4994990  29.0239870  36.4653010  57.9742610  29.4047900  35.7614970
  58.4239570  29.6490640  37.1862720  59.8885460  14.6887470  35.0636700
  60.4178220  13.9017270  34.9344650  60.5213780  15.3678660  35.2972230
  62.0823300  14.4262610  38.1182090  61.4526040  13.7249920  38.2852220
  61.5428440  15.1866740  37.9015250  65.0215250  31.0401840  50.7892700
  65.9482560  30.8046110  50.8328660  65.0065680  31.8673840  50.3078730
  73.2560310  30.5827410  37.7866950  73.4312500  29.8965150  37.1427870
  72.5581880  31.1074460  37.3943620  62.2078860  13.7046590  50.5534580
  61.9263130  14.2080190  49.7895400  62.5898560  12.9068340  50.1876710
  61.0987960  30.9722250  35.3402260  61.8306780  30.6881530  34.7926150
  61.3581630  30.7335530  36.2301640  60.2602750  27.0886980  35.3448590
  59.6311630  27.5572080  35.8934420  60.3750580  26.2436200  35.7794780
  68.8094320  13.1200170  51.1315050  68.6959770  13.4394780  52.0266570
  69.6264060  13.5212680  50.8352330  71.5892810  30.2671700  50.6133740
  72.3818130  29.7720930  50.4059700  71.8825960  30.9461840  51.2209350
  67.7152470  21.1392640  21.4949790  67.6346520  20.2247250  21.2241500
  67.3016890  21.6359710  20.7889500  65.8470510  22.9171660  23.3759060
  65.0712610  22.4372100  23.6657630  66.4983440  22.2377310  23.2015220
  59.8636340  23.2291470  24.2534820  59.0321220  22.9740180  24.6531330
  60.4717320  23.3002240  24.9892740  69.8677940  27.3231850  22.1558190
  69.4059470  26.5519090  22.4845360  70.6803490  27.3497920  22.6610640
  59.8437600  27.2631560  24.4492840  60.1465640  26.3729300  24.2703060
  60.5881190  27.8201780  24.2215090  58.2728290  18.1893360  18.0377210
  57.3844990  18.5309330  17.9357090  58.5569480  17.9893680  17.1458040
  56.2361300  20.7899010  23.9216910  56.8077410  20.0221210  23.9220550
  56.2362840  21.0887770  23.0123520  66.0941250  29.6089860  21.7762180
  65.4752690  30.0647360  21.2056620  66.9493030  29.7641320  21.3751880
  65.2879500  25.5928850  23.3829220  65.2187780  24.6518790  23.2218350
  66.0499360  25.6830260  23.9551790  57.4786170  16.1983370  25.7085840
  57.2989010  15.3009120  25.9888600  57.0766250  16.7455240  26.3832790
  66.3184670  18.3999230  23.6098150  66.6949490  17.5271110  23.4971820
  66.2204180  18.7357930  22.7188590  60.4489680  16.7724860  19.0715590
  60.5556430  17.6728590  19.3784350  59.5382040  16.7242830  18.7810240
  70.1008790  15.8949670  20.5426490  70.9218410  15.4046240  20.5851970
  70.1342870  16.4847330  21.2958330  58.0972840  18.6943870  24.3168180
  58.7782950  18.9582240  24.9355580  57.7820890  17.8544740  24.6506190
  62.2897410  19.7411230  23.4040770  62.7975630  20.2392200  24.0445790
  62.8210650  18.9646430  23.2280130  74.3908340  17.9116420  27.1070120
  73.6860510  18.2998130  26.5885230  74.6566260  18.6066710  27.7091050
  60.5733510  14.3809790  27.6704190  60.5751950  14.8982180  26.8650090
  59.7437820  13.9039970  27.6474120  66.9604600  24.4929100  19.1694090
  66.3421870  24.9578550  18.6056810  67.4727850  25.1856580  19.5863600
  61.8236360  24.0204970  25.8477690  61.4905740  24.6473890  26.4898760
  62.0003040  24.5466850  25.0679360  70.3370270  17.8350050  23.3154030
  69.6325840  18.1234940  23.8957140  70.6982430  18.6450160  22.9553590
  60.2548840  16.0919750  25.6774640  60.5965650  16.9361800  25.3828510
  59.3164650  16.2403490  25.7939980  61.0355460  25.9885770  27.6626870
  61.6529460  26.6636850  27.3811320  60.1748580  26.3973750  27.5714370
  56.3287800  25.1785630  16.5433720  55.9515780  25.6672730  15.8118620
  56.5860870  25.8510910  17.1740250  71.9533050  27.4525180  25.5781510
  71.2696570  28.1224290  25.5698180  72.4927340  27.6505830  24.8126370
  73.4057190  17.2804840  23.7063240  72.4582100  17.3143820  23.8378670
  73.7307180  18.0943790  24.0912600  63.9376730  13.5802020  22.0019230
  64.2451710  13.0248910  21.2854730  63.0077430  13.7146480  21.8192220
  69.4891790  29.2969310  24.2926690  69.5018950  28.8931600  23.4248950
  68.9367010  30.0716600  24.1888120  70.7837210  26.0185530  19.3816860
  70.6733540  25.0759860  19.5066280  70.7805460  26.3801170  20.2679620
  68.8877230  24.1999150  25.6209300  69.3046020  23.9859260  24.7862760
  69.6117050  24.4571940  26.1917920  66.3257490  21.6450850  18.7379350
  65.3986770  21.5788230  18.9667820  66.4782310  22.5830980  18.6234590
  66.3126570  17.9167850  15.7346510  65.3730240  18.0781810  15.8198970
  66.6309830  18.6353530  15.1882500  72.8339330  22.5986370  25.7125540
  72.0057960  22.6679460  25.2375670  73.4289810  23.1840680  25.2441370
  70.3554780  23.2071150  19.2414600  69.7367200  22.8690700  18.5940900
  70.3379230  22.5630910  19.9493790  69.7981340  19.3855690  26.6580410
  69.3852520  20.2109400  26.9120400  69.0657290  18.8000730  26.4656770
  61.9314130  22.1715590  21.5199080  61.5271130  21.4592840  21.0244980
  62.0177250  21.8268830  22.4087120  62.3995830  25.8583150  23.6838290
  62.1024120  25.2528620  23.0046070  63.3495650  25.8960460  23.5727650
  60.6442750  18.9458800  25.2998120  61.1957340  19.0554140  24.5251370
  61.1586260  19.3196400  26.0153350  70.4881440  29.4315020  27.3461390
  70.0112000  30.2387210  27.1534000  69.8043230  28.7793350  27.4987600
  61.4914260  25.5964840  30.3346090  60.5942790  25.8204810  30.5819490
  61.5167130  25.7199780  29.3857490  68.5319480  22.4457960  16.2487350
  68.9712760  21.6080390  16.1025170  69.2447900  23.0787360  16.3351490
  60.3185480  22.4678160  28.9103460  60.1793250  23.3400960  29.2790860
  59.4366840  22.1250970  28.7651400  66.6414860  27.3854030  20.2168590
  67.0810770  28.1278360  19.8023980  66.5801750  27.6280600  21.1407550
  62.1165830  28.4099860  31.1188610  62.0881260  28.8142810  30.2517040
  61.9530800  27.4810220  30.9560210  72.1136620  13.7000770  14.5628390
  71.8009280  13.7927600  15.4627460  72.8749090  14.2781800  14.5125820
  58.6318760  21.0660570  19.0205730  58.5116360  21.7922660  18.4087000
  58.3219650  20.2963480  18.5433640  74.0680650  29.1926960  32.4152780
  74.5440370  29.6709850  33.0941860  74.6887810  29.1244450  31.6898280
  56.2704130  24.2375710  24.8274370  56.3484550  24.3724480  23.8830090
  56.8845810  23.5291600  25.0202490  57.5151760  25.9375900  21.2380550
  57.1079840  26.0790490  20.3834150  58.4064770  25.6536060  21.0351760
  73.4713900  26.3839810  29.5752790  73.5976960  26.1451690  28.6569970
  73.5135280  25.5524350  30.0474870  67.3330640  30.0867810  28.1447600
  67.8475310  29.9975820  28.9470030  66.4899720  30.4327510  28.4375510
  69.3085040  30.3723150  17.5731600  69.1486180  30.0826090  18.4713430
  69.1431750  29.5963280  17.0376830  61.7873420  30.1521680  19.3503220
  61.6115900  29.2357220  19.1371020  60.9329160  30.5108970  19.5901020
  69.0111170  27.8810710  16.1329600  68.3176330  27.8788000  15.4731880
  69.7534030  27.4570030  15.7023770  68.5761100  29.5073420  20.2078090
  69.0318050  28.7262800  20.5216710  68.9153620  30.2180240  20.7519270
  73.3237910  18.4372270  30.5402530  72.7082180  18.9451940  30.0117990
  73.0034330  17.5370600  30.4828470  56.3263650  25.2789880  27.3668830
  56.4894690  24.8095240  26.5488200  56.7916100  24.7713440  28.0317670
  61.0982420  14.4095640  22.4029400  60.6550570  15.1905180  22.0713920
  61.6567410  14.7325530  23.1100340  65.3852230  17.2764160  28.0064720
  64.9231600  17.4847180  28.8184660  64.9830340  16.4623510  27.7035390
  70.3856740  18.4973110  29.1361380  69.5350330  18.1978860  29.4570450
  70.2258530  18.7415120  28.2245200  67.4806450  19.9974860  31.2360170
  67.8059860  19.1638610  30.8962400  68.2686780  20.5203380  31.3838500
  64.2141240  14.0306340  17.2835230  63.5895420  14.0266210  18.0088540
  64.1271360  13.1637300  16.8871200  63.1358320  14.9542970  24.2619000
  63.4330650  15.8605800  24.1811020  63.6843880  14.4661750  23.6478570
  60.8896640  19.5329210  20.1310650  60.6637560  19.3166380  21.0357270
  60.1089170  19.9657670  19.7856620  68.1194400  19.5392580  18.7301300
  67.5203290  20.2628380  18.5464920  68.6674010  19.4769360  17.9477750
  63.3295850  20.4314790  30.7970920  63.2339450  19.4909520  30.6471320
  64.1727830  20.6529860  30.4018990  66.7259270  18.1756120  20.7604580
  67.1188840  18.4928320  19.9473270  67.0876120  17.2968000  20.8749100
  58.4606390  16.8428460  28.9504700  58.0669780  17.6903670  29.1577480
  57.7724790  16.2054830  29.1413340  65.0351440  16.9263430  32.0201440
  64.3449760  16.7335630  32.6547530  65.7783740  17.2098070  32.5525740
  55.7623440  14.7656920  22.9834780  55.4736490  15.3359780  23.6959760
  56.5069200  14.2861370  23.3466010  55.9493670  18.7077040  14.1937500
  55.8668340  19.6507800  14.3352490  55.5976730  18.5651950  13.3149850
  67.3114410  20.7661870  24.8555360  66.5795530  21.2748680  25.2045460
  66.9138750  19.9491850  24.5544140  63.7491800  17.4416070  23.2607850
  63.7527860  17.0006020  22.4112390  64.6442920  17.7633400  23.3679670
  59.5994180  17.3242560  22.2202060  59.2594230  17.8017790  22.9769110
  58.8371500  16.8707680  21.8603160  63.8111950  18.4428150  16.2514610
  63.9324770  18.4014630  17.2000430  63.4260460  19.3052300  16.0961340
  67.7740320  16.2195550  24.2678300  67.7913060  16.6704200  25.1120150
  67.5255900  15.3201190  24.4811740  62.8233450  20.7529290  15.6497910
  62.2550350  20.3047540  15.0233820  63.5322450  21.1122070  15.1163060
  71.2011070  13.6327730  30.1064680  71.5256840  12.9017390  30.6322660
  71.2367580  13.3141370  29.2045670  57.9002630  24.6541310  29.5264640
  57.5157420  24.0134980  30.1247600  58.2114820  25.3577430  30.0959370
  64.0499770  21.5017850  25.0073260  64.4169900  21.0276420  25.7534600
  63.8604830  22.3759420  25.3481600  56.9140260  16.2461540  21.1366730
  56.6287180  15.8817210  21.9745350  56.8519120  15.5142000  20.5229870
  61.8399140  20.5426490  27.3257470  61.5356210  21.4218470  27.5507830
  62.7945600  20.6026280  27.3614910  60.3680930  24.7487480  17.9224320
  59.5943190  24.2085100  17.7623040  61.0975560  24.2294090  17.5842080
  71.1268910  23.7452840  23.7150710  71.8468030  24.2408130  23.3246820
  70.9250730  23.0670730  23.0704580  66.5878850  15.1390800  17.8580100
  65.7743460  14.6403970  17.7825410  66.3940800  15.9789050  17.4416450
  66.5087710  23.8161900  29.6019710  66.4425020  22.8957570  29.3477300
  65.8792850  23.9137340  30.3164350  69.3027240  19.5110450  16.1542260
  70.1906860  19.8227680  15.9793600  69.2732330  18.6382700  15.7622840
  60.4118330  24.4167860  21.5603130  60.9297000  23.6136120  21.5060020
  59.9602350  24.3547000  22.4019960  65.2987830  25.6834140  16.8330430
  65.6403530  26.4276370  16.3373750  64.4700540  25.9965260  17.1955260
  57.8962870  21.3829230  28.4728830  57.5377810  22.0483080  29.0602170
  57.6017430  20.5512780  28.8441450  61.0975990  21.8413470  31.3568380
  60.7976130  21.9870650  30.4596200  61.8687230  21.2818760  31.2641770
  66.4404440  26.6382470  29.3523510  66.4548980  25.7063430  29.1342420
  65.7329540  26.7242230  29.9913280  71.5741510  20.8222290  15.6222120
  71.4905230  21.2536510  14.7718560  72.2935700  21.2820640  16.0548940
  72.6515650  23.2789810  28.6992090  71.9263840  23.8718590  28.5021480
  73.1791110  23.2713350  27.9005460  72.6028760  27.6764550  18.3504250
  71.9604920  27.0220170  18.6247970  72.2159420  28.0819640  17.5744920
  68.1815240  25.0049980  22.1975940  68.5339060  24.4078110  21.5377310
  67.2977570  24.6794210  22.3684190  64.2678520  25.7647670  19.6046350
  64.9549650  26.3116880  19.9853940  63.4810940  26.3088400  19.6395960
  56.4070920  21.3820490  15.0963430  57.2765770  21.6645290  15.3799350
  55.9161240  22.1956360  14.9812240  63.5705730  22.7693700  19.2171710
  64.0268510  23.5798950  19.4431900  63.2193940  22.4516840  20.0490200
  65.8738340  28.2800040  26.4464010  66.5180560  28.4859420  27.1237430
  66.2367780  27.5188440  25.9934860  59.4717510  13.1131350  19.6894230
  59.3432140  13.1049250  20.6379150  58.6479530  13.4514440  19.3385240
  67.1470420  26.2832390  25.1641460  67.7892650  25.5825550  25.2773630
  67.6719770  27.0630830  24.9838350  70.9926140  26.5681010  14.8880600
  70.7663720  25.8511450  15.4805240  70.6022340  26.3193450  14.0502350
  68.9208040  27.0827290  28.3677520  69.2564280  27.6693980  29.0455440
  68.0008380  26.9520000  28.5975310  56.7742170  30.5947870  15.6625060
  57.1339810  31.1937210  15.0082330  56.6334510  31.1407760  16.4360090
  56.4711440  14.8722470  29.1500930  55.7569960  15.0719390  29.7553540
  56.8906480  14.0962040  29.5215730  70.5742390  24.4852950  16.5494760
  70.2864090  24.9465640  17.3372640  71.3694560  24.0250720  16.8178980
  56.7584030  28.8602730  30.1367460  56.8675150  27.9197470  29.9962850
  56.1064590  29.1257480  29.4881190  64.7496620  27.1318620  31.5365580
  64.4293490  26.4127860  32.0811270  64.0754980  27.8073690  31.6101640
  62.7910790  27.9779070  16.4798730  62.7820890  28.7108760  15.8643240
  61.8709150  27.7310650  16.5725690  58.3917430  23.1993960  17.2245490
  57.7845380  23.9392860  17.2340790  58.8666780  23.2893320  16.3983690
  67.9650220  17.3644780  26.9002380  68.3331040  16.5439990  27.2281950
  67.1048420  17.4246670  27.3158030  71.3312250  16.3201720  17.7089940
  70.7025410  16.4247390  16.9948170  70.8364170  16.5398500  18.4983820
  65.7770390  28.0407310  15.1423920  65.8782370  27.8371300  14.2125900
  64.8772130  27.7865590  15.3471700  63.2996280  18.5987670  19.1247820
  62.5912430  19.0674010  19.5661430  63.5840760  17.9409680  19.7593010
  64.9252210  20.0184370  27.1240350  65.4237460  20.4930190  27.7892200
  65.0675160  19.0947890  27.3310380  67.3311710  15.3238330  20.5643610
  67.2079490  15.3424460  19.6153120  68.2796270  15.3717270  20.6842010
  64.4188500  30.5593630  19.8371590  64.6730000  30.5215020  18.9150960
  63.4700980  30.4326960  19.8299840  61.5031300  16.9072750  16.4998530
  62.3521830  17.3442900  16.4338720  61.1362570  17.2193010  17.3270590
  72.1319070  16.2352330  27.9668740  71.6292670  16.9757730  28.3062550
  72.9475730  16.6236330  27.6505530  70.4241080  21.4785510  21.4130100
  69.4831220  21.4935740  21.5877790  70.7385150  20.6921470  21.8590400
  60.4022720  23.1605110  14.9734060  61.1685990  23.0486470  15.5359490
  60.4797410  22.4643080  14.3210830  59.0969480  20.5930180  15.6566950
  59.1773070  19.6457690  15.7684350  59.9889230  20.9237060  15.7627610
  72.4266660  28.6494360  23.0884360  72.5514080  29.4725530  23.5608170
  73.2932220  28.4385090  22.7408510  59.8984190  30.7425570  22.7601490
  60.6346670  30.1941030  23.0310060  60.2825110  31.6081580  22.6207480
  56.7829670  26.8099140  18.6343000  55.8569450  27.0520280  18.6248410
  57.2486100  27.6373400  18.5127750  58.9042470  29.9271640  31.9487070
  59.7055200  30.2483690  32.3622470  58.3894290  29.5667220  32.6706980
  63.0086500  29.9155880  14.5827060  63.8015110  30.2044710  14.1308850
  62.4890850  29.4848050  13.9039540  67.7407100  26.0351510  31.8962480
  67.1345260  26.0583110  31.1558230  67.4361210  25.3034550  32.4329730
  69.1707470  29.7631800  30.5071890  70.1229220  29.6789820  30.4572130
  69.0235690  30.4273510  31.1805680  72.0616670  29.1426010  16.0063800
  71.7758180  28.7291150  15.1917980  71.8636220  30.0713720  15.8864320
  56.6240280  22.4145100  30.8923120  57.1279300  21.8352380  31.4639350
  55.8847700  22.6985330  31.4299490  63.5263900  25.1359290  14.4469410
  63.4214540  24.5211640  15.1730790  63.3588120  24.6125180  13.6632420
  63.6778220  23.8216090  30.4258640  62.9123890  24.3901090  30.3413310
  63.8594180  23.5292300  29.5326870  66.7666630  24.1979320  15.0511400
  66.2176730  24.6448620  15.6954140  67.3885890  23.6928570  15.5749070
  70.8201570  25.5521420  30.9833660  71.5611040  25.8897180  30.4801120
  70.0574250  25.7213480  30.4303430  58.6563360  20.5574690  31.7873190
  58.6968700  20.2588560  32.6958420  59.5108860  20.9582300  31.6280710
  62.4341750  23.1570240  16.9476700  62.8558170  22.9910110  17.7908090
  62.5592590  22.3470470  16.4531840  60.5969170  19.1366790  29.7547680
  60.0665630  18.6457740  29.1271020  61.2657240  19.5650990  29.2205610
  64.9469390  22.1807850  14.1953800  65.4675050  21.4656870  13.8294950
  65.5937790  22.8193720  14.4954310  69.4947230  23.6036250  29.5188870
  69.9088250  23.7581330  30.3679290  68.5598230  23.7291470  29.6814650
  69.9669400  20.9432410  31.5228020  70.5490170  20.1884730  31.4348500
  70.1431170  21.4739850  30.7459500  61.0841470  16.1029160  29.8344970
  60.9898340  15.4849910  29.1095840  60.5038860  16.8295450  29.6074880
  63.8502910  14.6602400  26.8672360  63.4020210  14.6826660  26.0217910
  63.2168110  14.2621420  27.4642660  64.2562460  23.5556730  27.4884800
  64.6750570  24.3989460  27.3161040  63.3371090  23.6928770  27.2591580
  66.5926360  21.2872910  28.8722640  66.7122570  20.6914050  29.6117480
  67.4520360  21.3242600  28.4523940  68.9314260  21.8410100  27.4485150
  68.4049480  22.3652720  26.8450290  69.2745600  22.4737490  28.0794880
  61.3300650  19.2303470  13.8934860  61.1289710  18.3670830  14.2548200
  61.1592700  19.1436830  12.9556460  62.1069880  29.8609740  28.6042530
  61.5690970  30.5855800  28.2851230  62.3603840  29.3840080  27.8139870
  63.3595130  17.8294260  30.1298460  63.9494820  17.5210110  30.8176280
  62.5415370  17.3574010  30.2858360  68.1788560  17.4460070  30.3631480
  67.4904080  16.7841610  30.2981470  68.8994580  16.9998340  30.8079940
  68.8088960  14.0411700  16.4221740  69.0891250  13.1979600  16.7781160
  68.0354690  14.2734810  16.9360490  60.1283450  16.3304090  13.8812740
  60.4309350  16.3371520  12.9731890  60.8678040  15.9801950  14.3780400
  64.9632090  31.0960950  28.8629180  64.8890790  31.9996090  29.1701550
  64.0610930  30.7772850  28.8351250  63.3468380  15.2738710  14.8668940
  62.9990380  14.5962700  14.2871390  63.5481150  14.8128220  15.6812330
  65.5117420  30.2619460  16.4855540  66.4068210  30.6004430  16.5074300
  65.5435050  29.5398870  15.8579820  59.1513580  25.6346510  14.7142540
  59.5888450  26.1776180  15.3700120  59.6361310  24.8093460  14.7238880
  56.3659380  28.4235540  22.1662800  56.6962390  27.5556600  21.9341440
  56.7950380  28.6294060  22.9967760  60.9621300  26.7544550  19.8264770
  60.6616840  26.6309520  20.7268680  60.8558790  25.8953140  19.4180500
  56.8549590  29.2906130  24.9044430  56.4180580  29.4706930  25.7368580
  57.4227270  30.0480750  24.7626150  72.4911770  28.7923130  29.1921740
  71.8913760  28.8515690  28.4485660  72.6205670  27.8528110  29.3218590
  73.7313220  26.5340950  14.5291450  72.9006180  26.6017600  14.9998680
  73.9085050  27.4245070  14.2258310  73.1869680  23.2788430  17.0325650
  73.9488590  23.8485080  17.1385340  73.2024050  22.7115630  17.8033960
  56.6874020  21.8026360  21.2633310  56.0322860  21.5338000  20.6193010
  57.5251970  21.6930840  20.8135290  74.1929650  24.1338530  21.8767580
  74.5638480  23.3505850  21.4703550  74.8331580  24.8227630  21.6984880
  71.1763410  25.5175110  27.2897900  70.3623250  25.9472270  27.5523690
  71.5837610  26.1293520  26.6766950  73.2388850  23.5722800  14.1898170
  73.5137690  24.4801680  14.0617390  73.0499590  23.5085330  15.1260160
  69.6364460  16.5967650  15.4851800  70.0549340  16.4098630  14.6448460
  69.3300520  15.7446700  15.7954730  73.1354190  21.5091790  19.1827600
  72.7597790  20.7419720  18.7508890  72.4057310  21.8914490  19.6702530
  57.7249950  22.1878930  25.8036650  58.0922990  22.1006330  26.6832670
  57.1560770  21.4245480  25.7043510  72.5253810  20.6563310  28.8167120
  72.2939900  20.4276060  27.9165070  72.7858360  21.5762860  28.7712010
  57.2765950  19.0988020  29.7095070  56.3822000  19.0654780  30.0488780
  57.8163500  19.2974810  30.4746320  70.9641880  15.8819740  31.5946820
  71.8412060  15.8903140  31.9780820  70.9762720  15.1450580  30.9839170
  55.9012100  19.0125290  17.2058640  54.9976180  19.2755490  17.0310300
  56.3852720  19.2836460  16.4258600  72.4105150  19.7349280  22.4834840
  72.9342630  19.2411930  21.8525010  72.9964570  19.8699640  23.2282410
  72.5894870  19.8189150  26.0054390  71.6397580  19.7852690  26.1199380
  72.7707880  20.7289260  25.7704160  58.4439310  18.0690830  15.1153020
  59.1531010  17.6474050  14.6300300  57.7279250  18.1366060  14.4836370
  58.0913470  14.1230160  14.1555670  58.8141600  14.6639100  14.4736890
  58.3637990  13.8493580  13.2797210  71.9005120  18.9922630  18.4227250
  72.3964240  18.7593500  19.2076130  71.7021190  18.1534470  18.0064890
  57.7805660  13.3736350  24.0578290  58.4281850  12.8233730  23.6173450
  58.2007500  13.6279500  24.8794100  73.3292280  17.6283580  20.9564930
  73.2191560  17.4739620  21.8947200  74.0899870  17.1004520  20.7140340
  71.6758000  13.5677710  27.4147930  72.3130220  14.1811850  27.7807120
  71.8232890  13.6038370  26.4697160  74.2182550  15.4591500  14.1971070
  75.1431860  15.3272680  13.9889360  74.1958340  15.5384320  15.1507520
  74.2921040  16.2302160  16.8227780  73.4972540  16.1647280  17.3520690
  74.4964320  17.1652800  16.8113130  71.2339460  30.2693710  20.8166170
  71.8298530  29.9478280  20.1400590  71.4917610  29.7965530  21.6079440
  57.5337660  13.5292020  26.8003610  57.1852480  13.9855840  27.5661790
  57.2025360  12.6349150  26.8826040  59.1402030  26.7011620  30.9656800
  59.0971660  26.3304530  31.8471260  59.2713040  27.6389190  31.1058620
  62.8408060  28.2571210  26.5666520  62.5999420  28.5245770  25.6797040
  63.7810700  28.4276940  26.6217380  65.0462480  14.7203900  30.3223030
  64.9851370  15.3125730  31.0718440  65.9862860  14.6129860  30.1773290
  67.6837040  14.3773960  29.9615320  68.2977450  14.6953250  29.2996400
  68.2286600  13.8922550  30.5811180  74.1012220  30.2765590  27.3677160
  73.6070500  30.6734460  26.6504290  73.4925510  29.6514800  27.7614440
  58.2058300  13.0568220  30.0754380  58.7541290  12.8756270  29.3120490
  58.2713610  12.2662330  30.6110690  58.9790060  29.6473870  28.0854580
  58.3850380  29.5158570  28.8244620  58.9713900  28.8112010  27.6196680
  68.4245080  12.9406100  26.2884610  67.5504920  13.2741210  26.0857540
  68.3155830  12.4679280  27.1136480  69.3317060  15.1476970  27.6726330
  69.0030420  14.3328730  27.2928060  70.2799360  15.1046780  27.5492020
  71.7851670  30.9189010  24.6463900  71.3254640  31.6704820  24.2721920
  71.1564130  30.1995480  24.5878700  58.6102290  27.0132250  27.0362620
  57.8836350  26.3937540  26.9688570  58.6711440  27.4072860  26.1660700
  62.2147390  29.2277250  23.8212030  62.7312410  28.6164610  23.2960290
  62.8644770  29.7306030  24.3123040  64.9542890  30.1185740  24.6481010
  65.2420700  29.8640040  23.7714020  65.4666110  29.5663100  25.2386580
  66.1719900  13.8575940  25.2277520  65.3891690  14.3321440  25.5074280
  65.8782830  12.9530770  25.1190700  70.7240970  14.5599040  23.2726610
  71.1649060  14.5044140  22.4248210  70.4548560  15.4757050  23.3436790
  72.5879540  14.1914280  21.2835430  72.5267940  13.2475500  21.1366450
  73.3671570  14.2994370  21.8288890  56.8932290  30.3306640  20.2459380
  56.7254330  29.6977320  20.9441270  56.0266800  30.5366040  19.8953570
  57.5160310  14.1623420  17.7491240  58.2739670  14.2752300  17.1755270
  57.0537480  14.9992620  17.7034670  64.0574120  16.2762690  20.7393550
  63.2448630  15.9019580  20.3989430  64.5615760  15.5207770  21.0414740
  68.5599100  12.9405140  21.9776620  69.1628470  13.5125350  22.4525140
  67.8192090  13.5044580  21.7550520  71.7033700  13.3426700  17.2516900
  71.8984330  14.2410150  17.5184330  70.9163570  13.1113780  17.7449850
  58.4994990  29.0239870  17.6909520  57.9742610  29.4047900  16.9871480
  58.4239570  29.6490640  18.4119230  59.8885460  14.6887470  16.2893210
  60.4178220  13.9017270  16.1601160  60.5213780  15.3678660  16.5228740
  62.0823300  14.4262610  19.3438600  61.4526040  13.7249920  19.5108730
  61.5428440  15.1866740  19.1271760  65.0215250  31.0401840  32.0149210
  65.9482560  30.8046110  32.0585170  65.0065680  31.8673840  31.5335240
  73.2560310  30.5827410  19.0123460  73.4312500  29.8965150  18.3684380
  72.5581880  31.1074460  18.6200130  62.2078860  13.7046590  31.7791090
  61.9263130  14.2080190  31.0151910  62.5898560  12.9068340  31.4133220
  61.0987960  30.9722250  16.5658770  61.8306780  30.6881530  16.0182660
  61.3581630  30.7335530  17.4558150  60.2602750  27.0886980  16.5705100
  59.6311630  27.5572080  17.1190930  60.3750580  26.2436200  17.0051290
  68.8094320  13.1200170  32.3571560  68.6959770  13.4394780  33.2523080
  69.6264060  13.5212680  32.0608840  71.5892810  30.2671700  31.8390250
  72.3818130  29.7720930  31.6316210  71.8825960  30.9461840  32.4465860
  67.7152470  21.1392640   2.7206300  67.6346520  20.2247250   2.4498010
  67.3016890  21.6359710   2.0146010  65.8470510  22.9171660   4.6015570
  65.0712610  22.4372100   4.8914140  66.4983440  22.2377310   4.4271730
  59.8636340  23.2291470   5.4791330  59.0321220  22.9740180   5.8787840
  60.4717320  23.3002240   6.2149250  69.8677940  27.3231850   3.3814700
  69.4059470  26.5519090   3.7101870  70.6803490  27.3497920   3.8867150
  59.8437600  27.2631560   5.6749350  60.1465640  26.3729300   5.4959570
  60.5881190  27.8201780   5.4471600  56.2361300  20.7899010   5.1473420
  56.8077410  20.0221210   5.1477060  56.2362840  21.0887770   4.2380030
  66.0941250  29.6089860   3.0018690  65.4752690  30.0647360   2.4313130
  66.9493030  29.7641320   2.6008390  65.2879500  25.5928850   4.6085730
  65.2187780  24.6518790   4.4474860  66.0499360  25.6830260   5.1808300
  57.4786170  16.1983370   6.9342350  57.2989010  15.3009120   7.2145110
  57.0766250  16.7455240   7.6089300  66.3184670  18.3999230   4.8354660
  66.6949490  17.5271110   4.7228330  66.2204180  18.7357930   3.9445100
  70.1008790  15.8949670   1.7683000  70.9218410  15.4046240   1.8108480
  70.1342870  16.4847330   2.5214840  58.0972840  18.6943870   5.5424690
  58.7782950  18.9582240   6.1612090  57.7820890  17.8544740   5.8762700
  62.2897410  19.7411230   4.6297280  62.7975630  20.2392200   5.2702300
  62.8210650  18.9646430   4.4536640  74.3908340  17.9116420   8.3326630
  73.6860510  18.2998130   7.8141740  74.6566260  18.6066710   8.9347560
  60.5733510  14.3809790   8.8960700  60.5751950  14.8982180   8.0906600
  59.7437820  13.9039970   8.8730630  61.8236360  24.0204970   7.0734200
  61.4905740  24.6473890   7.7155270  62.0003040  24.5466850   6.2935870
  70.3370270  17.8350050   4.5410540  69.6325840  18.1234940   5.1213650
  70.6982430  18.6450160   4.1810100  60.2548840  16.0919750   6.9031150
  60.5965650  16.9361800   6.6085020  59.3164650  16.2403490   7.0196490
  61.0355460  25.9885770   8.8883380  61.6529460  26.6636850   8.6067830
  60.1748580  26.3973750   8.7970880  71.9533050  27.4525180   6.8038020
  71.2696570  28.1224290   6.7954690  72.4927340  27.6505830   6.0382880
  73.4057190  17.2804840   4.9319750  72.4582100  17.3143820   5.0635180
  73.7307180  18.0943790   5.3169110  63.9376730  13.5802020   3.2275740
  64.2451710  13.0248910   2.5111240  63.0077430  13.7146480   3.0448730
  69.4891790  29.2969310   5.5183200  69.5018950  28.8931600   4.6505460
  68.9367010  30.0716600   5.4144630  68.8877230  24.1999150   6.8465810
  69.3046020  23.9859260   6.0119270  69.6117050  24.4571940   7.4174430
  72.8339330  22.5986370   6.9382050  72.0057960  22.6679460   6.4632180
  73.4289810  23.1840680   6.4697880  69.7981340  19.3855690   7.8836920
  69.3852520  20.2109400   8.1376910  69.0657290  18.8000730   7.6913280
  61.9314130  22.1715590   2.7455590  61.5271130  21.4592840   2.2501490
  62.0177250  21.8268830   3.6343630  62.3995830  25.8583150   4.9094800
  62.1024120  25.2528620   4.2302580  63.3495650  25.8960460   4.7984160
  60.6442750  18.9458800   6.5254630  61.1957340  19.0554140   5.7507880
  61.1586260  19.3196400   7.2409860  70.4881440  29.4315020   8.5717900
  70.0112000  30.2387210   8.3790510  69.8043230  28.7793350   8.7244110
  61.4914260  25.5964840  11.5602600  60.5942790  25.8204810  11.8076000
  61.5167130  25.7199780  10.6114000  60.3185480  22.4678160  10.1359970
  60.1793250  23.3400960  10.5047370  59.4366840  22.1250970   9.9907910
  62.1165830  28.4099860  12.3445120  62.0881260  28.8142810  11.4773550
  61.9530800  27.4810220  12.1816720  74.0680650  29.1926960  13.6409290
  74.5440370  29.6709850  14.3198370  74.6887810  29.1244450  12.9154790
  56.2704130  24.2375710   6.0530880  56.3484550  24.3724480   5.1086600
  56.8845810  23.5291600   6.2459000  57.5151760  25.9375900   2.4637060
  57.1079840  26.0790490   1.6090660  58.4064770  25.6536060   2.2608270
  73.4713900  26.3839810  10.8009300  73.5976960  26.1451690   9.8826480
  73.5135280  25.5524350  11.2731380  67.3330640  30.0867810   9.3704110
  67.8475310  29.9975820  10.1726540  66.4899720  30.4327510   9.6632020
  73.3237910  18.4372270  11.7659040  72.7082180  18.9451940  11.2374500
  73.0034330  17.5370600  11.7084980  56.3263650  25.2789880   8.5925340
  56.4894690  24.8095240   7.7744710  56.7916100  24.7713440   9.2574180
  61.0982420  14.4095640   3.6285910  60.6550570  15.1905180   3.2970430
  61.6567410  14.7325530   4.3356850  65.3852230  17.2764160   9.2321230
  64.9231600  17.4847180  10.0441170  64.9830340  16.4623510   8.9291900
  70.3856740  18.4973110  10.3617890  69.5350330  18.1978860  10.6826960
  70.2258530  18.7415120   9.4501710  67.4806450  19.9974860  12.4616680
  67.8059860  19.1638610  12.1218910  68.2686780  20.5203380  12.6095010
  63.1358320  14.9542970   5.4875510  63.4330650  15.8605800   5.4067530
  63.6843880  14.4661750   4.8735080  63.3295850  20.4314790  12.0227430
  63.2339450  19.4909520  11.8727830  64.1727830  20.6529860  11.6275500
  58.4606390  16.8428460  10.1761210  58.0669780  17.6903670  10.3833990
  57.7724790  16.2054830  10.3669850  65.0351440  16.9263430  13.2457950
  64.3449760  16.7335630  13.8804040  65.7783740  17.2098070  13.7782250
  55.7623440  14.7656920   4.2091290  55.4736490  15.3359780   4.9216270
  56.5069200  14.2861370   4.5722520  67.3114410  20.7661870   6.0811870
  66.5795530  21.2748680   6.4301970  66.9138750  19.9491850   5.7800650
  63.7491800  17.4416070   4.4864360  63.7527860  17.0006020   3.6368900
  64.6442920  17.7633400   4.5936180  59.5994180  17.3242560   3.4458570
  59.2594230  17.8017790   4.2025620  58.8371500  16.8707680   3.0859670
  67.7740320  16.2195550   5.4934810  67.7913060  16.6704200   6.3376660
  67.5255900  15.3201190   5.7068250  71.2011070  13.6327730  11.3321190
  71.5256840  12.9017390  11.8579170  71.2367580  13.3141370  10.4302180
  57.9002630  24.6541310  10.7521150  57.5157420  24.0134980  11.3504110
  58.2114820  25.3577430  11.3215880  64.0499770  21.5017850   6.2329770
  64.4169900  21.0276420   6.9791110  63.8604830  22.3759420   6.5738110
  56.9140260  16.2461540   2.3623240  56.6287180  15.8817210   3.2001860
  56.8519120  15.5142000   1.7486380  61.8399140  20.5426490   8.5513980
  61.5356210  21.4218470   8.7764340  62.7945600  20.6026280   8.5871420
  71.1268910  23.7452840   4.9407220  71.8468030  24.2408130   4.5503330
  70.9250730  23.0670730   4.2961090  66.5087710  23.8161900  10.8276220
  66.4425020  22.8957570  10.5733810  65.8792850  23.9137340  11.5420860
  60.4118330  24.4167860   2.7859640  60.9297000  23.6136120   2.7316530
  59.9602350  24.3547000   3.6276470  57.8962870  21.3829230   9.6985340
  57.5377810  22.0483080  10.2858680  57.6017430  20.5512780  10.0697960
  61.0975990  21.8413470  12.5824890  60.7976130  21.9870650  11.6852710
  61.8687230  21.2818760  12.4898280  66.4404440  26.6382470  10.5780020
  66.4548980  25.7063430  10.3598930  65.7329540  26.7242230  11.2169790
  72.6515650  23.2789810   9.9248600  71.9263840  23.8718590   9.7277990
  73.1791110  23.2713350   9.1261970  68.1815240  25.0049980   3.4232450
  68.5339060  24.4078110   2.7633820  67.2977570  24.6794210   3.5940700
  65.8738340  28.2800040   7.6720520  66.5180560  28.4859420   8.3493940
  66.2367780  27.5188440   7.2191370  67.1470420  26.2832390   6.3897970
  67.7892650  25.5825550   6.5030140  67.6719770  27.0630830   6.2094860
  68.9208040  27.0827290   9.5934030  69.2564280  27.6693980  10.2711950
  68.0008380  26.9520000   9.8231820  56.4711440  14.8722470  10.3757440
  55.7569960  15.0719390  10.9810050  56.8906480  14.0962040  10.7472240
  56.7584030  28.8602730  11.3623970  56.8675150  27.9197470  11.2219360
  56.1064590  29.1257480  10.7137700  64.7496620  27.1318620  12.7622090
  64.4293490  26.4127860  13.3067780  64.0754980  27.8073690  12.8358150
  67.9650220  17.3644780   8.1258890  68.3331040  16.5439990   8.4538460
  67.1048420  17.4246670   8.5414540  64.9252210  20.0184370   8.3496860
  65.4237460  20.4930190   9.0148710  65.0675160  19.0947890   8.5566890
  72.1319070  16.2352330   9.1925250  71.6292670  16.9757730   9.5319060
  72.9475730  16.6236330   8.8762040  70.4241080  21.4785510   2.6386610
  69.4831220  21.4935740   2.8134300  70.7385150  20.6921470   3.0846910
  72.4266660  28.6494360   4.3140870  72.5514080  29.4725530   4.7864680
  73.2932220  28.4385090   3.9665020  59.8984190  30.7425570   3.9858000
  60.6346670  30.1941030   4.2566570  60.2825110  31.6081580   3.8463990
  58.9042470  29.9271640  13.1743580  59.7055200  30.2483690  13.5878980
  58.3894290  29.5667220  13.8963490  67.7407100  26.0351510  13.1218990
  67.1345260  26.0583110  12.3814740  67.4361210  25.3034550  13.6586240
  69.1707470  29.7631800  11.7328400  70.1229220  29.6789820  11.6828640
  69.0235690  30.4273510  12.4062190  56.6240280  22.4145100  12.1179630
  57.1279300  21.8352380  12.6895860  55.8847700  22.6985330  12.6556000
  63.6778220  23.8216090  11.6515150  62.9123890  24.3901090  11.5669820
  63.8594180  23.5292300  10.7583380  70.8201570  25.5521420  12.2090170
  71.5611040  25.8897180  11.7057630  70.0574250  25.7213480  11.6559940
  58.6563360  20.5574690  13.0129700  58.6968700  20.2588560  13.9214930
  59.5108860  20.9582300  12.8537220  60.5969170  19.1366790  10.9804190
  60.0665630  18.6457740  10.3527530  61.2657240  19.5650990  10.4462120
  69.4947230  23.6036250  10.7445380  69.9088250  23.7581330  11.5935800
  68.5598230  23.7291470  10.9071160  69.9669400  20.9432410  12.7484530
  70.5490170  20.1884730  12.6605010  70.1431170  21.4739850  11.9716010
  61.0841470  16.1029160  11.0601480  60.9898340  15.4849910  10.3352350
  60.5038860  16.8295450  10.8331390  63.8502910  14.6602400   8.0928870
  63.4020210  14.6826660   7.2474420  63.2168110  14.2621420   8.6899170
  64.2562460  23.5556730   8.7141310  64.6750570  24.3989460   8.5417550
  63.3371090  23.6928770   8.4848090  66.5926360  21.2872910  10.0979150
  66.7122570  20.6914050  10.8373990  67.4520360  21.3242600   9.6780450
  68.9314260  21.8410100   8.6741660  68.4049480  22.3652720   8.0706800
  69.2745600  22.4737490   9.3051390  62.1069880  29.8609740   9.8299040
  61.5690970  30.5855800   9.5107740  62.3603840  29.3840080   9.0396380
  63.3595130  17.8294260  11.3554970  63.9494820  17.5210110  12.0432790
  62.5415370  17.3574010  11.5114870  68.1788560  17.4460070  11.5887990
  67.4904080  16.7841610  11.5237980  68.8994580  16.9998340  12.0336450
  64.9632090  31.0960950  10.0885690  64.8890790  31.9996090  10.3958060
  64.0610930  30.7772850  10.0607760  56.3659380  28.4235540   3.3919310
  56.6962390  27.5556600   3.1597950  56.7950380  28.6294060   4.2224270
  56.8549590  29.2906130   6.1300940  56.4180580  29.4706930   6.9625090
  57.4227270  30.0480750   5.9882660  72.4911770  28.7923130  10.4178250
  71.8913760  28.8515690   9.6742170  72.6205670  27.8528110  10.5475100
  56.6874020  21.8026360   2.4889820  56.0322860  21.5338000   1.8449520
  57.5251970  21.6930840   2.0391800  74.1929650  24.1338530   3.1024090
  74.5638480  23.3505850   2.6960060  74.8331580  24.8227630   2.9241390
  71.1763410  25.5175110   8.5154410  70.3623250  25.9472270   8.7780200
  71.5837610  26.1293520   7.9023460  57.7249950  22.1878930   7.0293160
  58.0922990  22.1006330   7.9089180  57.1560770  21.4245480   6.9300020
  72.5253810  20.6563310  10.0423630  72.2939900  20.4276060   9.1421580
  72.7858360  21.5762860   9.9968520  57.2765950  19.0988020  10.9351580
  56.3822000  19.0654780  11.2745290  57.8163500  19.2974810  11.7002830
  70.9641880  15.8819740  12.8203330  71.8412060  15.8903140  13.2037330
  70.9762720  15.1450580  12.2095680  72.4105150  19.7349280   3.7091350
  72.9342630  19.2411930   3.0781520  72.9964570  19.8699640   4.4538920
  72.5894870  19.8189150   7.2310900  71.6397580  19.7852690   7.3455890
  72.7707880  20.7289260   6.9960670  57.7805660  13.3736350   5.2834800
  58.4281850  12.8233730   4.8429960  58.2007500  13.6279500   6.1050610
  73.3292280  17.6283580   2.1821440  73.2191560  17.4739620   3.1203710
  74.0899870  17.1004520   1.9396850  71.6758000  13.5677710   8.6404440
  72.3130220  14.1811850   9.0063630  71.8232890  13.6038370   7.6953670
  57.5337660  13.5292020   8.0260120  57.1852480  13.9855840   8.7918300
  57.2025360  12.6349150   8.1082550  59.1402030  26.7011620  12.1913310
  59.0971660  26.3304530  13.0727770  59.2713040  27.6389190  12.3315130
  62.8408060  28.2571210   7.7923030  62.5999420  28.5245770   6.9053550
  63.7810700  28.4276940   7.8473890  65.0462480  14.7203900  11.5479540
  64.9851370  15.3125730  12.2974950  65.9862860  14.6129860  11.4029800
  67.6837040  14.3773960  11.1871830  68.2977450  14.6953250  10.5252910
  68.2286600  13.8922550  11.8067690  74.1012220  30.2765590   8.5933670
  73.6070500  30.6734460   7.8760800  73.4925510  29.6514800   8.9870950
  58.2058300  13.0568220  11.3010890  58.7541290  12.8756270  10.5377000
  58.2713610  12.2662330  11.8367200  58.9790060  29.6473870   9.3111090
  58.3850380  29.5158570  10.0501130  58.9713900  28.8112010   8.8453190
  68.4245080  12.9406100   7.5141120  67.5504920  13.2741210   7.3114050
  68.3155830  12.4679280   8.3392990  69.3317060  15.1476970   8.8982840
  69.0030420  14.3328730   8.5184570  70.2799360  15.1046780   8.7748530
  71.7851670  30.9189010   5.8720410  71.3254640  31.6704820   5.4978430
  71.1564130  30.1995480   5.8135210  58.6102290  27.0132250   8.2619130
  57.8836350  26.3937540   8.1945080  58.6711440  27.4072860   7.3917210
  62.2147390  29.2277250   5.0468540  62.7312410  28.6164610   4.5216800
  62.8644770  29.7306030   5.5379550  64.9542890  30.1185740   5.8737520
  65.2420700  29.8640040   4.9970530  65.4666110  29.5663100   6.4643090
  66.1719900  13.8575940   6.4534030  65.3891690  14.3321440   6.7330790
  65.8782830  12.9530770   6.3447210  70.7240970  14.5599040   4.4983120
  71.1649060  14.5044140   3.6504720  70.4548560  15.4757050   4.5693300
  72.5879540  14.1914280   2.5091940  72.5267940  13.2475500   2.3622960
  73.3671570  14.2994370   3.0545400  64.0574120  16.2762690   1.9650060
  63.2448630  15.9019580   1.6245940  64.5615760  15.5207770   2.2671250
  68.5599100  12.9405140   3.2033130  69.1628470  13.5125350   3.6781650
  67.8192090  13.5044580   2.9807030  65.0215250  31.0401840  13.2405720
  65.9482560  30.8046110  13.2841680  65.0065680  31.8673840  12.7591750
  62.2078860  13.7046590  13.0047600  61.9263130  14.2080190  12.2408420
  62.5898560  12.9068340  12.6389730  68.8094320  13.1200170  13.5828070
  68.6959770  13.4394780  14.4779590  69.6264060  13.5212680  13.2865350
  71.5892810  30.2671700  13.0646760  72.3818130  29.7720930  12.8572720
  71.8825960  30.9461840  13.6722370  65.8470510   4.1428170  60.9246040
  65.0712610   3.6628610  61.2144610  66.4983440   3.4633820  60.7502200
  59.8636340   4.4547980  61.8021800  59.0321220   4.1996690  62.2018310
  60.4717320   4.5258750  62.5379720  69.8677940   8.5488360  59.7045170
  69.4059470   7.7775600  60.0332340  70.6803490   8.5754430  60.2097620
  59.8437600   8.4888070  61.9979820  60.1465640   7.5985810  61.8190040
  60.5881190   9.0458290  61.7702070  66.0941250  10.8346370  59.3249160
  65.4752690  11.2903870  58.7543600  66.9493030  10.9897830  58.9238860
  65.2879500   6.8185360  60.9316200  65.2187780   5.8775300  60.7705330
  66.0499360   6.9086770  61.5038770  66.9604600   5.7185610  56.7181070
  66.3421870   6.1835060  56.1543790  67.4727850   6.4113090  57.1350580
  56.3287800   6.4042140  54.0920700  55.9515780   6.8929240  53.3605600
  56.5860870   7.0767420  54.7227230  71.9533050   8.6781690  63.1268490
  71.2696570   9.3480800  63.1185160  72.4927340   8.8762340  62.3613350
  69.4891790  10.5225820  61.8413670  69.5018950  10.1188110  60.9735930
  68.9367010  11.2973110  61.7375100  70.7837210   7.2442040  56.9303840
  70.6733540   6.3016370  57.0553260  70.7805460   7.6057680  57.8166600
  66.3257490   2.8707360  56.2866330  65.3986770   2.8044740  56.5154800
  66.4782310   3.8087490  56.1721570  72.8339330   3.8242880  63.2612520
  72.0057960   3.8935970  62.7862650  73.4289810   4.4097190  62.7928350
  70.3554780   4.4327660  56.7901580  69.7367200   4.0947210  56.1427880
  70.3379230   3.7887420  57.4980770  61.9314130   3.3972100  59.0686060
  61.5271130   2.6849350  58.5731960  62.0177250   3.0525340  59.9574100
  62.3995830   7.0839660  61.2325270  62.1024120   6.4785130  60.5533050
  63.3495650   7.1216970  61.1214630  68.5319480   3.6714470  53.7974330
  68.9712760   2.8336900  53.6512150  69.2447900   4.3043870  53.8838470
  66.6414860   8.6110540  57.7655570  67.0810770   9.3534870  57.3510960
  66.5801750   8.8537110  58.6894530  58.6318760   2.2917080  56.5692710
  58.5116360   3.0179170  55.9573980  58.3219650   1.5219990  56.0920620
  56.2704130   5.4632220  62.3761350  56.3484550   5.5980990  61.4317070
  56.8845810   4.7548110  62.5689470  57.5151760   7.1632410  58.7867530
  57.1079840   7.3047000  57.9321130  58.4064770   6.8792570  58.5838740
  69.3085040  11.5979660  55.1218580  69.1486180  11.3082600  56.0200410
  69.1431750  10.8219790  54.5863810  61.7873420  11.3778190  56.8990200
  61.6115900  10.4613730  56.6858000  60.9329160  11.7365480  57.1388000
  69.0111170   9.1067220  53.6816580  68.3176330   9.1044510  53.0218860
  69.7534030   8.6826540  53.2510750  68.5761100  10.7329930  57.7565070
  69.0318050   9.9519310  58.0703690  68.9153620  11.4436750  58.3006250
  62.8233450   1.9785800  53.1984890  62.2550350   1.5304050  52.5720800
  63.5322450   2.3378580  52.6650040  64.0499770   2.7274360  62.5560240
  64.4169900   2.2532930  63.3021580  63.8604830   3.6015930  62.8968580
  60.3680930   5.9743990  55.4711300  59.5943190   5.4341610  55.3110020
  61.0975560   5.4550600  55.1329060  71.1268910   4.9709350  61.2637690
  71.8468030   5.4664640  60.8733800  70.9250730   4.2927240  60.6191560
  60.4118330   5.6424370  59.1090110  60.9297000   4.8392630  59.0547000
  59.9602350   5.5803510  59.9506940  65.2987830   6.9090650  54.3817410
  65.6403530   7.6532880  53.8860730  64.4700540   7.2221770  54.7442240
  71.5741510   2.0478800  53.1709100  71.4905230   2.4793020  52.3205540
  72.2935700   2.5077150  53.6035920  72.6028760   8.9021060  55.8991230
  71.9604920   8.2476680  56.1734950  72.2159420   9.3076150  55.1231900
  68.1815240   6.2306490  59.7462920  68.5339060   5.6334620  59.0864290
  67.2977570   5.9050720  59.9171170  64.2678520   6.9904180  57.1533330
  64.9549650   7.5373390  57.5340920  63.4810940   7.5344910  57.1882940
  56.4070920   2.6077000  52.6450410  57.2765770   2.8901800  52.9286330
  55.9161240   3.4212870  52.5299220  63.5705730   3.9950210  56.7658690
  64.0268510   4.8055460  56.9918880  63.2193940   3.6773350  57.5977180
  67.1470420   7.5088900  62.7128440  67.7892650   6.8082060  62.8260610
  67.6719770   8.2887340  62.5325330  70.9926140   7.7937520  52.4367580
  70.7663720   7.0767960  53.0292220  70.6022340   7.5449960  51.5989330
  56.7742170  11.8204380  53.2112040  57.1339810  12.4193720  52.5569310
  56.6334510  12.3664270  53.9847070  70.5742390   5.7109460  54.0981740
  70.2864090   6.1722150  54.8859620  71.3694560   5.2507230  54.3665960
  62.7910790   9.2035580  54.0285710  62.7820890   9.9365270  53.4130220
  61.8709150   8.9567160  54.1212670  58.3917430   4.4250470  54.7732470
  57.7845380   5.1649370  54.7827770  58.8666780   4.5149830  53.9470670
  65.7770390   9.2663820  52.6910900  65.8782370   9.0627810  51.7612880
  64.8772130   9.0122100  52.8958680  64.4188500  11.7850140  57.3858570
  64.6730000  11.7471530  56.4637940  63.4700980  11.6583470  57.3786820
  70.4241080   2.7042020  58.9617080  69.4831220   2.7192250  59.1364770
  70.7385150   1.9177980  59.4077380  60.4022720   4.3861620  52.5221040
  61.1685990   4.2742980  53.0846470  60.4797410   3.6899590  51.8697810
  72.4266660   9.8750870  60.6371340  72.5514080  10.6982040  61.1095150
  73.2932220   9.6641600  60.2895490  59.8984190  11.9682080  60.3088470
  60.6346670  11.4197540  60.5797040  60.2825110  12.8338090  60.1694460
  56.7829670   8.0355650  56.1829980  55.8569450   8.2776790  56.1735390
  57.2486100   8.8629910  56.0614730  63.0086500  11.1412390  52.1314040
  63.8015110  11.4301220  51.6795830  62.4890850  10.7104560  51.4526520
  72.0616670  10.3682520  53.5550780  71.7758180   9.9547660  52.7404960
  71.8636220  11.2970230  53.4351300  63.5263900   6.3615800  51.9956390
  63.4214540   5.7468150  52.7217770  63.3588120   5.8381690  51.2119400
  66.7666630   5.4235830  52.5998380  66.2176730   5.8705130  53.2441120
  67.3885890   4.9185080  53.1236050  62.4341750   4.3826750  54.4963680
  62.8558170   4.2166620  55.3395070  62.5592590   3.5726980  54.0018820
  64.9469390   3.4064360  51.7440780  65.4675050   2.6913380  51.3781930
  65.5937790   4.0450230  52.0441290  65.5117420  11.4875970  54.0342520
  66.4068210  11.8260940  54.0561280  65.5435050  10.7655380  53.4066800
  59.1513580   6.8603020  52.2629520  59.5888450   7.4032690  52.9187100
  59.6361310   6.0349970  52.2725860  56.3659380   9.6492050  59.7149780
  56.6962390   8.7813110  59.4828420  56.7950380   9.8550570  60.5454740
  60.9621300   7.9801060  57.3751750  60.6616840   7.8566030  58.2755660
  60.8558790   7.1209650  56.9667480  56.8549590  10.5162640  62.4531410
  56.4180580  10.6963440  63.2855560  57.4227270  11.2737260  62.3113130
  73.7313220   7.7597460  52.0778430  72.9006180   7.8274110  52.5485660
  73.9085050   8.6501580  51.7745290  73.1869680   4.5044940  54.5812630
  73.9488590   5.0741590  54.6872320  73.2024050   3.9372140  55.3520940
  56.6874020   3.0282870  58.8120290  56.0322860   2.7594510  58.1679990
  57.5251970   2.9187350  58.3622270  74.1929650   5.3595040  59.4254560
  74.5638480   4.5762360  59.0190530  74.8331580   6.0484140  59.2471860
  73.2388850   4.7979310  51.7385150  73.5137690   5.7058190  51.6104370
  73.0499590   4.7341840  52.6747140  73.1354190   2.7348300  56.7314580
  72.7597790   1.9676230  56.2995870  72.4057310   3.1171000  57.2189510
  71.2339460  11.4950220  58.3653150  71.8298530  11.1734790  57.6887570
  71.4917610  11.0222040  59.1566420  71.7851670  12.1445520  62.1950880
  71.3254640  12.8961330  61.8208900  71.1564130  11.4251990  62.1365680
  62.2147390  10.4533760  61.3699010  62.7312410   9.8421120  60.8447270
  62.8644770  10.9562540  61.8610020  64.9542890  11.3442250  62.1967990
  65.2420700  11.0896550  61.3201000  65.4666110  10.7919610  62.7873560
  56.8932290  11.5563150  57.7946360  56.7254330  10.9233830  58.4928250
  56.0266800  11.7622550  57.4440550  58.4994990  10.2496380  55.2396500
  57.9742610  10.6304410  54.5358460  58.4239570  10.8747150  55.9606210
  73.2560310  11.8083920  56.5610440  73.4312500  11.1221660  55.9171360
  72.5581880  12.3330970  56.1687110  61.0987960  12.1978760  54.1145750
  61.8306780  11.9138040  53.5669640  61.3581630  11.9592040  55.0045130
  60.2602750   8.3143490  54.1192080  59.6311630   8.7828590  54.6677910
  60.3750580   7.4692710  54.5538270  65.8470510   4.1428170  42.1502550
  65.0712610   3.6628610  42.4401120  66.4983440   3.4633820  41.9758710
  59.8636340   4.4547980  43.0278310  59.0321220   4.1996690  43.4274820
  60.4717320   4.5258750  43.7636230  69.8677940   8.5488360  40.9301680
  69.4059470   7.7775600  41.2588850  70.6803490   8.5754430  41.4354130
  59.8437600   8.4888070  43.2236330  60.1465640   7.5985810  43.0446550
  60.5881190   9.0458290  42.9958580  66.0941250  10.8346370  40.5505670
  65.4752690  11.2903870  39.9800110  66.9493030  10.9897830  40.1495370
  65.2879500   6.8185360  42.1572710  65.2187780   5.8775300  41.9961840
  66.0499360   6.9086770  42.7295280  66.9604600   5.7185610  37.9437580
  66.3421870   6.1835060  37.3800300  67.4727850   6.4113090  38.3607090
  61.8236360   5.2461480  44.6221180  61.4905740   5.8730400  45.2642250
  62.0003040   5.7723360  43.8422850  61.0355460   7.2142280  46.4370360
  61.6529460   7.8893360  46.1554810  60.1748580   7.6230260  46.3457860
  56.3287800   6.4042140  35.3177210  55.9515780   6.8929240  34.5862110
  56.5860870   7.0767420  35.9483740  71.9533050   8.6781690  44.3525000
  71.2696570   9.3480800  44.3441670  72.4927340   8.8762340  43.5869860
  69.4891790  10.5225820  43.0670180  69.5018950  10.1188110  42.1992440
  68.9367010  11.2973110  42.9631610  70.7837210   7.2442040  38.1560350
  70.6733540   6.3016370  38.2809770  70.7805460   7.6057680  39.0423110
  68.8877230   5.4255660  44.3952790  69.3046020   5.2115770  43.5606250
  69.6117050   5.6828450  44.9661410  66.3257490   2.8707360  37.5122840
  65.3986770   2.8044740  37.7411310  66.4782310   3.8087490  37.3978080
  72.8339330   3.8242880  44.4869030  72.0057960   3.8935970  44.0119160
  73.4289810   4.4097190  44.0184860  70.3554780   4.4327660  38.0158090
  69.7367200   4.0947210  37.3684390  70.3379230   3.7887420  38.7237280
  61.9314130   3.3972100  40.2942570  61.5271130   2.6849350  39.7988470
  62.0177250   3.0525340  41.1830610  62.3995830   7.0839660  42.4581780
  62.1024120   6.4785130  41.7789560  63.3495650   7.1216970  42.3471140
  70.4881440  10.6571530  46.1204880  70.0112000  11.4643720  45.9277490
  69.8043230  10.0049860  46.2731090  61.4914260   6.8221350  49.1089580
  60.5942790   7.0461320  49.3562980  61.5167130   6.9456290  48.1600980
  68.5319480   3.6714470  35.0230840  68.9712760   2.8336900  34.8768660
  69.2447900   4.3043870  35.1094980  60.3185480   3.6934670  47.6846950
  60.1793250   4.5657470  48.0534350  59.4366840   3.3507480  47.5394890
  66.6414860   8.6110540  38.9912080  67.0810770   9.3534870  38.5767470
  66.5801750   8.8537110  39.9151040  62.1165830   9.6356370  49.8932100
  62.0881260  10.0399320  49.0260530  61.9530800   8.7066730  49.7303700
  58.6318760   2.2917080  37.7949220  58.5116360   3.0179170  37.1830490
  58.3219650   1.5219990  37.3177130  74.0680650  10.4183470  51.1896270
  74.5440370  10.8966360  51.8685350  74.6887810  10.3500960  50.4641770
  56.2704130   5.4632220  43.6017860  56.3484550   5.5980990  42.6573580
  56.8845810   4.7548110  43.7945980  57.5151760   7.1632410  40.0124040
  57.1079840   7.3047000  39.1577640  58.4064770   6.8792570  39.8095250
  73.4713900   7.6096320  48.3496280  73.5976960   7.3708200  47.4313460
  73.5135280   6.7780860  48.8218360  67.3330640  11.3124320  46.9191090
  67.8475310  11.2232330  47.7213520  66.4899720  11.6584020  47.2119000
  69.3085040  11.5979660  36.3475090  69.1486180  11.3082600  37.2456920
  69.1431750  10.8219790  35.8120320  61.7873420  11.3778190  38.1246710
  61.6115900  10.4613730  37.9114510  60.9329160  11.7365480  38.3644510
  69.0111170   9.1067220  34.9073090  68.3176330   9.1044510  34.2475370
  69.7534030   8.6826540  34.4767260  68.5761100  10.7329930  38.9821580
  69.0318050   9.9519310  39.2960200  68.9153620  11.4436750  39.5262760
  56.3263650   6.5046390  46.1412320  56.4894690   6.0351750  45.3231690
  56.7916100   5.9969950  46.8061160  62.8233450   1.9785800  34.4241400
  62.2550350   1.5304050  33.7977310  63.5322450   2.3378580  33.8906550
  57.9002630   5.8797820  48.3008130  57.5157420   5.2391490  48.8991090
  58.2114820   6.5833940  48.8702860  64.0499770   2.7274360  43.7816750
  64.4169900   2.2532930  44.5278090  63.8604830   3.6015930  44.1225090
  61.8399140   1.7683000  46.1000960  61.5356210   2.6474980  46.3251320
  62.7945600   1.8282790  46.1358400  60.3680930   5.9743990  36.6967810
  59.5943190   5.4341610  36.5366530  61.0975560   5.4550600  36.3585570
  71.1268910   4.9709350  42.4894200  71.8468030   5.4664640  42.0990310
  70.9250730   4.2927240  41.8448070  66.5087710   5.0418410  48.3763200
  66.4425020   4.1214080  48.1220790  65.8792850   5.1393850  49.0907840
  60.4118330   5.6424370  40.3346620  60.9297000   4.8392630  40.2803510
  59.9602350   5.5803510  41.1763450  65.2987830   6.9090650  35.6073920
  65.6403530   7.6532880  35.1117240  64.4700540   7.2221770  35.9698750
  57.8962870   2.6085740  47.2472320  57.5377810   3.2739590  47.8345660
  57.6017430   1.7769290  47.6184940  61.0975990   3.0669980  50.1311870
  60.7976130   3.2127160  49.2339690  61.8687230   2.5075270  50.0385260
  66.4404440   7.8638980  48.1267000  66.4548980   6.9319940  47.9085910
  65.7329540   7.9498740  48.7656770  71.5741510   2.0478800  34.3965610
  71.4905230   2.4793020  33.5462050  72.2935700   2.5077150  34.8292430
  72.6515650   4.5046320  47.4735580  71.9263840   5.0975100  47.2764970
  73.1791110   4.4969860  46.6748950  72.6028760   8.9021060  37.1247740
  71.9604920   8.2476680  37.3991460  72.2159420   9.3076150  36.3488410
  68.1815240   6.2306490  40.9719430  68.5339060   5.6334620  40.3120800
  67.2977570   5.9050720  41.1427680  64.2678520   6.9904180  38.3789840
  64.9549650   7.5373390  38.7597430  63.4810940   7.5344910  38.4139450
  56.4070920   2.6077000  33.8706920  57.2765770   2.8901800  34.1542840
  55.9161240   3.4212870  33.7555730  63.5705730   3.9950210  37.9915200
  64.0268510   4.8055460  38.2175390  63.2193940   3.6773350  38.8233690
  65.8738340   9.5056550  45.2207500  66.5180560   9.7115930  45.8980920
  66.2367780   8.7444950  44.7678350  67.1470420   7.5088900  43.9384950
  67.7892650   6.8082060  44.0517120  67.6719770   8.2887340  43.7581840
  70.9926140   7.7937520  33.6624090  70.7663720   7.0767960  34.2548730
  70.6022340   7.5449960  32.8245840  68.9208040   8.3083800  47.1421010
  69.2564280   8.8950490  47.8198930  68.0008380   8.1776510  47.3718800
  56.7742170  11.8204380  34.4368550  57.1339810  12.4193720  33.7825820
  56.6334510  12.3664270  35.2103580  70.5742390   5.7109460  35.3238250
  70.2864090   6.1722150  36.1116130  71.3694560   5.2507230  35.5922470
  56.7584030  10.0859240  48.9110950  56.8675150   9.1453980  48.7706340
  56.1064590  10.3513990  48.2624680  64.7496620   8.3575130  50.3109070
  64.4293490   7.6384370  50.8554760  64.0754980   9.0330200  50.3845130
  62.7910790   9.2035580  35.2542220  62.7820890   9.9365270  34.6386730
  61.8709150   8.9567160  35.3469180  58.3917430   4.4250470  35.9988980
  57.7845380   5.1649370  36.0084280  58.8666780   4.5149830  35.1727180
  65.7770390   9.2663820  33.9167410  65.8782370   9.0627810  32.9869390
  64.8772130   9.0122100  34.1215190  64.4188500  11.7850140  38.6115080
  64.6730000  11.7471530  37.6894450  63.4700980  11.6583470  38.6043330
  70.4241080   2.7042020  40.1873590  69.4831220   2.7192250  40.3621280
  70.7385150   1.9177980  40.6333890  60.4022720   4.3861620  33.7477550
  61.1685990   4.2742980  34.3102980  60.4797410   3.6899590  33.0954320
  72.4266660   9.8750870  41.8627850  72.5514080  10.6982040  42.3351660
  73.2932220   9.6641600  41.5152000  59.8984190  11.9682080  41.5344980
  60.6346670  11.4197540  41.8053550  60.2825110  12.8338090  41.3950970
  56.7829670   8.0355650  37.4086490  55.8569450   8.2776790  37.3991900
  57.2486100   8.8629910  37.2871240  58.9042470  11.1528150  50.7230560
  59.7055200  11.4740200  51.1365960  58.3894290  10.7923730  51.4450470
  63.0086500  11.1412390  33.3570550  63.8015110  11.4301220  32.9052340
  62.4890850  10.7104560  32.6783030  67.7407100   7.2608020  50.6705970
  67.1345260   7.2839620  49.9301720  67.4361210   6.5291060  51.2073220
  69.1707470  10.9888310  49.2815380  70.1229220  10.9046330  49.2315620
  69.0235690  11.6530020  49.9549170  72.0616670  10.3682520  34.7807290
  71.7758180   9.9547660  33.9661470  71.8636220  11.2970230  34.6607810
  56.6240280   3.6401610  49.6666610  57.1279300   3.0608890  50.2382840
  55.8847700   3.9241840  50.2042980  63.5263900   6.3615800  33.2212900
  63.4214540   5.7468150  33.9474280  63.3588120   5.8381690  32.4375910
  63.6778220   5.0472600  49.2002130  62.9123890   5.6157600  49.1156800
  63.8594180   4.7548810  48.3070360  66.7666630   5.4235830  33.8254890
  66.2176730   5.8705130  34.4697630  67.3885890   4.9185080  34.3492560
  70.8201570   6.7777930  49.7577150  71.5611040   7.1153690  49.2544610
  70.0574250   6.9469990  49.2046920  58.6563360   1.7831200  50.5616680
  58.6968700   1.4845070  51.4701910  59.5108860   2.1838810  50.4024200
  62.4341750   4.3826750  35.7220190  62.8558170   4.2166620  36.5651580
  62.5592590   3.5726980  35.2275330  64.9469390   3.4064360  32.9697290
  65.4675050   2.6913380  32.6038440  65.5937790   4.0450230  33.2697800
  69.4947230   4.8292760  48.2932360  69.9088250   4.9837840  49.1422780
  68.5598230   4.9547980  48.4558140  64.2562460   4.7813240  46.2628290
  64.6750570   5.6245970  46.0904530  63.3371090   4.9185280  46.0335070
  66.5926360   2.5129420  47.6466130  66.7122570   1.9170560  48.3860970
  67.4520360   2.5499110  47.2267430  68.9314260   3.0666610  46.2228640
  68.4049480   3.5909230  45.6193780  69.2745600   3.6994000  46.8538370
  62.1069880  11.0866250  47.3786020  61.5690970  11.8112310  47.0594720
  62.3603840  10.6096590  46.5883360  64.9632090  12.3217460  47.6372670
  64.8890790  13.2252600  47.9445040  64.0610930  12.0029360  47.6094740
  65.5117420  11.4875970  35.2599030  66.4068210  11.8260940  35.2817790
  65.5435050  10.7655380  34.6323310  59.1513580   6.8603020  33.4886030
  59.5888450   7.4032690  34.1443610  59.6361310   6.0349970  33.4982370
  56.3659380   9.6492050  40.9406290  56.6962390   8.7813110  40.7084930
  56.7950380   9.8550570  41.7711250  60.9621300   7.9801060  38.6008260
  60.6616840   7.8566030  39.5012170  60.8558790   7.1209650  38.1923990
  56.8549590  10.5162640  43.6787920  56.4180580  10.6963440  44.5112070
  57.4227270  11.2737260  43.5369640  72.4911770  10.0179640  47.9665230
  71.8913760  10.0772200  47.2229150  72.6205670   9.0784620  48.0962080
  73.7313220   7.7597460  33.3034940  72.9006180   7.8274110  33.7742170
  73.9085050   8.6501580  33.0001800  73.1869680   4.5044940  35.8069140
  73.9488590   5.0741590  35.9128830  73.2024050   3.9372140  36.5777450
  56.6874020   3.0282870  40.0376800  56.0322860   2.7594510  39.3936500
  57.5251970   2.9187350  39.5878780  74.1929650   5.3595040  40.6511070
  74.5638480   4.5762360  40.2447040  74.8331580   6.0484140  40.4728370
  71.1763410   6.7431620  46.0641390  70.3623250   7.1728780  46.3267180
  71.5837610   7.3550030  45.4510440  73.2388850   4.7979310  32.9641660
  73.5137690   5.7058190  32.8360880  73.0499590   4.7341840  33.9003650
  73.1354190   2.7348300  37.9571090  72.7597790   1.9676230  37.5252380
  72.4057310   3.1171000  38.4446020  57.7249950   3.4135440  44.5780140
  58.0922990   3.3262840  45.4576160  57.1560770   2.6501990  44.4787000
  72.5253810   1.8819820  47.5910610  72.2939900   1.6532570  46.6908560
  72.7858360   2.8019370  47.5455500  71.2339460  11.4950220  39.5909660
  71.8298530  11.1734790  38.9144080  71.4917610  11.0222040  40.3822930
  59.1402030   7.9268130  49.7400290  59.0971660   7.5561040  50.6214750
  59.2713040   8.8645700  49.8802110  62.8408060   9.4827720  45.3410010
  62.5999420   9.7502280  44.4540530  63.7810700   9.6533450  45.3960870
  74.1012220  11.5022100  46.1420650  73.6070500  11.8990970  45.4247780
  73.4925510  10.8771310  46.5357930  58.9790060  10.8730380  46.8598070
  58.3850380  10.7415080  47.5988110  58.9713900  10.0368520  46.3940170
  71.7851670  12.1445520  43.4207390  71.3254640  12.8961330  43.0465410
  71.1564130  11.4251990  43.3622190  58.6102290   8.2388760  45.8106110
  57.8836350   7.6194050  45.7432060  58.6711440   8.6329370  44.9404190
  62.2147390  10.4533760  42.5955520  62.7312410   9.8421120  42.0703780
  62.8644770  10.9562540  43.0866530  64.9542890  11.3442250  43.4224500
  65.2420700  11.0896550  42.5457510  65.4666110  10.7919610  44.0130070
  56.8932290  11.5563150  39.0202870  56.7254330  10.9233830  39.7184760
  56.0266800  11.7622550  38.6697060  58.4994990  10.2496380  36.4653010
  57.9742610  10.6304410  35.7614970  58.4239570  10.8747150  37.1862720
  65.0215250  12.2658350  50.7892700  65.9482560  12.0302620  50.8328660
  65.0065680  13.0930350  50.3078730  73.2560310  11.8083920  37.7866950
  73.4312500  11.1221660  37.1427870  72.5581880  12.3330970  37.3943620
  61.0987960  12.1978760  35.3402260  61.8306780  11.9138040  34.7926150
  61.3581630  11.9592040  36.2301640  60.2602750   8.3143490  35.3448590
  59.6311630   8.7828590  35.8934420  60.3750580   7.4692710  35.7794780
  71.5892810  11.4928210  50.6133740  72.3818130  10.9977440  50.4059700
  71.8825960  12.1718350  51.2209350  65.8470510   4.1428170  23.3759060
  65.0712610   3.6628610  23.6657630  66.4983440   3.4633820  23.2015220
  59.8636340   4.4547980  24.2534820  59.0321220   4.1996690  24.6531330
  60.4717320   4.5258750  24.9892740  69.8677940   8.5488360  22.1558190
  69.4059470   7.7775600  22.4845360  70.6803490   8.5754430  22.6610640
  59.8437600   8.4888070  24.4492840  60.1465640   7.5985810  24.2703060
  60.5881190   9.0458290  24.2215090  66.0941250  10.8346370  21.7762180
  65.4752690  11.2903870  21.2056620  66.9493030  10.9897830  21.3751880
  65.2879500   6.8185360  23.3829220  65.2187780   5.8775300  23.2218350
  66.0499360   6.9086770  23.9551790  66.9604600   5.7185610  19.1694090
  66.3421870   6.1835060  18.6056810  67.4727850   6.4113090  19.5863600
  61.8236360   5.2461480  25.8477690  61.4905740   5.8730400  26.4898760
  62.0003040   5.7723360  25.0679360  61.0355460   7.2142280  27.6626870
  61.6529460   7.8893360  27.3811320  60.1748580   7.6230260  27.5714370
  56.3287800   6.4042140  16.5433720  55.9515780   6.8929240  15.8118620
  56.5860870   7.0767420  17.1740250  71.9533050   8.6781690  25.5781510
  71.2696570   9.3480800  25.5698180  72.4927340   8.8762340  24.8126370
  69.4891790  10.5225820  24.2926690  69.5018950  10.1188110  23.4248950
  68.9367010  11.2973110  24.1888120  70.7837210   7.2442040  19.3816860
  70.6733540   6.3016370  19.5066280  70.7805460   7.6057680  20.2679620
  68.8877230   5.4255660  25.6209300  69.3046020   5.2115770  24.7862760
  69.6117050   5.6828450  26.1917920  66.3257490   2.8707360  18.7379350
  65.3986770   2.8044740  18.9667820  66.4782310   3.8087490  18.6234590
  72.8339330   3.8242880  25.7125540  72.0057960   3.8935970  25.2375670
  73.4289810   4.4097190  25.2441370  70.3554780   4.4327660  19.2414600
  69.7367200   4.0947210  18.5940900  70.3379230   3.7887420  19.9493790
  61.9314130   3.3972100  21.5199080  61.5271130   2.6849350  21.0244980
  62.0177250   3.0525340  22.4087120  62.3995830   7.0839660  23.6838290
  62.1024120   6.4785130  23.0046070  63.3495650   7.1216970  23.5727650
  70.4881440  10.6571530  27.3461390  70.0112000  11.4643720  27.1534000
  69.8043230  10.0049860  27.4987600  61.4914260   6.8221350  30.3346090
  60.5942790   7.0461320  30.5819490  61.5167130   6.9456290  29.3857490
  68.5319480   3.6714470  16.2487350  68.9712760   2.8336900  16.1025170
  69.2447900   4.3043870  16.3351490  60.3185480   3.6934670  28.9103460
  60.1793250   4.5657470  29.2790860  59.4366840   3.3507480  28.7651400
  66.6414860   8.6110540  20.2168590  67.0810770   9.3534870  19.8023980
  66.5801750   8.8537110  21.1407550  62.1165830   9.6356370  31.1188610
  62.0881260  10.0399320  30.2517040  61.9530800   8.7066730  30.9560210
  58.6318760   2.2917080  19.0205730  58.5116360   3.0179170  18.4087000
  58.3219650   1.5219990  18.5433640  74.0680650  10.4183470  32.4152780
  74.5440370  10.8966360  33.0941860  74.6887810  10.3500960  31.6898280
  56.2704130   5.4632220  24.8274370  56.3484550   5.5980990  23.8830090
  56.8845810   4.7548110  25.0202490  57.5151760   7.1632410  21.2380550
  57.1079840   7.3047000  20.3834150  58.4064770   6.8792570  21.0351760
  73.4713900   7.6096320  29.5752790  73.5976960   7.3708200  28.6569970
  73.5135280   6.7780860  30.0474870  67.3330640  11.3124320  28.1447600
  67.8475310  11.2232330  28.9470030  66.4899720  11.6584020  28.4375510
  69.3085040  11.5979660  17.5731600  69.1486180  11.3082600  18.4713430
  69.1431750  10.8219790  17.0376830  61.7873420  11.3778190  19.3503220
  61.6115900  10.4613730  19.1371020  60.9329160  11.7365480  19.5901020
  69.0111170   9.1067220  16.1329600  68.3176330   9.1044510  15.4731880
  69.7534030   8.6826540  15.7023770  68.5761100  10.7329930  20.2078090
  69.0318050   9.9519310  20.5216710  68.9153620  11.4436750  20.7519270
  56.3263650   6.5046390  27.3668830  56.4894690   6.0351750  26.5488200
  56.7916100   5.9969950  28.0317670  62.8233450   1.9785800  15.6497910
  62.2550350   1.5304050  15.0233820  63.5322450   2.3378580  15.1163060
  57.9002630   5.8797820  29.5264640  57.5157420   5.2391490  30.1247600
  58.2114820   6.5833940  30.0959370  64.0499770   2.7274360  25.0073260
  64.4169900   2.2532930  25.7534600  63.8604830   3.6015930  25.3481600
  61.8399140   1.7683000  27.3257470  61.5356210   2.6474980  27.5507830
  62.7945600   1.8282790  27.3614910  60.3680930   5.9743990  17.9224320
  59.5943190   5.4341610  17.7623040  61.0975560   5.4550600  17.5842080
  71.1268910   4.9709350  23.7150710  71.8468030   5.4664640  23.3246820
  70.9250730   4.2927240  23.0704580  66.5087710   5.0418410  29.6019710
  66.4425020   4.1214080  29.3477300  65.8792850   5.1393850  30.3164350
  60.4118330   5.6424370  21.5603130  60.9297000   4.8392630  21.5060020
  59.9602350   5.5803510  22.4019960  65.2987830   6.9090650  16.8330430
  65.6403530   7.6532880  16.3373750  64.4700540   7.2221770  17.1955260
  57.8962870   2.6085740  28.4728830  57.5377810   3.2739590  29.0602170
  57.6017430   1.7769290  28.8441450  61.0975990   3.0669980  31.3568380
  60.7976130   3.2127160  30.4596200  61.8687230   2.5075270  31.2641770
  66.4404440   7.8638980  29.3523510  66.4548980   6.9319940  29.1342420
  65.7329540   7.9498740  29.9913280  71.5741510   2.0478800  15.6222120
  71.4905230   2.4793020  14.7718560  72.2935700   2.5077150  16.0548940
  72.6515650   4.5046320  28.6992090  71.9263840   5.0975100  28.5021480
  73.1791110   4.4969860  27.9005460  72.6028760   8.9021060  18.3504250
  71.9604920   8.2476680  18.6247970  72.2159420   9.3076150  17.5744920
  68.1815240   6.2306490  22.1975940  68.5339060   5.6334620  21.5377310
  67.2977570   5.9050720  22.3684190  64.2678520   6.9904180  19.6046350
  64.9549650   7.5373390  19.9853940  63.4810940   7.5344910  19.6395960
  56.4070920   2.6077000  15.0963430  57.2765770   2.8901800  15.3799350
  55.9161240   3.4212870  14.9812240  63.5705730   3.9950210  19.2171710
  64.0268510   4.8055460  19.4431900  63.2193940   3.6773350  20.0490200
  65.8738340   9.5056550  26.4464010  66.5180560   9.7115930  27.1237430
  66.2367780   8.7444950  25.9934860  67.1470420   7.5088900  25.1641460
  67.7892650   6.8082060  25.2773630  67.6719770   8.2887340  24.9838350
  70.9926140   7.7937520  14.8880600  70.7663720   7.0767960  15.4805240
  70.6022340   7.5449960  14.0502350  68.9208040   8.3083800  28.3677520
  69.2564280   8.8950490  29.0455440  68.0008380   8.1776510  28.5975310
  56.7742170  11.8204380  15.6625060  57.1339810  12.4193720  15.0082330
  56.6334510  12.3664270  16.4360090  70.5742390   5.7109460  16.5494760
  70.2864090   6.1722150  17.3372640  71.3694560   5.2507230  16.8178980
  56.7584030  10.0859240  30.1367460  56.8675150   9.1453980  29.9962850
  56.1064590  10.3513990  29.4881190  64.7496620   8.3575130  31.5365580
  64.4293490   7.6384370  32.0811270  64.0754980   9.0330200  31.6101640
  62.7910790   9.2035580  16.4798730  62.7820890   9.9365270  15.8643240
  61.8709150   8.9567160  16.5725690  58.3917430   4.4250470  17.2245490
  57.7845380   5.1649370  17.2340790  58.8666780   4.5149830  16.3983690
  65.7770390   9.2663820  15.1423920  65.8782370   9.0627810  14.2125900
  64.8772130   9.0122100  15.3471700  64.4188500  11.7850140  19.8371590
  64.6730000  11.7471530  18.9150960  63.4700980  11.6583470  19.8299840
  70.4241080   2.7042020  21.4130100  69.4831220   2.7192250  21.5877790
  70.7385150   1.9177980  21.8590400  60.4022720   4.3861620  14.9734060
  61.1685990   4.2742980  15.5359490  60.4797410   3.6899590  14.3210830
  72.4266660   9.8750870  23.0884360  72.5514080  10.6982040  23.5608170
  73.2932220   9.6641600  22.7408510  59.8984190  11.9682080  22.7601490
  60.6346670  11.4197540  23.0310060  60.2825110  12.8338090  22.6207480
  56.7829670   8.0355650  18.6343000  55.8569450   8.2776790  18.6248410
  57.2486100   8.8629910  18.5127750  58.9042470  11.1528150  31.9487070
  59.7055200  11.4740200  32.3622470  58.3894290  10.7923730  32.6706980
  63.0086500  11.1412390  14.5827060  63.8015110  11.4301220  14.1308850
  62.4890850  10.7104560  13.9039540  67.7407100   7.2608020  31.8962480
  67.1345260   7.2839620  31.1558230  67.4361210   6.5291060  32.4329730
  69.1707470  10.9888310  30.5071890  70.1229220  10.9046330  30.4572130
  69.0235690  11.6530020  31.1805680  72.0616670  10.3682520  16.0063800
  71.7758180   9.9547660  15.1917980  71.8636220  11.2970230  15.8864320
  56.6240280   3.6401610  30.8923120  57.1279300   3.0608890  31.4639350
  55.8847700   3.9241840  31.4299490  63.5263900   6.3615800  14.4469410
  63.4214540   5.7468150  15.1730790  63.3588120   5.8381690  13.6632420
  63.6778220   5.0472600  30.4258640  62.9123890   5.6157600  30.3413310
  63.8594180   4.7548810  29.5326870  66.7666630   5.4235830  15.0511400
  66.2176730   5.8705130  15.6954140  67.3885890   4.9185080  15.5749070
  70.8201570   6.7777930  30.9833660  71.5611040   7.1153690  30.4801120
  70.0574250   6.9469990  30.4303430  58.6563360   1.7831200  31.7873190
  58.6968700   1.4845070  32.6958420  59.5108860   2.1838810  31.6280710
  62.4341750   4.3826750  16.9476700  62.8558170   4.2166620  17.7908090
  62.5592590   3.5726980  16.4531840  64.9469390   3.4064360  14.1953800
  65.4675050   2.6913380  13.8294950  65.5937790   4.0450230  14.4954310
  69.4947230   4.8292760  29.5188870  69.9088250   4.9837840  30.3679290
  68.5598230   4.9547980  29.6814650  64.2562460   4.7813240  27.4884800
  64.6750570   5.6245970  27.3161040  63.3371090   4.9185280  27.2591580
  66.5926360   2.5129420  28.8722640  66.7122570   1.9170560  29.6117480
  67.4520360   2.5499110  28.4523940  68.9314260   3.0666610  27.4485150
  68.4049480   3.5909230  26.8450290  69.2745600   3.6994000  28.0794880
  62.1069880  11.0866250  28.6042530  61.5690970  11.8112310  28.2851230
  62.3603840  10.6096590  27.8139870  64.9632090  12.3217460  28.8629180
  64.8890790  13.2252600  29.1701550  64.0610930  12.0029360  28.8351250
  65.5117420  11.4875970  16.4855540  66.4068210  11.8260940  16.5074300
  65.5435050  10.7655380  15.8579820  59.1513580   6.8603020  14.7142540
  59.5888450   7.4032690  15.3700120  59.6361310   6.0349970  14.7238880
  56.3659380   9.6492050  22.1662800  56.6962390   8.7813110  21.9341440
  56.7950380   9.8550570  22.9967760  60.9621300   7.9801060  19.8264770
  60.6616840   7.8566030  20.7268680  60.8558790   7.1209650  19.4180500
  56.8549590  10.5162640  24.9044430  56.4180580  10.6963440  25.7368580
  57.4227270  11.2737260  24.7626150  72.4911770  10.0179640  29.1921740
  71.8913760  10.0772200  28.4485660  72.6205670   9.0784620  29.3218590
  73.7313220   7.7597460  14.5291450  72.9006180   7.8274110  14.9998680
  73.9085050   8.6501580  14.2258310  73.1869680   4.5044940  17.0325650
  73.9488590   5.0741590  17.1385340  73.2024050   3.9372140  17.8033960
  56.6874020   3.0282870  21.2633310  56.0322860   2.7594510  20.6193010
  57.5251970   2.9187350  20.8135290  74.1929650   5.3595040  21.8767580
  74.5638480   4.5762360  21.4703550  74.8331580   6.0484140  21.6984880
  71.1763410   6.7431620  27.2897900  70.3623250   7.1728780  27.5523690
  71.5837610   7.3550030  26.6766950  73.2388850   4.7979310  14.1898170
  73.5137690   5.7058190  14.0617390  73.0499590   4.7341840  15.1260160
  73.1354190   2.7348300  19.1827600  72.7597790   1.9676230  18.7508890
  72.4057310   3.1171000  19.6702530  57.7249950   3.4135440  25.8036650
  58.0922990   3.3262840  26.6832670  57.1560770   2.6501990  25.7043510
  72.5253810   1.8819820  28.8167120  72.2939900   1.6532570  27.9165070
  72.7858360   2.8019370  28.7712010  71.2339460  11.4950220  20.8166170
  71.8298530  11.1734790  20.1400590  71.4917610  11.0222040  21.6079440
  59.1402030   7.9268130  30.9656800  59.0971660   7.5561040  31.8471260
  59.2713040   8.8645700  31.1058620  62.8408060   9.4827720  26.5666520
  62.5999420   9.7502280  25.6797040  63.7810700   9.6533450  26.6217380
  74.1012220  11.5022100  27.3677160  73.6070500  11.8990970  26.6504290
  73.4925510  10.8771310  27.7614440  58.9790060  10.8730380  28.0854580
  58.3850380  10.7415080  28.8244620  58.9713900  10.0368520  27.6196680
  71.7851670  12.1445520  24.6463900  71.3254640  12.8961330  24.2721920
  71.1564130  11.4251990  24.5878700  58.6102290   8.2388760  27.0362620
  57.8836350   7.6194050  26.9688570  58.6711440   8.6329370  26.1660700
  62.2147390  10.4533760  23.8212030  62.7312410   9.8421120  23.2960290
  62.8644770  10.9562540  24.3123040  64.9542890  11.3442250  24.6481010
  65.2420700  11.0896550  23.7714020  65.4666110  10.7919610  25.2386580
  56.8932290  11.5563150  20.2459380  56.7254330  10.9233830  20.9441270
  56.0266800  11.7622550  19.8953570  58.4994990  10.2496380  17.6909520
  57.9742610  10.6304410  16.9871480  58.4239570  10.8747150  18.4119230
  65.0215250  12.2658350  32.0149210  65.9482560  12.0302620  32.0585170
  65.0065680  13.0930350  31.5335240  73.2560310  11.8083920  19.0123460
  73.4312500  11.1221660  18.3684380  72.5581880  12.3330970  18.6200130
  61.0987960  12.1978760  16.5658770  61.8306780  11.9138040  16.0182660
  61.3581630  11.9592040  17.4558150  60.2602750   8.3143490  16.5705100
  59.6311630   8.7828590  17.1190930  60.3750580   7.4692710  17.0051290
  71.5892810  11.4928210  31.8390250  72.3818130  10.9977440  31.6316210
  71.8825960  12.1718350  32.4465860  65.8470510   4.1428170   4.6015570
  65.0712610   3.6628610   4.8914140  66.4983440   3.4633820   4.4271730
  59.8636340   4.4547980   5.4791330  59.0321220   4.1996690   5.8787840
  60.4717320   4.5258750   6.2149250  69.8677940   8.5488360   3.3814700
  69.4059470   7.7775600   3.7101870  70.6803490   8.5754430   3.8867150
  59.8437600   8.4888070   5.6749350  60.1465640   7.5985810   5.4959570
  60.5881190   9.0458290   5.4471600  66.0941250  10.8346370   3.0018690
  65.4752690  11.2903870   2.4313130  66.9493030  10.9897830   2.6008390
  65.2879500   6.8185360   4.6085730  65.2187780   5.8775300   4.4474860
  66.0499360   6.9086770   5.1808300  61.8236360   5.2461480   7.0734200
  61.4905740   5.8730400   7.7155270  62.0003040   5.7723360   6.2935870
  61.0355460   7.2142280   8.8883380  61.6529460   7.8893360   8.6067830
  60.1748580   7.6230260   8.7970880  71.9533050   8.6781690   6.8038020
  71.2696570   9.3480800   6.7954690  72.4927340   8.8762340   6.0382880
  69.4891790  10.5225820   5.5183200  69.5018950  10.1188110   4.6505460
  68.9367010  11.2973110   5.4144630  68.8877230   5.4255660   6.8465810
  69.3046020   5.2115770   6.0119270  69.6117050   5.6828450   7.4174430
  72.8339330   3.8242880   6.9382050  72.0057960   3.8935970   6.4632180
  73.4289810   4.4097190   6.4697880  61.9314130   3.3972100   2.7455590
  61.5271130   2.6849350   2.2501490  62.0177250   3.0525340   3.6343630
  62.3995830   7.0839660   4.9094800  62.1024120   6.4785130   4.2302580
  63.3495650   7.1216970   4.7984160  70.4881440  10.6571530   8.5717900
  70.0112000  11.4643720   8.3790510  69.8043230  10.0049860   8.7244110
  61.4914260   6.8221350  11.5602600  60.5942790   7.0461320  11.8076000
  61.5167130   6.9456290  10.6114000  60.3185480   3.6934670  10.1359970
  60.1793250   4.5657470  10.5047370  59.4366840   3.3507480   9.9907910
  62.1165830   9.6356370  12.3445120  62.0881260  10.0399320  11.4773550
  61.9530800   8.7066730  12.1816720  74.0680650  10.4183470  13.6409290
  74.5440370  10.8966360  14.3198370  74.6887810  10.3500960  12.9154790
  56.2704130   5.4632220   6.0530880  56.3484550   5.5980990   5.1086600
  56.8845810   4.7548110   6.2459000  57.5151760   7.1632410   2.4637060
  57.1079840   7.3047000   1.6090660  58.4064770   6.8792570   2.2608270
  73.4713900   7.6096320  10.8009300  73.5976960   7.3708200   9.8826480
  73.5135280   6.7780860  11.2731380  67.3330640  11.3124320   9.3704110
  67.8475310  11.2232330  10.1726540  66.4899720  11.6584020   9.6632020
  56.3263650   6.5046390   8.5925340  56.4894690   6.0351750   7.7744710
  56.7916100   5.9969950   9.2574180  57.9002630   5.8797820  10.7521150
  57.5157420   5.2391490  11.3504110  58.2114820   6.5833940  11.3215880
  64.0499770   2.7274360   6.2329770  64.4169900   2.2532930   6.9791110
  63.8604830   3.6015930   6.5738110  61.8399140   1.7683000   8.5513980
  61.5356210   2.6474980   8.7764340  62.7945600   1.8282790   8.5871420
  71.1268910   4.9709350   4.9407220  71.8468030   5.4664640   4.5503330
  70.9250730   4.2927240   4.2961090  66.5087710   5.0418410  10.8276220
  66.4425020   4.1214080  10.5733810  65.8792850   5.1393850  11.5420860
  60.4118330   5.6424370   2.7859640  60.9297000   4.8392630   2.7316530
  59.9602350   5.5803510   3.6276470  57.8962870   2.6085740   9.6985340
  57.5377810   3.2739590  10.2858680  57.6017430   1.7769290  10.0697960
  61.0975990   3.0669980  12.5824890  60.7976130   3.2127160  11.6852710
  61.8687230   2.5075270  12.4898280  66.4404440   7.8638980  10.5780020
  66.4548980   6.9319940  10.3598930  65.7329540   7.9498740  11.2169790
  72.6515650   4.5046320   9.9248600  71.9263840   5.0975100   9.7277990
  73.1791110   4.4969860   9.1261970  68.1815240   6.2306490   3.4232450
  68.5339060   5.6334620   2.7633820  67.2977570   5.9050720   3.5940700
  65.8738340   9.5056550   7.6720520  66.5180560   9.7115930   8.3493940
  66.2367780   8.7444950   7.2191370  67.1470420   7.5088900   6.3897970
  67.7892650   6.8082060   6.5030140  67.6719770   8.2887340   6.2094860
  68.9208040   8.3083800   9.5934030  69.2564280   8.8950490  10.2711950
  68.0008380   8.1776510   9.8231820  56.7584030  10.0859240  11.3623970
  56.8675150   9.1453980  11.2219360  56.1064590  10.3513990  10.7137700
  64.7496620   8.3575130  12.7622090  64.4293490   7.6384370  13.3067780
  64.0754980   9.0330200  12.8358150  70.4241080   2.7042020   2.6386610
  69.4831220   2.7192250   2.8134300  70.7385150   1.9177980   3.0846910
  72.4266660   9.8750870   4.3140870  72.5514080  10.6982040   4.7864680
  73.2932220   9.6641600   3.9665020  59.8984190  11.9682080   3.9858000
  60.6346670  11.4197540   4.2566570  60.2825110  12.8338090   3.8463990
  58.9042470  11.1528150  13.1743580  59.7055200  11.4740200  13.5878980
  58.3894290  10.7923730  13.8963490  67.7407100   7.2608020  13.1218990
  67.1345260   7.2839620  12.3814740  67.4361210   6.5291060  13.6586240
  69.1707470  10.9888310  11.7328400  70.1229220  10.9046330  11.6828640
  69.0235690  11.6530020  12.4062190  56.6240280   3.6401610  12.1179630
  57.1279300   3.0608890  12.6895860  55.8847700   3.9241840  12.6556000
  63.6778220   5.0472600  11.6515150  62.9123890   5.6157600  11.5669820
  63.8594180   4.7548810  10.7583380  70.8201570   6.7777930  12.2090170
  71.5611040   7.1153690  11.7057630  70.0574250   6.9469990  11.6559940
  58.6563360   1.7831200  13.0129700  58.6968700   1.4845070  13.9214930
  59.5108860   2.1838810  12.8537220  69.4947230   4.8292760  10.7445380
  69.9088250   4.9837840  11.5935800  68.5598230   4.9547980  10.9071160
  64.2562460   4.7813240   8.7141310  64.6750570   5.6245970   8.5417550
  63.3371090   4.9185280   8.4848090  66.5926360   2.5129420  10.0979150
  66.7122570   1.9170560  10.8373990  67.4520360   2.5499110   9.6780450
  68.9314260   3.0666610   8.6741660  68.4049480   3.5909230   8.0706800
  69.2745600   3.6994000   9.3051390  62.1069880  11.0866250   9.8299040
  61.5690970  11.8112310   9.5107740  62.3603840  10.6096590   9.0396380
  64.9632090  12.3217460  10.0885690  64.8890790  13.2252600  10.3958060
  64.0610930  12.0029360  10.0607760  56.3659380   9.6492050   3.3919310
  56.6962390   8.7813110   3.1597950  56.7950380   9.8550570   4.2224270
  56.8549590  10.5162640   6.1300940  56.4180580  10.6963440   6.9625090
  57.4227270  11.2737260   5.9882660  72.4911770  10.0179640  10.4178250
  71.8913760  10.0772200   9.6742170  72.6205670   9.0784620  10.5475100
  56.6874020   3.0282870   2.4889820  56.0322860   2.7594510   1.8449520
  57.5251970   2.9187350   2.0391800  74.1929650   5.3595040   3.1024090
  74.5638480   4.5762360   2.6960060  74.8331580   6.0484140   2.9241390
  71.1763410   6.7431620   8.5154410  70.3623250   7.1728780   8.7780200
  71.5837610   7.3550030   7.9023460  57.7249950   3.4135440   7.0293160
  58.0922990   3.3262840   7.9089180  57.1560770   2.6501990   6.9300020
  72.5253810   1.8819820  10.0423630  72.2939900   1.6532570   9.1421580
  72.7858360   2.8019370   9.9968520  59.1402030   7.9268130  12.1913310
  59.0971660   7.5561040  13.0727770  59.2713040   8.8645700  12.3315130
  62.8408060   9.4827720   7.7923030  62.5999420   9.7502280   6.9053550
  63.7810700   9.6533450   7.8473890  74.1012220  11.5022100   8.5933670
  73.6070500  11.8990970   7.8760800  73.4925510  10.8771310   8.9870950
  58.9790060  10.8730380   9.3111090  58.3850380  10.7415080  10.0501130
  58.9713900  10.0368520   8.8453190  71.7851670  12.1445520   5.8720410
  71.3254640  12.8961330   5.4978430  71.1564130  11.4251990   5.8135210
  58.6102290   8.2388760   8.2619130  57.8836350   7.6194050   8.1945080
  58.6711440   8.6329370   7.3917210  62.2147390  10.4533760   5.0468540
  62.7312410   9.8421120   4.5216800  62.8644770  10.9562540   5.5379550
  64.9542890  11.3442250   5.8737520  65.2420700  11.0896550   4.9970530
  65.4666110  10.7919610   6.4643090  65.0215250  12.2658350  13.2405720
  65.9482560  12.0302620  13.2841680  65.0065680  13.0930350  12.7591750
  71.5892810  11.4928210  13.0646760  72.3818130  10.9977440  12.8572720
  71.8825960  12.1718350  13.6722370  48.9408980  96.2366600  59.0436770
  48.8603030  95.3221210  58.7728480  48.5273400  96.7333670  58.3376480
  47.0727020  98.0145620  60.9246040  46.2969120  97.5346060  61.2144610
  47.7239950  97.3351270  60.7502200  41.0892850  98.3265430  61.8021800
  40.2577730  98.0714140  62.2018310  41.6973830  98.3976200  62.5379720
  39.4984800  93.2867320  55.5864190  38.6101500  93.6283290  55.4844070
  39.7825990  93.0867640  54.6945020  37.4617810  95.8872970  61.4703890
  38.0333920  95.1195170  61.4707530  37.4619350  96.1861730  60.5610500
  47.5441180  93.4973190  61.1585130  47.9206000  92.6245070  61.0458800
  47.4460690  93.8331890  60.2675570  41.6746190  91.8698820  56.6202570
  41.7812940  92.7702550  56.9271330  40.7638550  91.8216790  56.3297220
  51.3265300  90.9923630  58.0913470  52.1474920  90.5020200  58.1338950
  51.3599380  91.5821290  58.8445310  39.3229350  93.7917830  61.8655160
  40.0039460  94.0556200  62.4842560  39.0077400  92.9518700  62.1993170
  43.5153920  94.8385190  60.9527750  44.0232140  95.3366160  61.5932770
  44.0467160  94.0620390  60.7767110  51.5626780  92.9324010  60.8641010
  50.8582350  93.2208900  61.4444120  51.9238940  93.7424120  60.5040570
  41.4805350  91.1893710  63.2261620  41.8222160  92.0335760  62.9315490
  40.5421160  91.3377450  63.3426960  54.6313700  92.3778800  61.2550220
  53.6838610  92.4117780  61.3865650  54.9563690  93.1917750  61.6399580
  45.1633240  88.6775980  59.5506210  45.4708220  88.1222870  58.8341710
  44.2333940  88.8120440  59.3679200  47.5514000  96.7424810  56.2866330
  46.6243280  96.6762190  56.5154800  47.7038820  97.6804940  56.1721570
  47.5383080  93.0141810  53.2833490  46.5986750  93.1755770  53.3685950
  47.8566340  93.7327490  52.7369480  54.0595840  97.6960330  63.2612520
  53.2314470  97.7653420  62.7862650  54.6546320  98.2814640  62.7928350
  51.5811290  98.3045110  56.7901580  50.9623710  97.9664660  56.1427880
  51.5635740  97.6604870  57.4980770  43.1570640  97.2689550  59.0686060
  42.7527640  96.5566800  58.5731960  43.2433760  96.9242790  59.9574100
  49.7575990  97.5431920  53.7974330  50.1969270  96.7054350  53.6512150
  50.4704410  98.1761320  53.8838470  53.3393130  88.7974730  52.1115370
  53.0265790  88.8901560  53.0114440  54.1005600  89.3755760  52.0612800
  39.8575270  96.1634530  56.5692710  39.7372870  96.8896620  55.9573980
  39.5476160  95.3937440  56.0920620  42.3238930  89.5069600  59.9516380
  41.8807080  90.2879140  59.6200900  42.8823920  89.8299490  60.6587320
  45.4397750  89.1280300  54.8322210  44.8151930  89.1240170  55.5575520
  45.3527870  88.2611260  54.4358180  44.3614830  90.0516930  61.8105980
  44.6587160  90.9579760  61.7298000  44.9100390  89.5635710  61.1965550
  42.1153150  94.6303170  57.6797630  41.8894070  94.4140340  58.5844250
  41.3345680  95.0631630  57.3343600  49.3450910  94.6366540  56.2788280
  48.7459800  95.3602340  56.0951900  49.8930520  94.5743320  55.4964730
  47.9515780  93.2730080  58.3091560  48.3445350  93.5902280  57.4960250
  48.3132630  92.3941960  58.4236080  36.9879950  89.8630880  60.5321760
  36.6993000  90.4333740  61.2446740  37.7325710  89.3835330  60.8952990
  37.1750180  93.8051000  51.7424480  37.0924850  94.7481760  51.8839470
  36.8233240  93.6625910  50.8636830  48.5370920  95.8635830  62.4042340
  47.8052040  96.3722640  62.7532440  48.1395260  95.0465810  62.1031120
  44.9748310  92.5390030  60.8094830  44.9784370  92.0979980  59.9599370
  45.8699430  92.8607360  60.9166650  40.8250690  92.4216520  59.7689040
  40.4850740  92.8991750  60.5256090  40.0628010  91.9681640  59.4090140
  45.0368460  93.5402110  53.8001590  45.1581280  93.4988590  54.7487410
  44.6516970  94.4026260  53.6448320  48.9996830  91.3169510  61.8165280
  49.0169570  91.7678160  62.6607130  48.7512410  90.4175150  62.0298720
  44.0489960  95.8503250  53.1984890  43.4806860  95.4021500  52.5720800
  44.7578960  96.2096030  52.6650040  45.2756280  96.5991810  62.5560240
  45.6426410  96.1250380  63.3021580  45.0861340  97.4733380  62.8968580
  38.1396770  91.3435500  58.6853710  37.8543690  90.9791170  59.5232330
  38.0775630  90.6115960  58.0716850  47.8135360  90.2364760  55.4067080
  46.9999970  89.7377930  55.3312390  47.6197310  91.0763010  54.9903430
  50.5283750  94.6084410  53.7029240  51.4163370  94.9201640  53.5280580
  50.4988840  93.7356660  53.3109820  52.7998020  95.9196250  53.1709100
  52.7161740  96.3510470  52.3205540  53.5192210  96.3794600  53.6035920
  37.6327430  96.4794450  52.6450410  38.5022280  96.7619250  52.9286330
  37.1417750  97.2930320  52.5299220  44.7962240  97.8667660  56.7658690
  45.2525020  98.6772910  56.9918880  44.4450450  97.5490800  57.5977180
  40.6974020  88.2105310  57.2381210  40.5688650  88.2023210  58.1866130
  39.8736040  88.5488400  56.8872220  52.5568760  91.4175680  55.2576920
  51.9281920  91.5221350  54.5435150  52.0620680  91.6372460  56.0470800
  44.5252790  93.6961630  56.6734800  43.8168940  94.1647970  57.1148410
  44.8097270  93.0383640  57.3079990  48.5568220  90.4212290  58.1130590
  48.4336000  90.4398420  57.1640100  49.5052780  90.4691230  58.2328990
  42.7287810  92.0046710  54.0485510  43.5778340  92.4416860  53.9825700
  42.3619080  92.3166970  54.8757570  51.6497590  96.5759470  58.9617080
  50.7087730  96.5909700  59.1364770  51.9641660  95.7895430  59.4077380
  41.6279230  98.2579070  52.5221040  42.3942500  98.1460430  53.0846470
  41.7053920  97.5617040  51.8697810  40.3225990  95.6904140  53.2053930
  40.4029580  94.7431650  53.3171330  41.2145740  96.0211020  53.3114590
  43.6598260  98.2544200  54.4963680  44.0814680  98.0884070  55.3395070
  43.7849100  97.4444430  54.0018820  46.1725900  97.2781810  51.7440780
  46.6931560  96.5630830  51.3781930  46.8194300  97.9167680  52.0441290
  42.5557160  94.3277430  51.4421840  42.3546220  93.4644790  51.8035180
  42.3849210  94.2410790  50.5043440  50.0345470  89.1385660  53.9708720
  50.3147760  88.2953560  54.3268140  49.2611200  89.3708770  54.4847470
  41.3539960  91.4278050  51.4299720  41.6565860  91.4345480  50.5218870
  42.0934550  91.0775910  51.9267380  44.5724890  90.3712670  52.4155920
  44.2246890  89.6936660  51.8358370  44.7737660  89.9102180  53.2299310
  37.9130530  96.9000320  58.8120290  37.2579370  96.6311960  58.1679990
  38.7508480  96.7904800  58.3622270  50.8620970  91.6941610  53.0338780
  51.2805850  91.5072590  52.1935440  50.5557030  90.8420660  53.3441710
  54.3610700  96.6065750  56.7314580  53.9854300  95.8393680  56.2995870
  53.6313820  96.9888450  57.2189510  37.1268610  94.1099250  54.7545620
  36.2232690  94.3729450  54.5797280  37.6109230  94.3810420  53.9745580
  53.6361660  94.8323240  60.0321820  54.1599140  94.3385890  59.4011990
  54.2221080  94.9673600  60.7769390  39.6695820  93.1664790  52.6640000
  40.3787520  92.7448010  52.1787280  38.9535760  93.2340020  52.0323350
  39.3169980  89.2204120  51.7042650  40.0398110  89.7613060  52.0223870
  39.5894500  88.9467540  50.8284190  53.1261630  94.0896590  55.9714230
  53.6220750  93.8567460  56.7563110  52.9277700  93.2508430  55.5551870
  39.0062170  88.4710310  61.6065270  39.6538360  87.9207690  61.1660430
  39.4264010  88.7253460  62.4281080  54.5548790  92.7257540  58.5051910
  54.4448070  92.5713580  59.4434180  55.3156380  92.1978480  58.2627320
  55.4439060  90.5565460  51.7458050  56.3688370  90.4246640  51.5376340
  55.4214850  90.6358280  52.6994500  55.5177550  91.3276120  54.3714760
  54.7229050  91.2621240  54.9007670  55.7220830  92.2626760  54.3600110
  47.3976410  88.9549900  62.7764500  46.6148200  89.4295400  63.0561260
  47.1039340  88.0504730  62.6677680  51.9497480  89.6573000  60.8213590
  52.3905570  89.6018100  59.9735190  51.6805070  90.5731010  60.8923770
  53.8136050  89.2888240  58.8322410  53.7524450  88.3449460  58.6853430
  54.5928080  89.3968330  59.3775870  38.7416820  89.2597380  55.2978220
  39.4996180  89.3726260  54.7242250  38.2793990  90.0966580  55.2521650
  45.2830630  91.3736650  58.2880530  44.4705140  90.9993540  57.9476410
  45.7872270  90.6181730  58.5901720  49.7855610  88.0379100  59.5263600
  50.3884980  88.6099310  60.0012120  49.0448600  88.6018540  59.3037500
  52.9290210  88.4400660  54.8003880  53.1240840  89.3384110  55.0671310
  52.1420080  88.2087740  55.2936830  41.1141970  89.7861430  53.8380190
  41.6434730  88.9991230  53.7088140  41.7470290  90.4652620  54.0715720
  43.3079810  89.5236570  56.8925580  42.6782550  88.8223880  57.0595710
  42.7684950  90.2840700  56.6758740  48.9408980  96.2366600  40.2693280
  48.8603030  95.3221210  39.9984990  48.5273400  96.7333670  39.5632990
  47.0727020  98.0145620  42.1502550  46.2969120  97.5346060  42.4401120
  47.7239950  97.3351270  41.9758710  41.0892850  98.3265430  43.0278310
  40.2577730  98.0714140  43.4274820  41.6973830  98.3976200  43.7636230
  39.4984800  93.2867320  36.8120700  38.6101500  93.6283290  36.7100580
  39.7825990  93.0867640  35.9201530  37.4617810  95.8872970  42.6960400
  38.0333920  95.1195170  42.6964040  37.4619350  96.1861730  41.7867010
  38.7042680  91.2957330  44.4829330  38.5245520  90.3983080  44.7632090
  38.3022760  91.8429200  45.1576280  47.5441180  93.4973190  42.3841640
  47.9206000  92.6245070  42.2715310  47.4460690  93.8331890  41.4932080
  41.6746190  91.8698820  37.8459080  41.7812940  92.7702550  38.1527840
  40.7638550  91.8216790  37.5553730  51.3265300  90.9923630  39.3169980
  52.1474920  90.5020200  39.3595460  51.3599380  91.5821290  40.0701820
  39.3229350  93.7917830  43.0911670  40.0039460  94.0556200  43.7099070
  39.0077400  92.9518700  43.4249680  43.5153920  94.8385190  42.1784260
  44.0232140  95.3366160  42.8189280  44.0467160  94.0620390  42.0023620
  55.6164850  93.0090380  45.8813610  54.9117020  93.3972090  45.3628720
  55.8822770  93.7040670  46.4834540  41.7990020  89.4783750  46.4447680
  41.8008460  89.9956140  45.6393580  40.9694330  89.0013930  46.4217610
  51.5626780  92.9324010  42.0897520  50.8582350  93.2208900  42.6700630
  51.9238940  93.7424120  41.7297080  41.4805350  91.1893710  44.4518130
  41.8222160  92.0335760  44.1572000  40.5421160  91.3377450  44.5683470
  54.6313700  92.3778800  42.4806730  53.6838610  92.4117780  42.6122160
  54.9563690  93.1917750  42.8656090  45.1633240  88.6775980  40.7762720
  45.4708220  88.1222870  40.0598220  44.2333940  88.8120440  40.5935710
  47.5514000  96.7424810  37.5122840  46.6243280  96.6762190  37.7411310
  47.7038820  97.6804940  37.3978080  47.5383080  93.0141810  34.5090000
  46.5986750  93.1755770  34.5942460  47.8566340  93.7327490  33.9625990
  54.0595840  97.6960330  44.4869030  53.2314470  97.7653420  44.0119160
  54.6546320  98.2814640  44.0184860  51.5811290  98.3045110  38.0158090
  50.9623710  97.9664660  37.3684390  51.5635740  97.6604870  38.7237280
  51.0237850  94.4829650  45.4323900  50.6109030  95.3083360  45.6863890
  50.2913800  93.8974690  45.2400260  43.1570640  97.2689550  40.2942570
  42.7527640  96.5566800  39.7988470  43.2433760  96.9242790  41.1830610
  41.8699260  94.0432760  44.0741610  42.4213850  94.1528100  43.2994860
  42.3842770  94.4170360  44.7896840  49.7575990  97.5431920  35.0230840
  50.1969270  96.7054350  34.8768660  50.4704410  98.1761320  35.1094980
  41.5441990  97.5652120  47.6846950  41.4049760  98.4374920  48.0534350
  40.6623350  97.2224930  47.5394890  53.3393130  88.7974730  33.3371880
  53.0265790  88.8901560  34.2370950  54.1005600  89.3755760  33.2869310
  39.8575270  96.1634530  37.7949220  39.7372870  96.8896620  37.1830490
  39.5476160  95.3937440  37.3177130  54.5494420  93.5346230  49.3146020
  53.9338690  94.0425900  48.7861480  54.2290840  92.6344560  49.2571960
  42.3238930  89.5069600  41.1772890  41.8807080  90.2879140  40.8457410
  42.8823920  89.8299490  41.8843830  46.6108740  92.3738120  46.7808210
  46.1488110  92.5821140  47.5928150  46.2086850  91.5597470  46.4778880
  51.6113250  93.5947070  47.9104870  50.7606840  93.2952820  48.2313940
  51.4515040  93.8389080  46.9988690  48.7062960  95.0948820  50.0103660
  49.0316370  94.2612570  49.6705890  49.4943290  95.6177340  50.1581990
  45.4397750  89.1280300  36.0578720  44.8151930  89.1240170  36.7832030
  45.3527870  88.2611260  35.6614690  44.3614830  90.0516930  43.0362490
  44.6587160  90.9579760  42.9554510  44.9100390  89.5635710  42.4222060
  42.1153150  94.6303170  38.9054140  41.8894070  94.4140340  39.8100760
  41.3345680  95.0631630  38.5600110  49.3450910  94.6366540  37.5044790
  48.7459800  95.3602340  37.3208410  49.8930520  94.5743320  36.7221240
  44.5552360  95.5288750  49.5714410  44.4595960  94.5883480  49.4214810
  45.3984340  95.7503820  49.1762480  47.9515780  93.2730080  39.5348070
  48.3445350  93.5902280  38.7216760  48.3132630  92.3941960  39.6492590
  39.6862900  91.9402420  47.7248190  39.2926290  92.7877630  47.9320970
  38.9981300  91.3028790  47.9156830  46.2607950  92.0237390  50.7944930
  45.5706270  91.8309590  51.4291020  47.0040250  92.3072030  51.3269230
  36.9879950  89.8630880  41.7578270  36.6993000  90.4333740  42.4703250
  37.7325710  89.3835330  42.1209500  37.1750180  93.8051000  32.9680990
  37.0924850  94.7481760  33.1095980  36.8233240  93.6625910  32.0893340
  48.5370920  95.8635830  43.6298850  47.8052040  96.3722640  43.9788950
  48.1395260  95.0465810  43.3287630  44.9748310  92.5390030  42.0351340
  44.9784370  92.0979980  41.1855880  45.8699430  92.8607360  42.1423160
  40.8250690  92.4216520  40.9945550  40.4850740  92.8991750  41.7512600
  40.0628010  91.9681640  40.6346650  45.0368460  93.5402110  35.0258100
  45.1581280  93.4988590  35.9743920  44.6516970  94.4026260  34.8704830
  48.9996830  91.3169510  43.0421790  49.0169570  91.7678160  43.8863640
  48.7512410  90.4175150  43.2555230  44.0489960  95.8503250  34.4241400
  43.4806860  95.4021500  33.7977310  44.7578960  96.2096030  33.8906550
  52.4267580  88.7301690  48.8808170  52.7513350  87.9991350  49.4066150
  52.4624090  88.4115330  47.9789160  45.2756280  96.5991810  43.7816750
  45.6426410  96.1250380  44.5278090  45.0861340  97.4733380  44.1225090
  38.1396770  91.3435500  39.9110220  37.8543690  90.9791170  40.7488840
  38.0775630  90.6115960  39.2973360  43.0655650  95.6400450  46.1000960
  42.7612720  96.5192430  46.3251320  44.0202110  95.7000240  46.1358400
  47.8135360  90.2364760  36.6323590  46.9999970  89.7377930  36.5568900
  47.6197310  91.0763010  36.2159940  50.5283750  94.6084410  34.9285750
  51.4163370  94.9201640  34.7537090  50.4988840  93.7356660  34.5366330
  39.1219380  96.4803190  47.2472320  38.7634320  97.1457040  47.8345660
  38.8273940  95.6486740  47.6184940  42.3232500  96.9387430  50.1311870
  42.0232640  97.0844610  49.2339690  43.0943740  96.3792720  50.0385260
  52.7998020  95.9196250  34.3965610  52.7161740  96.3510470  33.5462050
  53.5192210  96.3794600  34.8292430  37.6327430  96.4794450  33.8706920
  38.5022280  96.7619250  34.1542840  37.1417750  97.2930320  33.7555730
  44.7962240  97.8667660  37.9915200  45.2525020  98.6772910  38.2175390
  44.4450450  97.5490800  38.8233690  40.6974020  88.2105310  38.4637720
  40.5688650  88.2023210  39.4122640  39.8736040  88.5488400  38.1128730
  37.6967950  89.9696430  47.9244420  36.9826470  90.1693350  48.5297030
  38.1162990  89.1936000  48.2959220  49.1906730  92.4618740  45.6745870
  49.5587550  91.6413950  46.0025440  48.3304930  92.5220630  46.0901520
  52.5568760  91.4175680  36.4833430  51.9281920  91.5221350  35.7691660
  52.0620680  91.6372460  37.2727310  44.5252790  93.6961630  37.8991310
  43.8168940  94.1647970  38.3404920  44.8097270  93.0383640  38.5336500
  46.1508720  95.1158330  45.8983840  46.6493970  95.5904150  46.5635690
  46.2931670  94.1921850  46.1053870  48.5568220  90.4212290  39.3387100
  48.4336000  90.4398420  38.3896610  49.5052780  90.4691230  39.4585500
  42.7287810  92.0046710  35.2742020  43.5778340  92.4416860  35.2082210
  42.3619080  92.3166970  36.1014080  53.3575580  91.3326290  46.7412230
  52.8549180  92.0731690  47.0806040  54.1732240  91.7210290  46.4249020
  51.6497590  96.5759470  40.1873590  50.7087730  96.5909700  40.3621280
  51.9641660  95.7895430  40.6333890  41.6279230  98.2579070  33.7477550
  42.3942500  98.1460430  34.3102980  41.7053920  97.5617040  33.0954320
  40.3225990  95.6904140  34.4310440  40.4029580  94.7431650  34.5427840
  41.2145740  96.0211020  34.5371100  37.8496790  97.5119060  49.6666610
  38.3535810  96.9326340  50.2382840  37.1104210  97.7959290  50.2042980
  39.8819870  95.6548650  50.5616680  39.9225210  95.3562520  51.4701910
  40.7365370  96.0556260  50.4024200  43.6598260  98.2544200  35.7220190
  44.0814680  98.0884070  36.5651580  43.7849100  97.4444430  35.2275330
  41.8225680  94.2340750  48.5291170  41.2922140  93.7431700  47.9014510
  42.4913750  94.6624950  47.9949100  46.1725900  97.2781810  32.9697290
  46.6931560  96.5630830  32.6038440  46.8194300  97.9167680  33.2697800
  51.1925910  96.0406370  50.2971510  51.7746680  95.2858690  50.2091990
  51.3687680  96.5713810  49.5202990  42.3097980  91.2003120  48.6088460
  42.2154850  90.5823870  47.8839330  41.7295370  91.9269410  48.3818370
  45.0759420  89.7576360  45.6415850  44.6276720  89.7800620  44.7961400
  44.4424620  89.3595380  46.2386150  47.8182870  96.3846870  47.6466130
  47.9379080  95.7888010  48.3860970  48.6776870  96.4216560  47.2267430
  50.1570770  96.9384060  46.2228640  49.6305990  97.4626680  45.6193780
  50.5002110  97.5711450  46.8538370  42.5557160  94.3277430  32.6678350
  42.3546220  93.4644790  33.0291690  42.3849210  94.2410790  31.7299950
  44.5851640  92.9268220  48.9041950  45.1751330  92.6184070  49.5919770
  43.7671880  92.4547970  49.0601850  49.4045070  92.5434030  49.1374970
  48.7160590  91.8815570  49.0724960  50.1251090  92.0972300  49.5823430
  50.0345470  89.1385660  35.1965230  50.3147760  88.2953560  35.5524650
  49.2611200  89.3708770  35.7103980  41.3539960  91.4278050  32.6556230
  41.6565860  91.4345480  31.7475380  42.0934550  91.0775910  33.1523890
  44.5724890  90.3712670  33.6412430  44.2246890  89.6936660  33.0614880
  44.7737660  89.9102180  34.4555820  37.9130530  96.9000320  40.0376800
  37.2579370  96.6311960  39.3936500  38.7508480  96.7904800  39.5878780
  50.8620970  91.6941610  34.2595290  51.2805850  91.5072590  33.4191950
  50.5557030  90.8420660  34.5698220  54.3610700  96.6065750  37.9571090
  53.9854300  95.8393680  37.5252380  53.6313820  96.9888450  38.4446020
  38.9506460  97.2852890  44.5780140  39.3179500  97.1980290  45.4576160
  38.3817280  96.5219440  44.4787000  53.7510320  95.7537270  47.5910610
  53.5196410  95.5250020  46.6908560  54.0114870  96.6736820  47.5455500
  38.5022460  94.1961980  48.4838560  37.6078510  94.1628740  48.8232270
  39.0420010  94.3948770  49.2489810  52.1898390  90.9793700  50.3690310
  53.0668570  90.9877100  50.7524310  52.2019230  90.2424540  49.7582660
  37.1268610  94.1099250  35.9802130  36.2232690  94.3729450  35.8053790
  37.6109230  94.3810420  35.2002090  53.6361660  94.8323240  41.2578330
  54.1599140  94.3385890  40.6268500  54.2221080  94.9673600  42.0025900
  53.8151380  94.9163110  44.7797880  52.8654090  94.8826650  44.8942870
  53.9964390  95.8263220  44.5447650  39.6695820  93.1664790  33.8896510
  40.3787520  92.7448010  33.4043790  38.9535760  93.2340020  33.2579860
  39.3169980  89.2204120  32.9299160  40.0398110  89.7613060  33.2480380
  39.5894500  88.9467540  32.0540700  53.1261630  94.0896590  37.1970740
  53.6220750  93.8567460  37.9819620  52.9277700  93.2508430  36.7808380
  39.0062170  88.4710310  42.8321780  39.6538360  87.9207690  42.3916940
  39.4264010  88.7253460  43.6537590  54.5548790  92.7257540  39.7308420
  54.4448070  92.5713580  40.6690690  55.3156380  92.1978480  39.4883830
  52.9014510  88.6651670  46.1891420  53.5386730  89.2785810  46.5550610
  53.0489400  88.7012330  45.2440650  55.4439060  90.5565460  32.9714560
  56.3688370  90.4246640  32.7632850  55.4214850  90.6358280  33.9251010
  55.5177550  91.3276120  35.5971270  54.7229050  91.2621240  36.1264180
  55.7220830  92.2626760  35.5856620  38.7594170  88.6265980  45.5747100
  38.4108990  89.0829800  46.3405280  38.4281870  87.7323110  45.6569530
  46.2718990  89.8177860  49.0966520  46.2107880  90.4099690  49.8461930
  47.2119370  89.7103820  48.9516780  48.9093550  89.4747920  48.7358810
  49.5233960  89.7927210  48.0739890  49.4543110  88.9896510  49.3554670
  39.4314810  88.1542180  48.8497870  39.9797800  87.9730230  48.0863980
  39.4970120  87.3636290  49.3854180  49.6501590  88.0380060  45.0628100
  48.7761430  88.3715170  44.8601030  49.5412340  87.5653240  45.8879970
  50.5573570  90.2450930  46.4469820  50.2286930  89.4302690  46.0671550
  51.5055870  90.2020740  46.3235510  47.3976410  88.9549900  44.0021010
  46.6148200  89.4295400  44.2817770  47.1039340  88.0504730  43.8934190
  51.9497480  89.6573000  42.0470100  52.3905570  89.6018100  41.1991700
  51.6805070  90.5731010  42.1180280  53.8136050  89.2888240  40.0578920
  53.7524450  88.3449460  39.9109940  54.5928080  89.3968330  40.6032380
  38.7416820  89.2597380  36.5234730  39.4996180  89.3726260  35.9498760
  38.2793990  90.0966580  36.4778160  45.2830630  91.3736650  39.5137040
  44.4705140  90.9993540  39.1732920  45.7872270  90.6181730  39.8158230
  49.7855610  88.0379100  40.7520110  50.3884980  88.6099310  41.2268630
  49.0448600  88.6018540  40.5294010  52.9290210  88.4400660  36.0260390
  53.1240840  89.3384110  36.2927820  52.1420080  88.2087740  36.5193340
  41.1141970  89.7861430  35.0636700  41.6434730  88.9991230  34.9344650
  41.7470290  90.4652620  35.2972230  43.3079810  89.5236570  38.1182090
  42.6782550  88.8223880  38.2852220  42.7684950  90.2840700  37.9015250
  43.4335370  88.8020550  50.5534580  43.1519640  89.3054150  49.7895400
  43.8155070  88.0042300  50.1876710  50.0350830  88.2174130  51.1315050
  49.9216280  88.5368740  52.0266570  50.8520570  88.6186640  50.8352330
  48.9408980  96.2366600  21.4949790  48.8603030  95.3221210  21.2241500
  48.5273400  96.7333670  20.7889500  47.0727020  98.0145620  23.3759060
  46.2969120  97.5346060  23.6657630  47.7239950  97.3351270  23.2015220
  41.0892850  98.3265430  24.2534820  40.2577730  98.0714140  24.6531330
  41.6973830  98.3976200  24.9892740  39.4984800  93.2867320  18.0377210
  38.6101500  93.6283290  17.9357090  39.7825990  93.0867640  17.1458040
  37.4617810  95.8872970  23.9216910  38.0333920  95.1195170  23.9220550
  37.4619350  96.1861730  23.0123520  38.7042680  91.2957330  25.7085840
  38.5245520  90.3983080  25.9888600  38.3022760  91.8429200  26.3832790
  47.5441180  93.4973190  23.6098150  47.9206000  92.6245070  23.4971820
  47.4460690  93.8331890  22.7188590  41.6746190  91.8698820  19.0715590
  41.7812940  92.7702550  19.3784350  40.7638550  91.8216790  18.7810240
  51.3265300  90.9923630  20.5426490  52.1474920  90.5020200  20.5851970
  51.3599380  91.5821290  21.2958330  39.3229350  93.7917830  24.3168180
  40.0039460  94.0556200  24.9355580  39.0077400  92.9518700  24.6506190
  43.5153920  94.8385190  23.4040770  44.0232140  95.3366160  24.0445790
  44.0467160  94.0620390  23.2280130  55.6164850  93.0090380  27.1070120
  54.9117020  93.3972090  26.5885230  55.8822770  93.7040670  27.7091050
  41.7990020  89.4783750  27.6704190  41.8008460  89.9956140  26.8650090
  40.9694330  89.0013930  27.6474120  51.5626780  92.9324010  23.3154030
  50.8582350  93.2208900  23.8957140  51.9238940  93.7424120  22.9553590
  41.4805350  91.1893710  25.6774640  41.8222160  92.0335760  25.3828510
  40.5421160  91.3377450  25.7939980  54.6313700  92.3778800  23.7063240
  53.6838610  92.4117780  23.8378670  54.9563690  93.1917750  24.0912600
  45.1633240  88.6775980  22.0019230  45.4708220  88.1222870  21.2854730
  44.2333940  88.8120440  21.8192220  47.5514000  96.7424810  18.7379350
  46.6243280  96.6762190  18.9667820  47.7038820  97.6804940  18.6234590
  47.5383080  93.0141810  15.7346510  46.5986750  93.1755770  15.8198970
  47.8566340  93.7327490  15.1882500  54.0595840  97.6960330  25.7125540
  53.2314470  97.7653420  25.2375670  54.6546320  98.2814640  25.2441370
  51.5811290  98.3045110  19.2414600  50.9623710  97.9664660  18.5940900
  51.5635740  97.6604870  19.9493790  51.0237850  94.4829650  26.6580410
  50.6109030  95.3083360  26.9120400  50.2913800  93.8974690  26.4656770
  43.1570640  97.2689550  21.5199080  42.7527640  96.5566800  21.0244980
  43.2433760  96.9242790  22.4087120  41.8699260  94.0432760  25.2998120
  42.4213850  94.1528100  24.5251370  42.3842770  94.4170360  26.0153350
  49.7575990  97.5431920  16.2487350  50.1969270  96.7054350  16.1025170
  50.4704410  98.1761320  16.3351490  41.5441990  97.5652120  28.9103460
  41.4049760  98.4374920  29.2790860  40.6623350  97.2224930  28.7651400
  53.3393130  88.7974730  14.5628390  53.0265790  88.8901560  15.4627460
  54.1005600  89.3755760  14.5125820  39.8575270  96.1634530  19.0205730
  39.7372870  96.8896620  18.4087000  39.5476160  95.3937440  18.5433640
  54.5494420  93.5346230  30.5402530  53.9338690  94.0425900  30.0117990
  54.2290840  92.6344560  30.4828470  42.3238930  89.5069600  22.4029400
  41.8807080  90.2879140  22.0713920  42.8823920  89.8299490  23.1100340
  46.6108740  92.3738120  28.0064720  46.1488110  92.5821140  28.8184660
  46.2086850  91.5597470  27.7035390  51.6113250  93.5947070  29.1361380
  50.7606840  93.2952820  29.4570450  51.4515040  93.8389080  28.2245200
  48.7062960  95.0948820  31.2360170  49.0316370  94.2612570  30.8962400
  49.4943290  95.6177340  31.3838500  45.4397750  89.1280300  17.2835230
  44.8151930  89.1240170  18.0088540  45.3527870  88.2611260  16.8871200
  44.3614830  90.0516930  24.2619000  44.6587160  90.9579760  24.1811020
  44.9100390  89.5635710  23.6478570  42.1153150  94.6303170  20.1310650
  41.8894070  94.4140340  21.0357270  41.3345680  95.0631630  19.7856620
  49.3450910  94.6366540  18.7301300  48.7459800  95.3602340  18.5464920
  49.8930520  94.5743320  17.9477750  44.5552360  95.5288750  30.7970920
  44.4595960  94.5883480  30.6471320  45.3984340  95.7503820  30.4018990
  47.9515780  93.2730080  20.7604580  48.3445350  93.5902280  19.9473270
  48.3132630  92.3941960  20.8749100  39.6862900  91.9402420  28.9504700
  39.2926290  92.7877630  29.1577480  38.9981300  91.3028790  29.1413340
  46.2607950  92.0237390  32.0201440  45.5706270  91.8309590  32.6547530
  47.0040250  92.3072030  32.5525740  36.9879950  89.8630880  22.9834780
  36.6993000  90.4333740  23.6959760  37.7325710  89.3835330  23.3466010
  37.1750180  93.8051000  14.1937500  37.0924850  94.7481760  14.3352490
  36.8233240  93.6625910  13.3149850  48.5370920  95.8635830  24.8555360
  47.8052040  96.3722640  25.2045460  48.1395260  95.0465810  24.5544140
  44.9748310  92.5390030  23.2607850  44.9784370  92.0979980  22.4112390
  45.8699430  92.8607360  23.3679670  40.8250690  92.4216520  22.2202060
  40.4850740  92.8991750  22.9769110  40.0628010  91.9681640  21.8603160
  45.0368460  93.5402110  16.2514610  45.1581280  93.4988590  17.2000430
  44.6516970  94.4026260  16.0961340  48.9996830  91.3169510  24.2678300
  49.0169570  91.7678160  25.1120150  48.7512410  90.4175150  24.4811740
  44.0489960  95.8503250  15.6497910  43.4806860  95.4021500  15.0233820
  44.7578960  96.2096030  15.1163060  52.4267580  88.7301690  30.1064680
  52.7513350  87.9991350  30.6322660  52.4624090  88.4115330  29.2045670
  45.2756280  96.5991810  25.0073260  45.6426410  96.1250380  25.7534600
  45.0861340  97.4733380  25.3481600  38.1396770  91.3435500  21.1366730
  37.8543690  90.9791170  21.9745350  38.0775630  90.6115960  20.5229870
  43.0655650  95.6400450  27.3257470  42.7612720  96.5192430  27.5507830
  44.0202110  95.7000240  27.3614910  47.8135360  90.2364760  17.8580100
  46.9999970  89.7377930  17.7825410  47.6197310  91.0763010  17.4416450
  50.5283750  94.6084410  16.1542260  51.4163370  94.9201640  15.9793600
  50.4988840  93.7356660  15.7622840  39.1219380  96.4803190  28.4728830
  38.7634320  97.1457040  29.0602170  38.8273940  95.6486740  28.8441450
  42.3232500  96.9387430  31.3568380  42.0232640  97.0844610  30.4596200
  43.0943740  96.3792720  31.2641770  52.7998020  95.9196250  15.6222120
  52.7161740  96.3510470  14.7718560  53.5192210  96.3794600  16.0548940
  37.6327430  96.4794450  15.0963430  38.5022280  96.7619250  15.3799350
  37.1417750  97.2930320  14.9812240  44.7962240  97.8667660  19.2171710
  45.2525020  98.6772910  19.4431900  44.4450450  97.5490800  20.0490200
  40.6974020  88.2105310  19.6894230  40.5688650  88.2023210  20.6379150
  39.8736040  88.5488400  19.3385240  37.6967950  89.9696430  29.1500930
  36.9826470  90.1693350  29.7553540  38.1162990  89.1936000  29.5215730
  49.1906730  92.4618740  26.9002380  49.5587550  91.6413950  27.2281950
  48.3304930  92.5220630  27.3158030  52.5568760  91.4175680  17.7089940
  51.9281920  91.5221350  16.9948170  52.0620680  91.6372460  18.4983820
  44.5252790  93.6961630  19.1247820  43.8168940  94.1647970  19.5661430
  44.8097270  93.0383640  19.7593010  46.1508720  95.1158330  27.1240350
  46.6493970  95.5904150  27.7892200  46.2931670  94.1921850  27.3310380
  48.5568220  90.4212290  20.5643610  48.4336000  90.4398420  19.6153120
  49.5052780  90.4691230  20.6842010  42.7287810  92.0046710  16.4998530
  43.5778340  92.4416860  16.4338720  42.3619080  92.3166970  17.3270590
  53.3575580  91.3326290  27.9668740  52.8549180  92.0731690  28.3062550
  54.1732240  91.7210290  27.6505530  51.6497590  96.5759470  21.4130100
  50.7087730  96.5909700  21.5877790  51.9641660  95.7895430  21.8590400
  41.6279230  98.2579070  14.9734060  42.3942500  98.1460430  15.5359490
  41.7053920  97.5617040  14.3210830  40.3225990  95.6904140  15.6566950
  40.4029580  94.7431650  15.7684350  41.2145740  96.0211020  15.7627610
  37.8496790  97.5119060  30.8923120  38.3535810  96.9326340  31.4639350
  37.1104210  97.7959290  31.4299490  39.8819870  95.6548650  31.7873190
  39.9225210  95.3562520  32.6958420  40.7365370  96.0556260  31.6280710
  43.6598260  98.2544200  16.9476700  44.0814680  98.0884070  17.7908090
  43.7849100  97.4444430  16.4531840  41.8225680  94.2340750  29.7547680
  41.2922140  93.7431700  29.1271020  42.4913750  94.6624950  29.2205610
  46.1725900  97.2781810  14.1953800  46.6931560  96.5630830  13.8294950
  46.8194300  97.9167680  14.4954310  51.1925910  96.0406370  31.5228020
  51.7746680  95.2858690  31.4348500  51.3687680  96.5713810  30.7459500
  42.3097980  91.2003120  29.8344970  42.2154850  90.5823870  29.1095840
  41.7295370  91.9269410  29.6074880  45.0759420  89.7576360  26.8672360
  44.6276720  89.7800620  26.0217910  44.4424620  89.3595380  27.4642660
  47.8182870  96.3846870  28.8722640  47.9379080  95.7888010  29.6117480
  48.6776870  96.4216560  28.4523940  50.1570770  96.9384060  27.4485150
  49.6305990  97.4626680  26.8450290  50.5002110  97.5711450  28.0794880
  42.5557160  94.3277430  13.8934860  42.3546220  93.4644790  14.2548200
  42.3849210  94.2410790  12.9556460  44.5851640  92.9268220  30.1298460
  45.1751330  92.6184070  30.8176280  43.7671880  92.4547970  30.2858360
  49.4045070  92.5434030  30.3631480  48.7160590  91.8815570  30.2981470
  50.1251090  92.0972300  30.8079940  50.0345470  89.1385660  16.4221740
  50.3147760  88.2953560  16.7781160  49.2611200  89.3708770  16.9360490
  41.3539960  91.4278050  13.8812740  41.6565860  91.4345480  12.9731890
  42.0934550  91.0775910  14.3780400  44.5724890  90.3712670  14.8668940
  44.2246890  89.6936660  14.2871390  44.7737660  89.9102180  15.6812330
  37.9130530  96.9000320  21.2633310  37.2579370  96.6311960  20.6193010
  38.7508480  96.7904800  20.8135290  50.8620970  91.6941610  15.4851800
  51.2805850  91.5072590  14.6448460  50.5557030  90.8420660  15.7954730
  54.3610700  96.6065750  19.1827600  53.9854300  95.8393680  18.7508890
  53.6313820  96.9888450  19.6702530  38.9506460  97.2852890  25.8036650
  39.3179500  97.1980290  26.6832670  38.3817280  96.5219440  25.7043510
  53.7510320  95.7537270  28.8167120  53.5196410  95.5250020  27.9165070
  54.0114870  96.6736820  28.7712010  38.5022460  94.1961980  29.7095070
  37.6078510  94.1628740  30.0488780  39.0420010  94.3948770  30.4746320
  52.1898390  90.9793700  31.5946820  53.0668570  90.9877100  31.9780820
  52.2019230  90.2424540  30.9839170  37.1268610  94.1099250  17.2058640
  36.2232690  94.3729450  17.0310300  37.6109230  94.3810420  16.4258600
  53.6361660  94.8323240  22.4834840  54.1599140  94.3385890  21.8525010
  54.2221080  94.9673600  23.2282410  53.8151380  94.9163110  26.0054390
  52.8654090  94.8826650  26.1199380  53.9964390  95.8263220  25.7704160
  39.6695820  93.1664790  15.1153020  40.3787520  92.7448010  14.6300300
  38.9535760  93.2340020  14.4836370  39.3169980  89.2204120  14.1555670
  40.0398110  89.7613060  14.4736890  39.5894500  88.9467540  13.2797210
  53.1261630  94.0896590  18.4227250  53.6220750  93.8567460  19.2076130
  52.9277700  93.2508430  18.0064890  39.0062170  88.4710310  24.0578290
  39.6538360  87.9207690  23.6173450  39.4264010  88.7253460  24.8794100
  54.5548790  92.7257540  20.9564930  54.4448070  92.5713580  21.8947200
  55.3156380  92.1978480  20.7140340  52.9014510  88.6651670  27.4147930
  53.5386730  89.2785810  27.7807120  53.0489400  88.7012330  26.4697160
  55.4439060  90.5565460  14.1971070  56.3688370  90.4246640  13.9889360
  55.4214850  90.6358280  15.1507520  55.5177550  91.3276120  16.8227780
  54.7229050  91.2621240  17.3520690  55.7220830  92.2626760  16.8113130
  38.7594170  88.6265980  26.8003610  38.4108990  89.0829800  27.5661790
  38.4281870  87.7323110  26.8826040  46.2718990  89.8177860  30.3223030
  46.2107880  90.4099690  31.0718440  47.2119370  89.7103820  30.1773290
  48.9093550  89.4747920  29.9615320  49.5233960  89.7927210  29.2996400
  49.4543110  88.9896510  30.5811180  39.4314810  88.1542180  30.0754380
  39.9797800  87.9730230  29.3120490  39.4970120  87.3636290  30.6110690
  49.6501590  88.0380060  26.2884610  48.7761430  88.3715170  26.0857540
  49.5412340  87.5653240  27.1136480  50.5573570  90.2450930  27.6726330
  50.2286930  89.4302690  27.2928060  51.5055870  90.2020740  27.5492020
  47.3976410  88.9549900  25.2277520  46.6148200  89.4295400  25.5074280
  47.1039340  88.0504730  25.1190700  51.9497480  89.6573000  23.2726610
  52.3905570  89.6018100  22.4248210  51.6805070  90.5731010  23.3436790
  53.8136050  89.2888240  21.2835430  53.7524450  88.3449460  21.1366450
  54.5928080  89.3968330  21.8288890  38.7416820  89.2597380  17.7491240
  39.4996180  89.3726260  17.1755270  38.2793990  90.0966580  17.7034670
  45.2830630  91.3736650  20.7393550  44.4705140  90.9993540  20.3989430
  45.7872270  90.6181730  21.0414740  49.7855610  88.0379100  21.9776620
  50.3884980  88.6099310  22.4525140  49.0448600  88.6018540  21.7550520
  52.9290210  88.4400660  17.2516900  53.1240840  89.3384110  17.5184330
  52.1420080  88.2087740  17.7449850  41.1141970  89.7861430  16.2893210
  41.6434730  88.9991230  16.1601160  41.7470290  90.4652620  16.5228740
  43.3079810  89.5236570  19.3438600  42.6782550  88.8223880  19.5108730
  42.7684950  90.2840700  19.1271760  43.4335370  88.8020550  31.7791090
  43.1519640  89.3054150  31.0151910  43.8155070  88.0042300  31.4133220
  50.0350830  88.2174130  32.3571560  49.9216280  88.5368740  33.2523080
  50.8520570  88.6186640  32.0608840  48.9408980  96.2366600   2.7206300
  48.8603030  95.3221210   2.4498010  48.5273400  96.7333670   2.0146010
  47.0727020  98.0145620   4.6015570  46.2969120  97.5346060   4.8914140
  47.7239950  97.3351270   4.4271730  41.0892850  98.3265430   5.4791330
  40.2577730  98.0714140   5.8787840  41.6973830  98.3976200   6.2149250
  37.4617810  95.8872970   5.1473420  38.0333920  95.1195170   5.1477060
  37.4619350  96.1861730   4.2380030  38.7042680  91.2957330   6.9342350
  38.5245520  90.3983080   7.2145110  38.3022760  91.8429200   7.6089300
  47.5441180  93.4973190   4.8354660  47.9206000  92.6245070   4.7228330
  47.4460690  93.8331890   3.9445100  51.3265300  90.9923630   1.7683000
  52.1474920  90.5020200   1.8108480  51.3599380  91.5821290   2.5214840
  39.3229350  93.7917830   5.5424690  40.0039460  94.0556200   6.1612090
  39.0077400  92.9518700   5.8762700  43.5153920  94.8385190   4.6297280
  44.0232140  95.3366160   5.2702300  44.0467160  94.0620390   4.4536640
  55.6164850  93.0090380   8.3326630  54.9117020  93.3972090   7.8141740
  55.8822770  93.7040670   8.9347560  41.7990020  89.4783750   8.8960700
  41.8008460  89.9956140   8.0906600  40.9694330  89.0013930   8.8730630
  51.5626780  92.9324010   4.5410540  50.8582350  93.2208900   5.1213650
  51.9238940  93.7424120   4.1810100  41.4805350  91.1893710   6.9031150
  41.8222160  92.0335760   6.6085020  40.5421160  91.3377450   7.0196490
  54.6313700  92.3778800   4.9319750  53.6838610  92.4117780   5.0635180
  54.9563690  93.1917750   5.3169110  45.1633240  88.6775980   3.2275740
  45.4708220  88.1222870   2.5111240  44.2333940  88.8120440   3.0448730
  54.0595840  97.6960330   6.9382050  53.2314470  97.7653420   6.4632180
  54.6546320  98.2814640   6.4697880  51.0237850  94.4829650   7.8836920
  50.6109030  95.3083360   8.1376910  50.2913800  93.8974690   7.6913280
  43.1570640  97.2689550   2.7455590  42.7527640  96.5566800   2.2501490
  43.2433760  96.9242790   3.6343630  41.8699260  94.0432760   6.5254630
  42.4213850  94.1528100   5.7507880  42.3842770  94.4170360   7.2409860
  41.5441990  97.5652120  10.1359970  41.4049760  98.4374920  10.5047370
  40.6623350  97.2224930   9.9907910  54.5494420  93.5346230  11.7659040
  53.9338690  94.0425900  11.2374500  54.2290840  92.6344560  11.7084980
  42.3238930  89.5069600   3.6285910  41.8807080  90.2879140   3.2970430
  42.8823920  89.8299490   4.3356850  46.6108740  92.3738120   9.2321230
  46.1488110  92.5821140  10.0441170  46.2086850  91.5597470   8.9291900
  51.6113250  93.5947070  10.3617890  50.7606840  93.2952820  10.6826960
  51.4515040  93.8389080   9.4501710  48.7062960  95.0948820  12.4616680
  49.0316370  94.2612570  12.1218910  49.4943290  95.6177340  12.6095010
  44.3614830  90.0516930   5.4875510  44.6587160  90.9579760   5.4067530
  44.9100390  89.5635710   4.8735080  44.5552360  95.5288750  12.0227430
  44.4595960  94.5883480  11.8727830  45.3984340  95.7503820  11.6275500
  39.6862900  91.9402420  10.1761210  39.2926290  92.7877630  10.3833990
  38.9981300  91.3028790  10.3669850  46.2607950  92.0237390  13.2457950
  45.5706270  91.8309590  13.8804040  47.0040250  92.3072030  13.7782250
  36.9879950  89.8630880   4.2091290  36.6993000  90.4333740   4.9216270
  37.7325710  89.3835330   4.5722520  48.5370920  95.8635830   6.0811870
  47.8052040  96.3722640   6.4301970  48.1395260  95.0465810   5.7800650
  44.9748310  92.5390030   4.4864360  44.9784370  92.0979980   3.6368900
  45.8699430  92.8607360   4.5936180  40.8250690  92.4216520   3.4458570
  40.4850740  92.8991750   4.2025620  40.0628010  91.9681640   3.0859670
  48.9996830  91.3169510   5.4934810  49.0169570  91.7678160   6.3376660
  48.7512410  90.4175150   5.7068250  52.4267580  88.7301690  11.3321190
  52.7513350  87.9991350  11.8579170  52.4624090  88.4115330  10.4302180
  45.2756280  96.5991810   6.2329770  45.6426410  96.1250380   6.9791110
  45.0861340  97.4733380   6.5738110  38.1396770  91.3435500   2.3623240
  37.8543690  90.9791170   3.2001860  38.0775630  90.6115960   1.7486380
  43.0655650  95.6400450   8.5513980  42.7612720  96.5192430   8.7764340
  44.0202110  95.7000240   8.5871420  39.1219380  96.4803190   9.6985340
  38.7634320  97.1457040  10.2858680  38.8273940  95.6486740  10.0697960
  42.3232500  96.9387430  12.5824890  42.0232640  97.0844610  11.6852710
  43.0943740  96.3792720  12.4898280  37.6967950  89.9696430  10.3757440
  36.9826470  90.1693350  10.9810050  38.1162990  89.1936000  10.7472240
  49.1906730  92.4618740   8.1258890  49.5587550  91.6413950   8.4538460
  48.3304930  92.5220630   8.5414540  46.1508720  95.1158330   8.3496860
  46.6493970  95.5904150   9.0148710  46.2931670  94.1921850   8.5566890
  53.3575580  91.3326290   9.1925250  52.8549180  92.0731690   9.5319060
  54.1732240  91.7210290   8.8762040  51.6497590  96.5759470   2.6386610
  50.7087730  96.5909700   2.8134300  51.9641660  95.7895430   3.0846910
  37.8496790  97.5119060  12.1179630  38.3535810  96.9326340  12.6895860
  37.1104210  97.7959290  12.6556000  39.8819870  95.6548650  13.0129700
  39.9225210  95.3562520  13.9214930  40.7365370  96.0556260  12.8537220
  41.8225680  94.2340750  10.9804190  41.2922140  93.7431700  10.3527530
  42.4913750  94.6624950  10.4462120  51.1925910  96.0406370  12.7484530
  51.7746680  95.2858690  12.6605010  51.3687680  96.5713810  11.9716010
  42.3097980  91.2003120  11.0601480  42.2154850  90.5823870  10.3352350
  41.7295370  91.9269410  10.8331390  45.0759420  89.7576360   8.0928870
  44.6276720  89.7800620   7.2474420  44.4424620  89.3595380   8.6899170
  47.8182870  96.3846870  10.0979150  47.9379080  95.7888010  10.8373990
  48.6776870  96.4216560   9.6780450  50.1570770  96.9384060   8.6741660
  49.6305990  97.4626680   8.0706800  50.5002110  97.5711450   9.3051390
  44.5851640  92.9268220  11.3554970  45.1751330  92.6184070  12.0432790
  43.7671880  92.4547970  11.5114870  49.4045070  92.5434030  11.5887990
  48.7160590  91.8815570  11.5237980  50.1251090  92.0972300  12.0336450
  37.9130530  96.9000320   2.4889820  37.2579370  96.6311960   1.8449520
  38.7508480  96.7904800   2.0391800  38.9506460  97.2852890   7.0293160
  39.3179500  97.1980290   7.9089180  38.3817280  96.5219440   6.9300020
  53.7510320  95.7537270  10.0423630  53.5196410  95.5250020   9.1421580
  54.0114870  96.6736820   9.9968520  38.5022460  94.1961980  10.9351580
  37.6078510  94.1628740  11.2745290  39.0420010  94.3948770  11.7002830
  52.1898390  90.9793700  12.8203330  53.0668570  90.9877100  13.2037330
  52.2019230  90.2424540  12.2095680  53.6361660  94.8323240   3.7091350
  54.1599140  94.3385890   3.0781520  54.2221080  94.9673600   4.4538920
  53.8151380  94.9163110   7.2310900  52.8654090  94.8826650   7.3455890
  53.9964390  95.8263220   6.9960670  39.0062170  88.4710310   5.2834800
  39.6538360  87.9207690   4.8429960  39.4264010  88.7253460   6.1050610
  54.5548790  92.7257540   2.1821440  54.4448070  92.5713580   3.1203710
  55.3156380  92.1978480   1.9396850  52.9014510  88.6651670   8.6404440
  53.5386730  89.2785810   9.0063630  53.0489400  88.7012330   7.6953670
  38.7594170  88.6265980   8.0260120  38.4108990  89.0829800   8.7918300
  38.4281870  87.7323110   8.1082550  46.2718990  89.8177860  11.5479540
  46.2107880  90.4099690  12.2974950  47.2119370  89.7103820  11.4029800
  48.9093550  89.4747920  11.1871830  49.5233960  89.7927210  10.5252910
  49.4543110  88.9896510  11.8067690  39.4314810  88.1542180  11.3010890
  39.9797800  87.9730230  10.5377000  39.4970120  87.3636290  11.8367200
  49.6501590  88.0380060   7.5141120  48.7761430  88.3715170   7.3114050
  49.5412340  87.5653240   8.3392990  50.5573570  90.2450930   8.8982840
  50.2286930  89.4302690   8.5184570  51.5055870  90.2020740   8.7748530
  47.3976410  88.9549900   6.4534030  46.6148200  89.4295400   6.7330790
  47.1039340  88.0504730   6.3447210  51.9497480  89.6573000   4.4983120
  52.3905570  89.6018100   3.6504720  51.6805070  90.5731010   4.5693300
  53.8136050  89.2888240   2.5091940  53.7524450  88.3449460   2.3622960
  54.5928080  89.3968330   3.0545400  45.2830630  91.3736650   1.9650060
  44.4705140  90.9993540   1.6245940  45.7872270  90.6181730   2.2671250
  49.7855610  88.0379100   3.2033130  50.3884980  88.6099310   3.6781650
  49.0448600  88.6018540   2.9807030  43.4335370  88.8020550  13.0047600
  43.1519640  89.3054150  12.2408420  43.8155070  88.0042300  12.6389730
  50.0350830  88.2174130  13.5828070  49.9216280  88.5368740  14.4779590
  50.8520570  88.6186640  13.2865350  48.9408980  77.4623110  59.0436770
  48.8603030  76.5477720  58.7728480  48.5273400  77.9590180  58.3376480
  47.0727020  79.2402130  60.9246040  46.2969120  78.7602570  61.2144610
  47.7239950  78.5607780  60.7502200  41.0892850  79.5521940  61.8021800
  40.2577730  79.2970650  62.2018310  41.6973830  79.6232710  62.5379720
  51.0934450  83.6462320  59.7045170  50.6315980  82.8749560  60.0332340
  51.9060000  83.6728390  60.2097620  41.0694110  83.5862030  61.9979820
  41.3722150  82.6959770  61.8190040  41.8137700  84.1432250  61.7702070
  39.4984800  74.5123830  55.5864190  38.6101500  74.8539800  55.4844070
  39.7825990  74.3124150  54.6945020  37.4617810  77.1129480  61.4703890
  38.0333920  76.3451680  61.4707530  37.4619350  77.4118240  60.5610500
  47.3197760  85.9320330  59.3249160  46.7009200  86.3877830  58.7543600
  48.1749540  86.0871790  58.9238860  46.5136010  81.9159320  60.9316200
  46.4444290  80.9749260  60.7705330  47.2755870  82.0060730  61.5038770
  47.5441180  74.7229700  61.1585130  47.9206000  73.8501580  61.0458800
  47.4460690  75.0588400  60.2675570  41.6746190  73.0955330  56.6202570
  41.7812940  73.9959060  56.9271330  40.7638550  73.0473300  56.3297220
  51.3265300  72.2180140  58.0913470  52.1474920  71.7276710  58.1338950
  51.3599380  72.8077800  58.8445310  39.3229350  75.0174340  61.8655160
  40.0039460  75.2812710  62.4842560  39.0077400  74.1775210  62.1993170
  43.5153920  76.0641700  60.9527750  44.0232140  76.5622670  61.5932770
  44.0467160  75.2876900  60.7767110  48.1861110  80.8159570  56.7181070
  47.5678380  81.2809020  56.1543790  48.6984360  81.5087050  57.1350580
  51.5626780  74.1580520  60.8641010  50.8582350  74.4465410  61.4444120
  51.9238940  74.9680630  60.5040570  41.4805350  72.4150220  63.2261620
  41.8222160  73.2592270  62.9315490  40.5421160  72.5633960  63.3426960
  37.5544310  81.5016100  54.0920700  37.1772290  81.9903200  53.3605600
  37.8117380  82.1741380  54.7227230  53.1789560  83.7755650  63.1268490
  52.4953080  84.4454760  63.1185160  53.7183850  83.9736300  62.3613350
  54.6313700  73.6035310  61.2550220  53.6838610  73.6374290  61.3865650
  54.9563690  74.4174260  61.6399580  45.1633240  69.9032490  59.5506210
  45.4708220  69.3479380  58.8341710  44.2333940  70.0376950  59.3679200
  50.7148300  85.6199780  61.8413670  50.7275460  85.2162070  60.9735930
  50.1623520  86.3947070  61.7375100  52.0093720  82.3416000  56.9303840
  51.8990050  81.3990330  57.0553260  52.0061970  82.7031640  57.8166600
  47.5514000  77.9681320  56.2866330  46.6243280  77.9018700  56.5154800
  47.7038820  78.9061450  56.1721570  47.5383080  74.2398320  53.2833490
  46.5986750  74.4012280  53.3685950  47.8566340  74.9584000  52.7369480
  54.0595840  78.9216840  63.2612520  53.2314470  78.9909930  62.7862650
  54.6546320  79.5071150  62.7928350  51.5811290  79.5301620  56.7901580
  50.9623710  79.1921170  56.1427880  51.5635740  78.8861380  57.4980770
  43.1570640  78.4946060  59.0686060  42.7527640  77.7823310  58.5731960
  43.2433760  78.1499300  59.9574100  43.6252340  82.1813620  61.2325270
  43.3280630  81.5759090  60.5533050  44.5752160  82.2190930  61.1214630
  49.7575990  78.7688430  53.7974330  50.1969270  77.9310860  53.6512150
  50.4704410  79.4017830  53.8838470  47.8671370  83.7084500  57.7655570
  48.3067280  84.4508830  57.3510960  47.8058260  83.9511070  58.6894530
  53.3393130  70.0231240  52.1115370  53.0265790  70.1158070  53.0114440
  54.1005600  70.6012270  52.0612800  39.8575270  77.3891040  56.5692710
  39.7372870  78.1153130  55.9573980  39.5476160  76.6193950  56.0920620
  37.4960640  80.5606180  62.3761350  37.5741060  80.6954950  61.4317070
  38.1102320  79.8522070  62.5689470  38.7408270  82.2606370  58.7867530
  38.3336350  82.4020960  57.9321130  39.6321280  81.9766530  58.5838740
  50.5341550  86.6953620  55.1218580  50.3742690  86.4056560  56.0200410
  50.3688260  85.9193750  54.5863810  43.0129930  86.4752150  56.8990200
  42.8372410  85.5587690  56.6858000  42.1585670  86.8339440  57.1388000
  50.2367680  84.2041180  53.6816580  49.5432840  84.2018470  53.0218860
  50.9790540  83.7800500  53.2510750  49.8017610  85.8303890  57.7565070
  50.2574560  85.0493270  58.0703690  50.1410130  86.5410710  58.3006250
  42.3238930  70.7326110  59.9516380  41.8807080  71.5135650  59.6200900
  42.8823920  71.0556000  60.6587320  45.4397750  70.3536810  54.8322210
  44.8151930  70.3496680  55.5575520  45.3527870  69.4867770  54.4358180
  44.3614830  71.2773440  61.8105980  44.6587160  72.1836270  61.7298000
  44.9100390  70.7892220  61.1965550  42.1153150  75.8559680  57.6797630
  41.8894070  75.6396850  58.5844250  41.3345680  76.2888140  57.3343600
  49.3450910  75.8623050  56.2788280  48.7459800  76.5858850  56.0951900
  49.8930520  75.7999830  55.4964730  47.9515780  74.4986590  58.3091560
  48.3445350  74.8158790  57.4960250  48.3132630  73.6198470  58.4236080
  36.9879950  71.0887390  60.5321760  36.6993000  71.6590250  61.2446740
  37.7325710  70.6091840  60.8952990  37.1750180  75.0307510  51.7424480
  37.0924850  75.9738270  51.8839470  36.8233240  74.8882420  50.8636830
  48.5370920  77.0892340  62.4042340  47.8052040  77.5979150  62.7532440
  48.1395260  76.2722320  62.1031120  44.9748310  73.7646540  60.8094830
  44.9784370  73.3236490  59.9599370  45.8699430  74.0863870  60.9166650
  40.8250690  73.6473030  59.7689040  40.4850740  74.1248260  60.5256090
  40.0628010  73.1938150  59.4090140  45.0368460  74.7658620  53.8001590
  45.1581280  74.7245100  54.7487410  44.6516970  75.6282770  53.6448320
  48.9996830  72.5426020  61.8165280  49.0169570  72.9934670  62.6607130
  48.7512410  71.6431660  62.0298720  44.0489960  77.0759760  53.1984890
  43.4806860  76.6278010  52.5720800  44.7578960  77.4352540  52.6650040
  45.2756280  77.8248320  62.5560240  45.6426410  77.3506890  63.3021580
  45.0861340  78.6989890  62.8968580  38.1396770  72.5692010  58.6853710
  37.8543690  72.2047680  59.5232330  38.0775630  71.8372470  58.0716850
  41.5937440  81.0717950  55.4711300  40.8199700  80.5315570  55.3110020
  42.3232070  80.5524560  55.1329060  52.3525420  80.0683310  61.2637690
  53.0724540  80.5638600  60.8733800  52.1507240  79.3901200  60.6191560
  47.8135360  71.4621270  55.4067080  46.9999970  70.9634440  55.3312390
  47.6197310  72.3019520  54.9903430  50.5283750  75.8340920  53.7029240
  51.4163370  76.1458150  53.5280580  50.4988840  74.9613170  53.3109820
  41.6374840  80.7398330  59.1090110  42.1553510  79.9366590  59.0547000
  41.1858860  80.6777470  59.9506940  46.5244340  82.0064610  54.3817410
  46.8660040  82.7506840  53.8860730  45.6957050  82.3195730  54.7442240
  52.7998020  77.1452760  53.1709100  52.7161740  77.5766980  52.3205540
  53.5192210  77.6051110  53.6035920  53.8285270  83.9995020  55.8991230
  53.1861430  83.3450640  56.1734950  53.4415930  84.4050110  55.1231900
  49.4071750  81.3280450  59.7462920  49.7595570  80.7308580  59.0864290
  48.5234080  81.0024680  59.9171170  45.4935030  82.0878140  57.1533330
  46.1806160  82.6347350  57.5340920  44.7067450  82.6318870  57.1882940
  37.6327430  77.7050960  52.6450410  38.5022280  77.9875760  52.9286330
  37.1417750  78.5186830  52.5299220  44.7962240  79.0924170  56.7658690
  45.2525020  79.9029420  56.9918880  44.4450450  78.7747310  57.5977180
  40.6974020  69.4361820  57.2381210  40.5688650  69.4279720  58.1866130
  39.8736040  69.7744910  56.8872220  48.3726930  82.6062860  62.7128440
  49.0149160  81.9056020  62.8260610  48.8976280  83.3861300  62.5325330
  52.2182650  82.8911480  52.4367580  51.9920230  82.1741920  53.0292220
  51.8278850  82.6423920  51.5989330  37.9998680  86.9178340  53.2112040
  38.3596320  87.5167680  52.5569310  37.8591020  87.4638230  53.9847070
  51.7998900  80.8083420  54.0981740  51.5120600  81.2696110  54.8859620
  52.5951070  80.3481190  54.3665960  44.0167300  84.3009540  54.0285710
  44.0077400  85.0339230  53.4130220  43.0965660  84.0541120  54.1212670
  39.6173940  79.5224430  54.7732470  39.0101890  80.2623330  54.7827770
  40.0923290  79.6123790  53.9470670  52.5568760  72.6432190  55.2576920
  51.9281920  72.7477860  54.5435150  52.0620680  72.8628970  56.0470800
  47.0026900  84.3637780  52.6910900  47.1038880  84.1601770  51.7612880
  46.1028640  84.1096060  52.8958680  44.5252790  74.9218140  56.6734800
  43.8168940  75.3904480  57.1148410  44.8097270  74.2640150  57.3079990
  48.5568220  71.6468800  58.1130590  48.4336000  71.6654930  57.1640100
  49.5052780  71.6947740  58.2328990  45.6445010  86.8824100  57.3858570
  45.8986510  86.8445490  56.4637940  44.6957490  86.7557430  57.3786820
  42.7287810  73.2303220  54.0485510  43.5778340  73.6673370  53.9825700
  42.3619080  73.5423480  54.8757570  51.6497590  77.8015980  58.9617080
  50.7087730  77.8166210  59.1364770  51.9641660  77.0151940  59.4077380
  41.6279230  79.4835580  52.5221040  42.3942500  79.3716940  53.0846470
  41.7053920  78.7873550  51.8697810  40.3225990  76.9160650  53.2053930
  40.4029580  75.9688160  53.3171330  41.2145740  77.2467530  53.3114590
  53.6523170  84.9724830  60.6371340  53.7770590  85.7956000  61.1095150
  54.5188730  84.7615560  60.2895490  41.1240700  87.0656040  60.3088470
  41.8603180  86.5171500  60.5797040  41.5081620  87.9312050  60.1694460
  38.0086180  83.1329610  56.1829980  37.0825960  83.3750750  56.1735390
  38.4742610  83.9603870  56.0614730  44.2343010  86.2386350  52.1314040
  45.0271620  86.5275180  51.6795830  43.7147360  85.8078520  51.4526520
  53.2873180  85.4656480  53.5550780  53.0014690  85.0521620  52.7404960
  53.0892730  86.3944190  53.4351300  44.7520410  81.4589760  51.9956390
  44.6471050  80.8442110  52.7217770  44.5844630  80.9355650  51.2119400
  47.9923140  80.5209790  52.5998380  47.4433240  80.9679090  53.2441120
  48.6142400  80.0159040  53.1236050  43.6598260  79.4800710  54.4963680
  44.0814680  79.3140580  55.3395070  43.7849100  78.6700940  54.0018820
  46.1725900  78.5038320  51.7440780  46.6931560  77.7887340  51.3781930
  46.8194300  79.1424190  52.0441290  42.5557160  75.5533940  51.4421840
  42.3546220  74.6901300  51.8035180  42.3849210  75.4667300  50.5043440
  50.0345470  70.3642170  53.9708720  50.3147760  69.5210070  54.3268140
  49.2611200  70.5965280  54.4847470  41.3539960  72.6534560  51.4299720
  41.6565860  72.6601990  50.5218870  42.0934550  72.3032420  51.9267380
  44.5724890  71.5969180  52.4155920  44.2246890  70.9193170  51.8358370
  44.7737660  71.1358690  53.2299310  46.7373930  86.5849930  54.0342520
  47.6324720  86.9234900  54.0561280  46.7691560  85.8629340  53.4066800
  40.3770090  81.9576980  52.2629520  40.8144960  82.5006650  52.9187100
  40.8617820  81.1323930  52.2725860  37.5915890  84.7466010  59.7149780
  37.9218900  83.8787070  59.4828420  38.0206890  84.9524530  60.5454740
  42.1877810  83.0775020  57.3751750  41.8873350  82.9539990  58.2755660
  42.0815300  82.2183610  56.9667480  38.0806100  85.6136600  62.4531410
  37.6437090  85.7937400  63.2855560  38.6483780  86.3711220  62.3113130
  54.9569730  82.8571420  52.0778430  54.1262690  82.9248070  52.5485660
  55.1341560  83.7475540  51.7745290  54.4126190  79.6018900  54.5812630
  55.1745100  80.1715550  54.6872320  54.4280560  79.0346100  55.3520940
  37.9130530  78.1256830  58.8120290  37.2579370  77.8568470  58.1679990
  38.7508480  78.0161310  58.3622270  55.4186160  80.4569000  59.4254560
  55.7894990  79.6736320  59.0190530  56.0588090  81.1458100  59.2471860
  54.4645360  79.8953270  51.7385150  54.7394200  80.8032150  51.6104370
  54.2756100  79.8315800  52.6747140  50.8620970  72.9198120  53.0338780
  51.2805850  72.7329100  52.1935440  50.5557030  72.0677170  53.3441710
  54.3610700  77.8322260  56.7314580  53.9854300  77.0650190  56.2995870
  53.6313820  78.2144960  57.2189510  37.1268610  75.3355760  54.7545620
  36.2232690  75.5985960  54.5797280  37.6109230  75.6066930  53.9745580
  53.6361660  76.0579750  60.0321820  54.1599140  75.5642400  59.4011990
  54.2221080  76.1930110  60.7769390  39.6695820  74.3921300  52.6640000
  40.3787520  73.9704520  52.1787280  38.9535760  74.4596530  52.0323350
  39.3169980  70.4460630  51.7042650  40.0398110  70.9869570  52.0223870
  39.5894500  70.1724050  50.8284190  53.1261630  75.3153100  55.9714230
  53.6220750  75.0823970  56.7563110  52.9277700  74.4764940  55.5551870
  39.0062170  69.6966820  61.6065270  39.6538360  69.1464200  61.1660430
  39.4264010  69.9509970  62.4281080  54.5548790  73.9514050  58.5051910
  54.4448070  73.7970090  59.4434180  55.3156380  73.4234990  58.2627320
  55.4439060  71.7821970  51.7458050  56.3688370  71.6503150  51.5376340
  55.4214850  71.8614790  52.6994500  55.5177550  72.5532630  54.3714760
  54.7229050  72.4877750  54.9007670  55.7220830  73.4883270  54.3600110
  52.4595970  86.5924180  58.3653150  53.0555040  86.2708750  57.6887570
  52.7174120  86.1196000  59.1566420  53.0108180  87.2419480  62.1950880
  52.5511150  87.9935290  61.8208900  52.3820640  86.5225950  62.1365680
  43.4403900  85.5507720  61.3699010  43.9568920  84.9395080  60.8447270
  44.0901280  86.0536500  61.8610020  46.1799400  86.4416210  62.1967990
  46.4677210  86.1870510  61.3201000  46.6922620  85.8893570  62.7873560
  47.3976410  70.1806410  62.7764500  46.6148200  70.6551910  63.0561260
  47.1039340  69.2761240  62.6677680  51.9497480  70.8829510  60.8213590
  52.3905570  70.8274610  59.9735190  51.6805070  71.7987520  60.8923770
  53.8136050  70.5144750  58.8322410  53.7524450  69.5705970  58.6853430
  54.5928080  70.6224840  59.3775870  38.1188800  86.6537110  57.7946360
  37.9510840  86.0207790  58.4928250  37.2523310  86.8596510  57.4440550
  38.7416820  70.4853890  55.2978220  39.4996180  70.5982770  54.7242250
  38.2793990  71.3223090  55.2521650  45.2830630  72.5993160  58.2880530
  44.4705140  72.2250050  57.9476410  45.7872270  71.8438240  58.5901720
  49.7855610  69.2635610  59.5263600  50.3884980  69.8355820  60.0012120
  49.0448600  69.8275050  59.3037500  52.9290210  69.6657170  54.8003880
  53.1240840  70.5640620  55.0671310  52.1420080  69.4344250  55.2936830
  39.7251500  85.3470340  55.2396500  39.1999120  85.7278370  54.5358460
  39.6496080  85.9721110  55.9606210  41.1141970  71.0117940  53.8380190
  41.6434730  70.2247740  53.7088140  41.7470290  71.6909130  54.0715720
  43.3079810  70.7493080  56.8925580  42.6782550  70.0480390  57.0595710
  42.7684950  71.5097210  56.6758740  54.4816820  86.9057880  56.5610440
  54.6569010  86.2195620  55.9171360  53.7838390  87.4304930  56.1687110
  42.3244470  87.2952720  54.1145750  43.0563290  87.0112000  53.5669640
  42.5838140  87.0566000  55.0045130  41.4859260  83.4117450  54.1192080
  40.8568140  83.8802550  54.6677910  41.6007090  82.5666670  54.5538270
  48.9408980  77.4623110  40.2693280  48.8603030  76.5477720  39.9984990
  48.5273400  77.9590180  39.5632990  47.0727020  79.2402130  42.1502550
  46.2969120  78.7602570  42.4401120  47.7239950  78.5607780  41.9758710
  41.0892850  79.5521940  43.0278310  40.2577730  79.2970650  43.4274820
  41.6973830  79.6232710  43.7636230  51.0934450  83.6462320  40.9301680
  50.6315980  82.8749560  41.2588850  51.9060000  83.6728390  41.4354130
  41.0694110  83.5862030  43.2236330  41.3722150  82.6959770  43.0446550
  41.8137700  84.1432250  42.9958580  39.4984800  74.5123830  36.8120700
  38.6101500  74.8539800  36.7100580  39.7825990  74.3124150  35.9201530
  37.4617810  77.1129480  42.6960400  38.0333920  76.3451680  42.6964040
  37.4619350  77.4118240  41.7867010  47.3197760  85.9320330  40.5505670
  46.7009200  86.3877830  39.9800110  48.1749540  86.0871790  40.1495370
  46.5136010  81.9159320  42.1572710  46.4444290  80.9749260  41.9961840
  47.2755870  82.0060730  42.7295280  38.7042680  72.5213840  44.4829330
  38.5245520  71.6239590  44.7632090  38.3022760  73.0685710  45.1576280
  47.5441180  74.7229700  42.3841640  47.9206000  73.8501580  42.2715310
  47.4460690  75.0588400  41.4932080  41.6746190  73.0955330  37.8459080
  41.7812940  73.9959060  38.1527840  40.7638550  73.0473300  37.5553730
  39.3229350  75.0174340  43.0911670  40.0039460  75.2812710  43.7099070
  39.0077400  74.1775210  43.4249680  43.5153920  76.0641700  42.1784260
  44.0232140  76.5622670  42.8189280  44.0467160  75.2876900  42.0023620
  55.6164850  74.2346890  45.8813610  54.9117020  74.6228600  45.3628720
  55.8822770  74.9297180  46.4834540  41.7990020  70.7040260  46.4447680
  41.8008460  71.2212650  45.6393580  40.9694330  70.2270440  46.4217610
  48.1861110  80.8159570  37.9437580  47.5678380  81.2809020  37.3800300
  48.6984360  81.5087050  38.3607090  43.0492870  80.3435440  44.6221180
  42.7162250  80.9704360  45.2642250  43.2259550  80.8697320  43.8422850
  51.5626780  74.1580520  42.0897520  50.8582350  74.4465410  42.6700630
  51.9238940  74.9680630  41.7297080  41.4805350  72.4150220  44.4518130
  41.8222160  73.2592270  44.1572000  40.5421160  72.5633960  44.5683470
  42.2611970  82.3116240  46.4370360  42.8785970  82.9867320  46.1554810
  41.4005090  82.7204220  46.3457860  37.5544310  81.5016100  35.3177210
  37.1772290  81.9903200  34.5862110  37.8117380  82.1741380  35.9483740
  53.1789560  83.7755650  44.3525000  52.4953080  84.4454760  44.3441670
  53.7183850  83.9736300  43.5869860  54.6313700  73.6035310  42.4806730
  53.6838610  73.6374290  42.6122160  54.9563690  74.4174260  42.8656090
  45.1633240  69.9032490  40.7762720  45.4708220  69.3479380  40.0598220
  44.2333940  70.0376950  40.5935710  50.7148300  85.6199780  43.0670180
  50.7275460  85.2162070  42.1992440  50.1623520  86.3947070  42.9631610
  52.0093720  82.3416000  38.1560350  51.8990050  81.3990330  38.2809770
  52.0061970  82.7031640  39.0423110  50.1133740  80.5229620  44.3952790
  50.5302530  80.3089730  43.5606250  50.8373560  80.7802410  44.9661410
  47.5514000  77.9681320  37.5122840  46.6243280  77.9018700  37.7411310
  47.7038820  78.9061450  37.3978080  47.5383080  74.2398320  34.5090000
  46.5986750  74.4012280  34.5942460  47.8566340  74.9584000  33.9625990
  54.0595840  78.9216840  44.4869030  53.2314470  78.9909930  44.0119160
  54.6546320  79.5071150  44.0184860  51.5811290  79.5301620  38.0158090
  50.9623710  79.1921170  37.3684390  51.5635740  78.8861380  38.7237280
  51.0237850  75.7086160  45.4323900  50.6109030  76.5339870  45.6863890
  50.2913800  75.1231200  45.2400260  43.1570640  78.4946060  40.2942570
  42.7527640  77.7823310  39.7988470  43.2433760  78.1499300  41.1830610
  43.6252340  82.1813620  42.4581780  43.3280630  81.5759090  41.7789560
  44.5752160  82.2190930  42.3471140  41.8699260  75.2689270  44.0741610
  42.4213850  75.3784610  43.2994860  42.3842770  75.6426870  44.7896840
  51.7137950  85.7545490  46.1204880  51.2368510  86.5617680  45.9277490
  51.0299740  85.1023820  46.2731090  42.7170770  81.9195310  49.1089580
  41.8199300  82.1435280  49.3562980  42.7423640  82.0430250  48.1600980
  49.7575990  78.7688430  35.0230840  50.1969270  77.9310860  34.8768660
  50.4704410  79.4017830  35.1094980  41.5441990  78.7908630  47.6846950
  41.4049760  79.6631430  48.0534350  40.6623350  78.4481440  47.5394890
  47.8671370  83.7084500  38.9912080  48.3067280  84.4508830  38.5767470
  47.8058260  83.9511070  39.9151040  43.3422340  84.7330330  49.8932100
  43.3137770  85.1373280  49.0260530  43.1787310  83.8040690  49.7303700
  39.8575270  77.3891040  37.7949220  39.7372870  78.1153130  37.1830490
  39.5476160  76.6193950  37.3177130  55.2937160  85.5157430  51.1896270
  55.7696880  85.9940320  51.8685350  55.9144320  85.4474920  50.4641770
  37.4960640  80.5606180  43.6017860  37.5741060  80.6954950  42.6573580
  38.1102320  79.8522070  43.7945980  38.7408270  82.2606370  40.0124040
  38.3336350  82.4020960  39.1577640  39.6321280  81.9766530  39.8095250
  54.6970410  82.7070280  48.3496280  54.8233470  82.4682160  47.4313460
  54.7391790  81.8754820  48.8218360  48.5587150  86.4098280  46.9191090
  49.0731820  86.3206290  47.7213520  47.7156230  86.7557980  47.2119000
  50.5341550  86.6953620  36.3475090  50.3742690  86.4056560  37.2456920
  50.3688260  85.9193750  35.8120320  43.0129930  86.4752150  38.1246710
  42.8372410  85.5587690  37.9114510  42.1585670  86.8339440  38.3644510
  50.2367680  84.2041180  34.9073090  49.5432840  84.2018470  34.2475370
  50.9790540  83.7800500  34.4767260  49.8017610  85.8303890  38.9821580
  50.2574560  85.0493270  39.2960200  50.1410130  86.5410710  39.5262760
  54.5494420  74.7602740  49.3146020  53.9338690  75.2682410  48.7861480
  54.2290840  73.8601070  49.2571960  37.5520160  81.6020350  46.1412320
  37.7151200  81.1325710  45.3231690  38.0172610  81.0943910  46.8061160
  42.3238930  70.7326110  41.1772890  41.8807080  71.5135650  40.8457410
  42.8823920  71.0556000  41.8843830  46.6108740  73.5994630  46.7808210
  46.1488110  73.8077650  47.5928150  46.2086850  72.7853980  46.4778880
  51.6113250  74.8203580  47.9104870  50.7606840  74.5209330  48.2313940
  51.4515040  75.0645590  46.9988690  48.7062960  76.3205330  50.0103660
  49.0316370  75.4869080  49.6705890  49.4943290  76.8433850  50.1581990
  44.3614830  71.2773440  43.0362490  44.6587160  72.1836270  42.9554510
  44.9100390  70.7892220  42.4222060  42.1153150  75.8559680  38.9054140
  41.8894070  75.6396850  39.8100760  41.3345680  76.2888140  38.5600110
  44.5552360  76.7545260  49.5714410  44.4595960  75.8139990  49.4214810
  45.3984340  76.9760330  49.1762480  47.9515780  74.4986590  39.5348070
  48.3445350  74.8158790  38.7216760  48.3132630  73.6198470  39.6492590
  39.6862900  73.1658930  47.7248190  39.2926290  74.0134140  47.9320970
  38.9981300  72.5285300  47.9156830  46.2607950  73.2493900  50.7944930
  45.5706270  73.0566100  51.4291020  47.0040250  73.5328540  51.3269230
  36.9879950  71.0887390  41.7578270  36.6993000  71.6590250  42.4703250
  37.7325710  70.6091840  42.1209500  37.1750180  75.0307510  32.9680990
  37.0924850  75.9738270  33.1095980  36.8233240  74.8882420  32.0893340
  48.5370920  77.0892340  43.6298850  47.8052040  77.5979150  43.9788950
  48.1395260  76.2722320  43.3287630  44.9748310  73.7646540  42.0351340
  44.9784370  73.3236490  41.1855880  45.8699430  74.0863870  42.1423160
  40.8250690  73.6473030  40.9945550  40.4850740  74.1248260  41.7512600
  40.0628010  73.1938150  40.6346650  45.0368460  74.7658620  35.0258100
  45.1581280  74.7245100  35.9743920  44.6516970  75.6282770  34.8704830
  48.9996830  72.5426020  43.0421790  49.0169570  72.9934670  43.8863640
  48.7512410  71.6431660  43.2555230  44.0489960  77.0759760  34.4241400
  43.4806860  76.6278010  33.7977310  44.7578960  77.4352540  33.8906550
  52.4267580  69.9558200  48.8808170  52.7513350  69.2247860  49.4066150
  52.4624090  69.6371840  47.9789160  39.1259140  80.9771780  48.3008130
  38.7413930  80.3365450  48.8991090  39.4371330  81.6807900  48.8702860
  45.2756280  77.8248320  43.7816750  45.6426410  77.3506890  44.5278090
  45.0861340  78.6989890  44.1225090  38.1396770  72.5692010  39.9110220
  37.8543690  72.2047680  40.7488840  38.0775630  71.8372470  39.2973360
  43.0655650  76.8656960  46.1000960  42.7612720  77.7448940  46.3251320
  44.0202110  76.9256750  46.1358400  41.5937440  81.0717950  36.6967810
  40.8199700  80.5315570  36.5366530  42.3232070  80.5524560  36.3585570
  52.3525420  80.0683310  42.4894200  53.0724540  80.5638600  42.0990310
  52.1507240  79.3901200  41.8448070  47.7344220  80.1392370  48.3763200
  47.6681530  79.2188040  48.1220790  47.1049360  80.2367810  49.0907840
  41.6374840  80.7398330  40.3346620  42.1553510  79.9366590  40.2803510
  41.1858860  80.6777470  41.1763450  46.5244340  82.0064610  35.6073920
  46.8660040  82.7506840  35.1117240  45.6957050  82.3195730  35.9698750
  39.1219380  77.7059700  47.2472320  38.7634320  78.3713550  47.8345660
  38.8273940  76.8743250  47.6184940  42.3232500  78.1643940  50.1311870
  42.0232640  78.3101120  49.2339690  43.0943740  77.6049230  50.0385260
  47.6660950  82.9612940  48.1267000  47.6805490  82.0293900  47.9085910
  46.9586050  83.0472700  48.7656770  53.8772160  79.6020280  47.4735580
  53.1520350  80.1949060  47.2764970  54.4047620  79.5943820  46.6748950
  53.8285270  83.9995020  37.1247740  53.1861430  83.3450640  37.3991460
  53.4415930  84.4050110  36.3488410  49.4071750  81.3280450  40.9719430
  49.7595570  80.7308580  40.3120800  48.5234080  81.0024680  41.1427680
  45.4935030  82.0878140  38.3789840  46.1806160  82.6347350  38.7597430
  44.7067450  82.6318870  38.4139450  37.6327430  77.7050960  33.8706920
  38.5022280  77.9875760  34.1542840  37.1417750  78.5186830  33.7555730
  44.7962240  79.0924170  37.9915200  45.2525020  79.9029420  38.2175390
  44.4450450  78.7747310  38.8233690  47.0994850  84.6030510  45.2207500
  47.7437070  84.8089890  45.8980920  47.4624290  83.8418910  44.7678350
  40.6974020  69.4361820  38.4637720  40.5688650  69.4279720  39.4122640
  39.8736040  69.7744910  38.1128730  48.3726930  82.6062860  43.9384950
  49.0149160  81.9056020  44.0517120  48.8976280  83.3861300  43.7581840
  52.2182650  82.8911480  33.6624090  51.9920230  82.1741920  34.2548730
  51.8278850  82.6423920  32.8245840  50.1464550  83.4057760  47.1421010
  50.4820790  83.9924450  47.8198930  49.2264890  83.2750470  47.3718800
  37.9998680  86.9178340  34.4368550  38.3596320  87.5167680  33.7825820
  37.8591020  87.4638230  35.2103580  37.6967950  71.1952940  47.9244420
  36.9826470  71.3949860  48.5297030  38.1162990  70.4192510  48.2959220
  51.7998900  80.8083420  35.3238250  51.5120600  81.2696110  36.1116130
  52.5951070  80.3481190  35.5922470  37.9840540  85.1833200  48.9110950
  38.0931660  84.2427940  48.7706340  37.3321100  85.4487950  48.2624680
  45.9753130  83.4549090  50.3109070  45.6550000  82.7358330  50.8554760
  45.3011490  84.1304160  50.3845130  44.0167300  84.3009540  35.2542220
  44.0077400  85.0339230  34.6386730  43.0965660  84.0541120  35.3469180
  39.6173940  79.5224430  35.9988980  39.0101890  80.2623330  36.0084280
  40.0923290  79.6123790  35.1727180  49.1906730  73.6875250  45.6745870
  49.5587550  72.8670460  46.0025440  48.3304930  73.7477140  46.0901520
  47.0026900  84.3637780  33.9167410  47.1038880  84.1601770  32.9869390
  46.1028640  84.1096060  34.1215190  44.5252790  74.9218140  37.8991310
  43.8168940  75.3904480  38.3404920  44.8097270  74.2640150  38.5336500
  46.1508720  76.3414840  45.8983840  46.6493970  76.8160660  46.5635690
  46.2931670  75.4178360  46.1053870  48.5568220  71.6468800  39.3387100
  48.4336000  71.6654930  38.3896610  49.5052780  71.6947740  39.4585500
  45.6445010  86.8824100  38.6115080  45.8986510  86.8445490  37.6894450
  44.6957490  86.7557430  38.6043330  42.7287810  73.2303220  35.2742020
  43.5778340  73.6673370  35.2082210  42.3619080  73.5423480  36.1014080
  53.3575580  72.5582800  46.7412230  52.8549180  73.2988200  47.0806040
  54.1732240  72.9466800  46.4249020  51.6497590  77.8015980  40.1873590
  50.7087730  77.8166210  40.3621280  51.9641660  77.0151940  40.6333890
  41.6279230  79.4835580  33.7477550  42.3942500  79.3716940  34.3102980
  41.7053920  78.7873550  33.0954320  40.3225990  76.9160650  34.4310440
  40.4029580  75.9688160  34.5427840  41.2145740  77.2467530  34.5371100
  53.6523170  84.9724830  41.8627850  53.7770590  85.7956000  42.3351660
  54.5188730  84.7615560  41.5152000  41.1240700  87.0656040  41.5344980
  41.8603180  86.5171500  41.8053550  41.5081620  87.9312050  41.3950970
  38.0086180  83.1329610  37.4086490  37.0825960  83.3750750  37.3991900
  38.4742610  83.9603870  37.2871240  40.1298980  86.2502110  50.7230560
  40.9311710  86.5714160  51.1365960  39.6150800  85.8897690  51.4450470
  44.2343010  86.2386350  33.3570550  45.0271620  86.5275180  32.9052340
  43.7147360  85.8078520  32.6783030  48.9663610  82.3581980  50.6705970
  48.3601770  82.3813580  49.9301720  48.6617720  81.6265020  51.2073220
  50.3963980  86.0862270  49.2815380  51.3485730  86.0020290  49.2315620
  50.2492200  86.7503980  49.9549170  53.2873180  85.4656480  34.7807290
  53.0014690  85.0521620  33.9661470  53.0892730  86.3944190  34.6607810
  37.8496790  78.7375570  49.6666610  38.3535810  78.1582850  50.2382840
  37.1104210  79.0215800  50.2042980  44.7520410  81.4589760  33.2212900
  44.6471050  80.8442110  33.9474280  44.5844630  80.9355650  32.4375910
  44.9034730  80.1446560  49.2002130  44.1380400  80.7131560  49.1156800
  45.0850690  79.8522770  48.3070360  47.9923140  80.5209790  33.8254890
  47.4433240  80.9679090  34.4697630  48.6142400  80.0159040  34.3492560
  52.0458080  81.8751890  49.7577150  52.7867550  82.2127650  49.2544610
  51.2830760  82.0443950  49.2046920  39.8819870  76.8805160  50.5616680
  39.9225210  76.5819030  51.4701910  40.7365370  77.2812770  50.4024200
  43.6598260  79.4800710  35.7220190  44.0814680  79.3140580  36.5651580
  43.7849100  78.6700940  35.2275330  41.8225680  75.4597260  48.5291170
  41.2922140  74.9688210  47.9014510  42.4913750  75.8881460  47.9949100
  46.1725900  78.5038320  32.9697290  46.6931560  77.7887340  32.6038440
  46.8194300  79.1424190  33.2697800  50.7203740  79.9266720  48.2932360
  51.1344760  80.0811800  49.1422780  49.7854740  80.0521940  48.4558140
  51.1925910  77.2662880  50.2971510  51.7746680  76.5115200  50.2091990
  51.3687680  77.7970320  49.5202990  42.3097980  72.4259630  48.6088460
  42.2154850  71.8080380  47.8839330  41.7295370  73.1525920  48.3818370
  45.0759420  70.9832870  45.6415850  44.6276720  71.0057130  44.7961400
  44.4424620  70.5851890  46.2386150  45.4818970  79.8787200  46.2628290
  45.9007080  80.7219930  46.0904530  44.5627600  80.0159240  46.0335070
  47.8182870  77.6103380  47.6466130  47.9379080  77.0144520  48.3860970
  48.6776870  77.6473070  47.2267430  50.1570770  78.1640570  46.2228640
  49.6305990  78.6883190  45.6193780  50.5002110  78.7967960  46.8538370
  42.5557160  75.5533940  32.6678350  42.3546220  74.6901300  33.0291690
  42.3849210  75.4667300  31.7299950  43.3326390  86.1840210  47.3786020
  42.7947480  86.9086270  47.0594720  43.5860350  85.7070550  46.5883360
  44.5851640  74.1524730  48.9041950  45.1751330  73.8440580  49.5919770
  43.7671880  73.6804480  49.0601850  49.4045070  73.7690540  49.1374970
  48.7160590  73.1072080  49.0724960  50.1251090  73.3228810  49.5823430
  41.3539960  72.6534560  32.6556230  41.6565860  72.6601990  31.7475380
  42.0934550  72.3032420  33.1523890  46.1888600  87.4191420  47.6372670
  46.1147300  88.3226560  47.9445040  45.2867440  87.1003320  47.6094740
  46.7373930  86.5849930  35.2599030  47.6324720  86.9234900  35.2817790
  46.7691560  85.8629340  34.6323310  40.3770090  81.9576980  33.4886030
  40.8144960  82.5006650  34.1443610  40.8617820  81.1323930  33.4982370
  37.5915890  84.7466010  40.9406290  37.9218900  83.8787070  40.7084930
  38.0206890  84.9524530  41.7711250  42.1877810  83.0775020  38.6008260
  41.8873350  82.9539990  39.5012170  42.0815300  82.2183610  38.1923990
  38.0806100  85.6136600  43.6787920  37.6437090  85.7937400  44.5112070
  38.6483780  86.3711220  43.5369640  53.7168280  85.1153600  47.9665230
  53.1170270  85.1746160  47.2229150  53.8462180  84.1758580  48.0962080
  54.9569730  82.8571420  33.3034940  54.1262690  82.9248070  33.7742170
  55.1341560  83.7475540  33.0001800  37.9130530  78.1256830  40.0376800
  37.2579370  77.8568470  39.3936500  38.7508480  78.0161310  39.5878780
  55.4186160  80.4569000  40.6511070  55.7894990  79.6736320  40.2447040
  56.0588090  81.1458100  40.4728370  52.4019920  81.8405580  46.0641390
  51.5879760  82.2702740  46.3267180  52.8094120  82.4523990  45.4510440
  54.4645360  79.8953270  32.9641660  54.7394200  80.8032150  32.8360880
  54.2756100  79.8315800  33.9003650  38.9506460  78.5109400  44.5780140
  39.3179500  78.4236800  45.4576160  38.3817280  77.7475950  44.4787000
  53.7510320  76.9793780  47.5910610  53.5196410  76.7506530  46.6908560
  54.0114870  77.8993330  47.5455500  38.5022460  75.4218490  48.4838560
  37.6078510  75.3885250  48.8232270  39.0420010  75.6205280  49.2489810
  52.1898390  72.2050210  50.3690310  53.0668570  72.2133610  50.7524310
  52.2019230  71.4681050  49.7582660  37.1268610  75.3355760  35.9802130
  36.2232690  75.5985960  35.8053790  37.6109230  75.6066930  35.2002090
  53.8151380  76.1419620  44.7797880  52.8654090  76.1083160  44.8942870
  53.9964390  77.0519730  44.5447650  39.6695820  74.3921300  33.8896510
  40.3787520  73.9704520  33.4043790  38.9535760  74.4596530  33.2579860
  39.0062170  69.6966820  42.8321780  39.6538360  69.1464200  42.3916940
  39.4264010  69.9509970  43.6537590  52.9014510  69.8908180  46.1891420
  53.5386730  70.5042320  46.5550610  53.0489400  69.9268840  45.2440650
  52.4595970  86.5924180  39.5909660  53.0555040  86.2708750  38.9144080
  52.7174120  86.1196000  40.3822930  38.7594170  69.8522490  45.5747100
  38.4108990  70.3086310  46.3405280  38.4281870  68.9579620  45.6569530
  40.3658540  83.0242090  49.7400290  40.3228170  82.6535000  50.6214750
  40.4969550  83.9619660  49.8802110  44.0664570  84.5801680  45.3410010
  43.8255930  84.8476240  44.4540530  45.0067210  84.7507410  45.3960870
  46.2718990  71.0434370  49.0966520  46.2107880  71.6356200  49.8461930
  47.2119370  70.9360330  48.9516780  48.9093550  70.7004430  48.7358810
  49.5233960  71.0183720  48.0739890  49.4543110  70.2153020  49.3554670
  55.3268730  86.5996060  46.1420650  54.8327010  86.9964930  45.4247780
  54.7182020  85.9745270  46.5357930  39.4314810  69.3798690  48.8497870
  39.9797800  69.1986740  48.0863980  39.4970120  68.5892800  49.3854180
  40.2046570  85.9704340  46.8598070  39.6106890  85.8389040  47.5988110
  40.1970410  85.1342480  46.3940170  49.6501590  69.2636570  45.0628100
  48.7761430  69.5971680  44.8601030  49.5412340  68.7909750  45.8879970
  50.5573570  71.4707440  46.4469820  50.2286930  70.6559200  46.0671550
  51.5055870  71.4277250  46.3235510  53.0108180  87.2419480  43.4207390
  52.5511150  87.9935290  43.0465410  52.3820640  86.5225950  43.3622190
  39.8358800  83.3362720  45.8106110  39.1092860  82.7168010  45.7432060
  39.8967950  83.7303330  44.9404190  43.4403900  85.5507720  42.5955520
  43.9568920  84.9395080  42.0703780  44.0901280  86.0536500  43.0866530
  46.1799400  86.4416210  43.4224500  46.4677210  86.1870510  42.5457510
  46.6922620  85.8893570  44.0130070  47.3976410  70.1806410  44.0021010
  46.6148200  70.6551910  44.2817770  47.1039340  69.2761240  43.8934190
  38.1188800  86.6537110  39.0202870  37.9510840  86.0207790  39.7184760
  37.2523310  86.8596510  38.6697060  45.2830630  72.5993160  39.5137040
  44.4705140  72.2250050  39.1732920  45.7872270  71.8438240  39.8158230
  39.7251500  85.3470340  36.4653010  39.1999120  85.7278370  35.7614970
  39.6496080  85.9721110  37.1862720  46.2471760  87.3632310  50.7892700
  47.1739070  87.1276580  50.8328660  46.2322190  88.1904310  50.3078730
  54.4816820  86.9057880  37.7866950  54.6569010  86.2195620  37.1427870
  53.7838390  87.4304930  37.3943620  43.4335370  70.0277060  50.5534580
  43.1519640  70.5310660  49.7895400  43.8155070  69.2298810  50.1876710
  42.3244470  87.2952720  35.3402260  43.0563290  87.0112000  34.7926150
  42.5838140  87.0566000  36.2301640  41.4859260  83.4117450  35.3448590
  40.8568140  83.8802550  35.8934420  41.6007090  82.5666670  35.7794780
  50.0350830  69.4430640  51.1315050  49.9216280  69.7625250  52.0266570
  50.8520570  69.8443150  50.8352330  52.8149320  86.5902170  50.6133740
  53.6074640  86.0951400  50.4059700  53.1082470  87.2692310  51.2209350
  48.9408980  77.4623110  21.4949790  48.8603030  76.5477720  21.2241500
  48.5273400  77.9590180  20.7889500  47.0727020  79.2402130  23.3759060
  46.2969120  78.7602570  23.6657630  47.7239950  78.5607780  23.2015220
  41.0892850  79.5521940  24.2534820  40.2577730  79.2970650  24.6531330
  41.6973830  79.6232710  24.9892740  51.0934450  83.6462320  22.1558190
  50.6315980  82.8749560  22.4845360  51.9060000  83.6728390  22.6610640
  41.0694110  83.5862030  24.4492840  41.3722150  82.6959770  24.2703060
  41.8137700  84.1432250  24.2215090  39.4984800  74.5123830  18.0377210
  38.6101500  74.8539800  17.9357090  39.7825990  74.3124150  17.1458040
  37.4617810  77.1129480  23.9216910  38.0333920  76.3451680  23.9220550
  37.4619350  77.4118240  23.0123520  47.3197760  85.9320330  21.7762180
  46.7009200  86.3877830  21.2056620  48.1749540  86.0871790  21.3751880
  46.5136010  81.9159320  23.3829220  46.4444290  80.9749260  23.2218350
  47.2755870  82.0060730  23.9551790  38.7042680  72.5213840  25.7085840
  38.5245520  71.6239590  25.9888600  38.3022760  73.0685710  26.3832790
  47.5441180  74.7229700  23.6098150  47.9206000  73.8501580  23.4971820
  47.4460690  75.0588400  22.7188590  41.6746190  73.0955330  19.0715590
  41.7812940  73.9959060  19.3784350  40.7638550  73.0473300  18.7810240
  51.3265300  72.2180140  20.5426490  52.1474920  71.7276710  20.5851970
  51.3599380  72.8077800  21.2958330  39.3229350  75.0174340  24.3168180
  40.0039460  75.2812710  24.9355580  39.0077400  74.1775210  24.6506190
  43.5153920  76.0641700  23.4040770  44.0232140  76.5622670  24.0445790
  44.0467160  75.2876900  23.2280130  48.1861110  80.8159570  19.1694090
  47.5678380  81.2809020  18.6056810  48.6984360  81.5087050  19.5863600
  43.0492870  80.3435440  25.8477690  42.7162250  80.9704360  26.4898760
  43.2259550  80.8697320  25.0679360  51.5626780  74.1580520  23.3154030
  50.8582350  74.4465410  23.8957140  51.9238940  74.9680630  22.9553590
  41.4805350  72.4150220  25.6774640  41.8222160  73.2592270  25.3828510
  40.5421160  72.5633960  25.7939980  42.2611970  82.3116240  27.6626870
  42.8785970  82.9867320  27.3811320  41.4005090  82.7204220  27.5714370
  37.5544310  81.5016100  16.5433720  37.1772290  81.9903200  15.8118620
  37.8117380  82.1741380  17.1740250  53.1789560  83.7755650  25.5781510
  52.4953080  84.4454760  25.5698180  53.7183850  83.9736300  24.8126370
  54.6313700  73.6035310  23.7063240  53.6838610  73.6374290  23.8378670
  54.9563690  74.4174260  24.0912600  45.1633240  69.9032490  22.0019230
  45.4708220  69.3479380  21.2854730  44.2333940  70.0376950  21.8192220
  50.7148300  85.6199780  24.2926690  50.7275460  85.2162070  23.4248950
  50.1623520  86.3947070  24.1888120  52.0093720  82.3416000  19.3816860
  51.8990050  81.3990330  19.5066280  52.0061970  82.7031640  20.2679620
  50.1133740  80.5229620  25.6209300  50.5302530  80.3089730  24.7862760
  50.8373560  80.7802410  26.1917920  47.5514000  77.9681320  18.7379350
  46.6243280  77.9018700  18.9667820  47.7038820  78.9061450  18.6234590
  47.5383080  74.2398320  15.7346510  46.5986750  74.4012280  15.8198970
  47.8566340  74.9584000  15.1882500  51.5811290  79.5301620  19.2414600
  50.9623710  79.1921170  18.5940900  51.5635740  78.8861380  19.9493790
  43.1570640  78.4946060  21.5199080  42.7527640  77.7823310  21.0244980
  43.2433760  78.1499300  22.4087120  43.6252340  82.1813620  23.6838290
  43.3280630  81.5759090  23.0046070  44.5752160  82.2190930  23.5727650
  41.8699260  75.2689270  25.2998120  42.4213850  75.3784610  24.5251370
  42.3842770  75.6426870  26.0153350  51.7137950  85.7545490  27.3461390
  51.2368510  86.5617680  27.1534000  51.0299740  85.1023820  27.4987600
  42.7170770  81.9195310  30.3346090  41.8199300  82.1435280  30.5819490
  42.7423640  82.0430250  29.3857490  49.7575990  78.7688430  16.2487350
  50.1969270  77.9310860  16.1025170  50.4704410  79.4017830  16.3351490
  41.5441990  78.7908630  28.9103460  41.4049760  79.6631430  29.2790860
  40.6623350  78.4481440  28.7651400  47.8671370  83.7084500  20.2168590
  48.3067280  84.4508830  19.8023980  47.8058260  83.9511070  21.1407550
  43.3422340  84.7330330  31.1188610  43.3137770  85.1373280  30.2517040
  43.1787310  83.8040690  30.9560210  53.3393130  70.0231240  14.5628390
  53.0265790  70.1158070  15.4627460  54.1005600  70.6012270  14.5125820
  39.8575270  77.3891040  19.0205730  39.7372870  78.1153130  18.4087000
  39.5476160  76.6193950  18.5433640  55.2937160  85.5157430  32.4152780
  55.7696880  85.9940320  33.0941860  55.9144320  85.4474920  31.6898280
  37.4960640  80.5606180  24.8274370  37.5741060  80.6954950  23.8830090
  38.1102320  79.8522070  25.0202490  38.7408270  82.2606370  21.2380550
  38.3336350  82.4020960  20.3834150  39.6321280  81.9766530  21.0351760
  54.6970410  82.7070280  29.5752790  54.8233470  82.4682160  28.6569970
  54.7391790  81.8754820  30.0474870  48.5587150  86.4098280  28.1447600
  49.0731820  86.3206290  28.9470030  47.7156230  86.7557980  28.4375510
  50.5341550  86.6953620  17.5731600  50.3742690  86.4056560  18.4713430
  50.3688260  85.9193750  17.0376830  43.0129930  86.4752150  19.3503220
  42.8372410  85.5587690  19.1371020  42.1585670  86.8339440  19.5901020
  50.2367680  84.2041180  16.1329600  49.5432840  84.2018470  15.4731880
  50.9790540  83.7800500  15.7023770  49.8017610  85.8303890  20.2078090
  50.2574560  85.0493270  20.5216710  50.1410130  86.5410710  20.7519270
  37.5520160  81.6020350  27.3668830  37.7151200  81.1325710  26.5488200
  38.0172610  81.0943910  28.0317670  42.3238930  70.7326110  22.4029400
  41.8807080  71.5135650  22.0713920  42.8823920  71.0556000  23.1100340
  46.6108740  73.5994630  28.0064720  46.1488110  73.8077650  28.8184660
  46.2086850  72.7853980  27.7035390  48.7062960  76.3205330  31.2360170
  49.0316370  75.4869080  30.8962400  49.4943290  76.8433850  31.3838500
  45.4397750  70.3536810  17.2835230  44.8151930  70.3496680  18.0088540
  45.3527870  69.4867770  16.8871200  42.1153150  75.8559680  20.1310650
  41.8894070  75.6396850  21.0357270  41.3345680  76.2888140  19.7856620
  49.3450910  75.8623050  18.7301300  48.7459800  76.5858850  18.5464920
  49.8930520  75.7999830  17.9477750  44.5552360  76.7545260  30.7970920
  44.4595960  75.8139990  30.6471320  45.3984340  76.9760330  30.4018990
  47.9515780  74.4986590  20.7604580  48.3445350  74.8158790  19.9473270
  48.3132630  73.6198470  20.8749100  39.6862900  73.1658930  28.9504700
  39.2926290  74.0134140  29.1577480  38.9981300  72.5285300  29.1413340
  36.9879950  71.0887390  22.9834780  36.6993000  71.6590250  23.6959760
  37.7325710  70.6091840  23.3466010  37.1750180  75.0307510  14.1937500
  37.0924850  75.9738270  14.3352490  36.8233240  74.8882420  13.3149850
  48.5370920  77.0892340  24.8555360  47.8052040  77.5979150  25.2045460
  48.1395260  76.2722320  24.5544140  44.9748310  73.7646540  23.2607850
  44.9784370  73.3236490  22.4112390  45.8699430  74.0863870  23.3679670
  40.8250690  73.6473030  22.2202060  40.4850740  74.1248260  22.9769110
  40.0628010  73.1938150  21.8603160  45.0368460  74.7658620  16.2514610
  45.1581280  74.7245100  17.2000430  44.6516970  75.6282770  16.0961340
  48.9996830  72.5426020  24.2678300  49.0169570  72.9934670  25.1120150
  48.7512410  71.6431660  24.4811740  44.0489960  77.0759760  15.6497910
  43.4806860  76.6278010  15.0233820  44.7578960  77.4352540  15.1163060
  39.1259140  80.9771780  29.5264640  38.7413930  80.3365450  30.1247600
  39.4371330  81.6807900  30.0959370  45.2756280  77.8248320  25.0073260
  45.6426410  77.3506890  25.7534600  45.0861340  78.6989890  25.3481600
  38.1396770  72.5692010  21.1366730  37.8543690  72.2047680  21.9745350
  38.0775630  71.8372470  20.5229870  43.0655650  76.8656960  27.3257470
  42.7612720  77.7448940  27.5507830  44.0202110  76.9256750  27.3614910
  41.5937440  81.0717950  17.9224320  40.8199700  80.5315570  17.7623040
  42.3232070  80.5524560  17.5842080  52.3525420  80.0683310  23.7150710
  53.0724540  80.5638600  23.3246820  52.1507240  79.3901200  23.0704580
  47.8135360  71.4621270  17.8580100  46.9999970  70.9634440  17.7825410
  47.6197310  72.3019520  17.4416450  47.7344220  80.1392370  29.6019710
  47.6681530  79.2188040  29.3477300  47.1049360  80.2367810  30.3164350
  50.5283750  75.8340920  16.1542260  51.4163370  76.1458150  15.9793600
  50.4988840  74.9613170  15.7622840  41.6374840  80.7398330  21.5603130
  42.1553510  79.9366590  21.5060020  41.1858860  80.6777470  22.4019960
  46.5244340  82.0064610  16.8330430  46.8660040  82.7506840  16.3373750
  45.6957050  82.3195730  17.1955260  39.1219380  77.7059700  28.4728830
  38.7634320  78.3713550  29.0602170  38.8273940  76.8743250  28.8441450
  42.3232500  78.1643940  31.3568380  42.0232640  78.3101120  30.4596200
  43.0943740  77.6049230  31.2641770  47.6660950  82.9612940  29.3523510
  47.6805490  82.0293900  29.1342420  46.9586050  83.0472700  29.9913280
  52.7998020  77.1452760  15.6222120  52.7161740  77.5766980  14.7718560
  53.5192210  77.6051110  16.0548940  53.8772160  79.6020280  28.6992090
  53.1520350  80.1949060  28.5021480  54.4047620  79.5943820  27.9005460
  53.8285270  83.9995020  18.3504250  53.1861430  83.3450640  18.6247970
  53.4415930  84.4050110  17.5744920  49.4071750  81.3280450  22.1975940
  49.7595570  80.7308580  21.5377310  48.5234080  81.0024680  22.3684190
  45.4935030  82.0878140  19.6046350  46.1806160  82.6347350  19.9853940
  44.7067450  82.6318870  19.6395960  37.6327430  77.7050960  15.0963430
  38.5022280  77.9875760  15.3799350  37.1417750  78.5186830  14.9812240
  44.7962240  79.0924170  19.2171710  45.2525020  79.9029420  19.4431900
  44.4450450  78.7747310  20.0490200  47.0994850  84.6030510  26.4464010
  47.7437070  84.8089890  27.1237430  47.4624290  83.8418910  25.9934860
  40.6974020  69.4361820  19.6894230  40.5688650  69.4279720  20.6379150
  39.8736040  69.7744910  19.3385240  48.3726930  82.6062860  25.1641460
  49.0149160  81.9056020  25.2773630  48.8976280  83.3861300  24.9838350
  52.2182650  82.8911480  14.8880600  51.9920230  82.1741920  15.4805240
  51.8278850  82.6423920  14.0502350  50.1464550  83.4057760  28.3677520
  50.4820790  83.9924450  29.0455440  49.2264890  83.2750470  28.5975310
  37.9998680  86.9178340  15.6625060  38.3596320  87.5167680  15.0082330
  37.8591020  87.4638230  16.4360090  51.7998900  80.8083420  16.5494760
  51.5120600  81.2696110  17.3372640  52.5951070  80.3481190  16.8178980
  37.9840540  85.1833200  30.1367460  38.0931660  84.2427940  29.9962850
  37.3321100  85.4487950  29.4881190  45.9753130  83.4549090  31.5365580
  45.6550000  82.7358330  32.0811270  45.3011490  84.1304160  31.6101640
  44.0167300  84.3009540  16.4798730  44.0077400  85.0339230  15.8643240
  43.0965660  84.0541120  16.5725690  39.6173940  79.5224430  17.2245490
  39.0101890  80.2623330  17.2340790  40.0923290  79.6123790  16.3983690
  49.1906730  73.6875250  26.9002380  49.5587550  72.8670460  27.2281950
  48.3304930  73.7477140  27.3158030  52.5568760  72.6432190  17.7089940
  51.9281920  72.7477860  16.9948170  52.0620680  72.8628970  18.4983820
  47.0026900  84.3637780  15.1423920  47.1038880  84.1601770  14.2125900
  46.1028640  84.1096060  15.3471700  44.5252790  74.9218140  19.1247820
  43.8168940  75.3904480  19.5661430  44.8097270  74.2640150  19.7593010
  46.1508720  76.3414840  27.1240350  46.6493970  76.8160660  27.7892200
  46.2931670  75.4178360  27.3310380  48.5568220  71.6468800  20.5643610
  48.4336000  71.6654930  19.6153120  49.5052780  71.6947740  20.6842010
  45.6445010  86.8824100  19.8371590  45.8986510  86.8445490  18.9150960
  44.6957490  86.7557430  19.8299840  42.7287810  73.2303220  16.4998530
  43.5778340  73.6673370  16.4338720  42.3619080  73.5423480  17.3270590
  51.6497590  77.8015980  21.4130100  50.7087730  77.8166210  21.5877790
  51.9641660  77.0151940  21.8590400  41.6279230  79.4835580  14.9734060
  42.3942500  79.3716940  15.5359490  41.7053920  78.7873550  14.3210830
  40.3225990  76.9160650  15.6566950  40.4029580  75.9688160  15.7684350
  41.2145740  77.2467530  15.7627610  53.6523170  84.9724830  23.0884360
  53.7770590  85.7956000  23.5608170  54.5188730  84.7615560  22.7408510
  41.1240700  87.0656040  22.7601490  41.8603180  86.5171500  23.0310060
  41.5081620  87.9312050  22.6207480  38.0086180  83.1329610  18.6343000
  37.0825960  83.3750750  18.6248410  38.4742610  83.9603870  18.5127750
  40.1298980  86.2502110  31.9487070  40.9311710  86.5714160  32.3622470
  39.6150800  85.8897690  32.6706980  44.2343010  86.2386350  14.5827060
  45.0271620  86.5275180  14.1308850  43.7147360  85.8078520  13.9039540
  48.9663610  82.3581980  31.8962480  48.3601770  82.3813580  31.1558230
  48.6617720  81.6265020  32.4329730  50.3963980  86.0862270  30.5071890
  51.3485730  86.0020290  30.4572130  50.2492200  86.7503980  31.1805680
  53.2873180  85.4656480  16.0063800  53.0014690  85.0521620  15.1917980
  53.0892730  86.3944190  15.8864320  37.8496790  78.7375570  30.8923120
  38.3535810  78.1582850  31.4639350  37.1104210  79.0215800  31.4299490
  44.7520410  81.4589760  14.4469410  44.6471050  80.8442110  15.1730790
  44.5844630  80.9355650  13.6632420  44.9034730  80.1446560  30.4258640
  44.1380400  80.7131560  30.3413310  45.0850690  79.8522770  29.5326870
  47.9923140  80.5209790  15.0511400  47.4433240  80.9679090  15.6954140
  48.6142400  80.0159040  15.5749070  52.0458080  81.8751890  30.9833660
  52.7867550  82.2127650  30.4801120  51.2830760  82.0443950  30.4303430
  39.8819870  76.8805160  31.7873190  39.9225210  76.5819030  32.6958420
  40.7365370  77.2812770  31.6280710  43.6598260  79.4800710  16.9476700
  44.0814680  79.3140580  17.7908090  43.7849100  78.6700940  16.4531840
  41.8225680  75.4597260  29.7547680  41.2922140  74.9688210  29.1271020
  42.4913750  75.8881460  29.2205610  46.1725900  78.5038320  14.1953800
  46.6931560  77.7887340  13.8294950  46.8194300  79.1424190  14.4954310
  50.7203740  79.9266720  29.5188870  51.1344760  80.0811800  30.3679290
  49.7854740  80.0521940  29.6814650  45.4818970  79.8787200  27.4884800
  45.9007080  80.7219930  27.3161040  44.5627600  80.0159240  27.2591580
  47.8182870  77.6103380  28.8722640  47.9379080  77.0144520  29.6117480
  48.6776870  77.6473070  28.4523940  50.1570770  78.1640570  27.4485150
  49.6305990  78.6883190  26.8450290  50.5002110  78.7967960  28.0794880
  42.5557160  75.5533940  13.8934860  42.3546220  74.6901300  14.2548200
  42.3849210  75.4667300  12.9556460  43.3326390  86.1840210  28.6042530
  42.7947480  86.9086270  28.2851230  43.5860350  85.7070550  27.8139870
  44.5851640  74.1524730  30.1298460  45.1751330  73.8440580  30.8176280
  43.7671880  73.6804480  30.2858360  49.4045070  73.7690540  30.3631480
  48.7160590  73.1072080  30.2981470  50.1251090  73.3228810  30.8079940
  50.0345470  70.3642170  16.4221740  50.3147760  69.5210070  16.7781160
  49.2611200  70.5965280  16.9360490  41.3539960  72.6534560  13.8812740
  41.6565860  72.6601990  12.9731890  42.0934550  72.3032420  14.3780400
  46.1888600  87.4191420  28.8629180  46.1147300  88.3226560  29.1701550
  45.2867440  87.1003320  28.8351250  44.5724890  71.5969180  14.8668940
  44.2246890  70.9193170  14.2871390  44.7737660  71.1358690  15.6812330
  46.7373930  86.5849930  16.4855540  47.6324720  86.9234900  16.5074300
  46.7691560  85.8629340  15.8579820  40.3770090  81.9576980  14.7142540
  40.8144960  82.5006650  15.3700120  40.8617820  81.1323930  14.7238880
  37.5915890  84.7466010  22.1662800  37.9218900  83.8787070  21.9341440
  38.0206890  84.9524530  22.9967760  42.1877810  83.0775020  19.8264770
  41.8873350  82.9539990  20.7268680  42.0815300  82.2183610  19.4180500
  38.0806100  85.6136600  24.9044430  37.6437090  85.7937400  25.7368580
  38.6483780  86.3711220  24.7626150  53.7168280  85.1153600  29.1921740
  53.1170270  85.1746160  28.4485660  53.8462180  84.1758580  29.3218590
  54.9569730  82.8571420  14.5291450  54.1262690  82.9248070  14.9998680
  55.1341560  83.7475540  14.2258310  54.4126190  79.6018900  17.0325650
  55.1745100  80.1715550  17.1385340  54.4280560  79.0346100  17.8033960
  37.9130530  78.1256830  21.2633310  37.2579370  77.8568470  20.6193010
  38.7508480  78.0161310  20.8135290  55.4186160  80.4569000  21.8767580
  55.7894990  79.6736320  21.4703550  56.0588090  81.1458100  21.6984880
  52.4019920  81.8405580  27.2897900  51.5879760  82.2702740  27.5523690
  52.8094120  82.4523990  26.6766950  54.4645360  79.8953270  14.1898170
  54.7394200  80.8032150  14.0617390  54.2756100  79.8315800  15.1260160
  50.8620970  72.9198120  15.4851800  51.2805850  72.7329100  14.6448460
  50.5557030  72.0677170  15.7954730  54.3610700  77.8322260  19.1827600
  53.9854300  77.0650190  18.7508890  53.6313820  78.2144960  19.6702530
  38.9506460  78.5109400  25.8036650  39.3179500  78.4236800  26.6832670
  38.3817280  77.7475950  25.7043510  38.5022460  75.4218490  29.7095070
  37.6078510  75.3885250  30.0488780  39.0420010  75.6205280  30.4746320
  37.1268610  75.3355760  17.2058640  36.2232690  75.5985960  17.0310300
  37.6109230  75.6066930  16.4258600  53.6361660  76.0579750  22.4834840
  54.1599140  75.5642400  21.8525010  54.2221080  76.1930110  23.2282410
  39.6695820  74.3921300  15.1153020  40.3787520  73.9704520  14.6300300
  38.9535760  74.4596530  14.4836370  39.3169980  70.4460630  14.1555670
  40.0398110  70.9869570  14.4736890  39.5894500  70.1724050  13.2797210
  53.1261630  75.3153100  18.4227250  53.6220750  75.0823970  19.2076130
  52.9277700  74.4764940  18.0064890  54.5548790  73.9514050  20.9564930
  54.4448070  73.7970090  21.8947200  55.3156380  73.4234990  20.7140340
  55.4439060  71.7821970  14.1971070  56.3688370  71.6503150  13.9889360
  55.4214850  71.8614790  15.1507520  55.5177550  72.5532630  16.8227780
  54.7229050  72.4877750  17.3520690  55.7220830  73.4883270  16.8113130
  52.4595970  86.5924180  20.8166170  53.0555040  86.2708750  20.1400590
  52.7174120  86.1196000  21.6079440  40.3658540  83.0242090  30.9656800
  40.3228170  82.6535000  31.8471260  40.4969550  83.9619660  31.1058620
  44.0664570  84.5801680  26.5666520  43.8255930  84.8476240  25.6797040
  45.0067210  84.7507410  26.6217380  55.3268730  86.5996060  27.3677160
  54.8327010  86.9964930  26.6504290  54.7182020  85.9745270  27.7614440
  40.2046570  85.9704340  28.0854580  39.6106890  85.8389040  28.8244620
  40.1970410  85.1342480  27.6196680  53.0108180  87.2419480  24.6463900
  52.5511150  87.9935290  24.2721920  52.3820640  86.5225950  24.5878700
  39.8358800  83.3362720  27.0362620  39.1092860  82.7168010  26.9688570
  39.8967950  83.7303330  26.1660700  43.4403900  85.5507720  23.8212030
  43.9568920  84.9395080  23.2960290  44.0901280  86.0536500  24.3123040
  46.1799400  86.4416210  24.6481010  46.4677210  86.1870510  23.7714020
  46.6922620  85.8893570  25.2386580  51.9497480  70.8829510  23.2726610
  52.3905570  70.8274610  22.4248210  51.6805070  71.7987520  23.3436790
  53.8136050  70.5144750  21.2835430  53.7524450  69.5705970  21.1366450
  54.5928080  70.6224840  21.8288890  38.1188800  86.6537110  20.2459380
  37.9510840  86.0207790  20.9441270  37.2523310  86.8596510  19.8953570
  38.7416820  70.4853890  17.7491240  39.4996180  70.5982770  17.1755270
  38.2793990  71.3223090  17.7034670  45.2830630  72.5993160  20.7393550
  44.4705140  72.2250050  20.3989430  45.7872270  71.8438240  21.0414740
  49.7855610  69.2635610  21.9776620  50.3884980  69.8355820  22.4525140
  49.0448600  69.8275050  21.7550520  52.9290210  69.6657170  17.2516900
  53.1240840  70.5640620  17.5184330  52.1420080  69.4344250  17.7449850
  39.7251500  85.3470340  17.6909520  39.1999120  85.7278370  16.9871480
  39.6496080  85.9721110  18.4119230  41.1141970  71.0117940  16.2893210
  41.6434730  70.2247740  16.1601160  41.7470290  71.6909130  16.5228740
  43.3079810  70.7493080  19.3438600  42.6782550  70.0480390  19.5108730
  42.7684950  71.5097210  19.1271760  46.2471760  87.3632310  32.0149210
  47.1739070  87.1276580  32.0585170  46.2322190  88.1904310  31.5335240
  54.4816820  86.9057880  19.0123460  54.6569010  86.2195620  18.3684380
  53.7838390  87.4304930  18.6200130  42.3244470  87.2952720  16.5658770
  43.0563290  87.0112000  16.0182660  42.5838140  87.0566000  17.4558150
  41.4859260  83.4117450  16.5705100  40.8568140  83.8802550  17.1190930
  41.6007090  82.5666670  17.0051290  52.8149320  86.5902170  31.8390250
  53.6074640  86.0951400  31.6316210  53.1082470  87.2692310  32.4465860
  48.9408980  77.4623110   2.7206300  48.8603030  76.5477720   2.4498010
  48.5273400  77.9590180   2.0146010  47.0727020  79.2402130   4.6015570
  46.2969120  78.7602570   4.8914140  47.7239950  78.5607780   4.4271730
  41.0892850  79.5521940   5.4791330  40.2577730  79.2970650   5.8787840
  41.6973830  79.6232710   6.2149250  51.0934450  83.6462320   3.3814700
  50.6315980  82.8749560   3.7101870  51.9060000  83.6728390   3.8867150
  41.0694110  83.5862030   5.6749350  41.3722150  82.6959770   5.4959570
  41.8137700  84.1432250   5.4471600  37.4617810  77.1129480   5.1473420
  38.0333920  76.3451680   5.1477060  37.4619350  77.4118240   4.2380030
  47.3197760  85.9320330   3.0018690  46.7009200  86.3877830   2.4313130
  48.1749540  86.0871790   2.6008390  46.5136010  81.9159320   4.6085730
  46.4444290  80.9749260   4.4474860  47.2755870  82.0060730   5.1808300
  38.7042680  72.5213840   6.9342350  38.5245520  71.6239590   7.2145110
  38.3022760  73.0685710   7.6089300  47.5441180  74.7229700   4.8354660
  47.9206000  73.8501580   4.7228330  47.4460690  75.0588400   3.9445100
  51.3265300  72.2180140   1.7683000  52.1474920  71.7276710   1.8108480
  51.3599380  72.8077800   2.5214840  39.3229350  75.0174340   5.5424690
  40.0039460  75.2812710   6.1612090  39.0077400  74.1775210   5.8762700
  43.5153920  76.0641700   4.6297280  44.0232140  76.5622670   5.2702300
  44.0467160  75.2876900   4.4536640  55.6164850  74.2346890   8.3326630
  54.9117020  74.6228600   7.8141740  55.8822770  74.9297180   8.9347560
  41.7990020  70.7040260   8.8960700  41.8008460  71.2212650   8.0906600
  40.9694330  70.2270440   8.8730630  43.0492870  80.3435440   7.0734200
  42.7162250  80.9704360   7.7155270  43.2259550  80.8697320   6.2935870
  51.5626780  74.1580520   4.5410540  50.8582350  74.4465410   5.1213650
  51.9238940  74.9680630   4.1810100  41.4805350  72.4150220   6.9031150
  41.8222160  73.2592270   6.6085020  40.5421160  72.5633960   7.0196490
  42.2611970  82.3116240   8.8883380  42.8785970  82.9867320   8.6067830
  41.4005090  82.7204220   8.7970880  53.1789560  83.7755650   6.8038020
  52.4953080  84.4454760   6.7954690  53.7183850  83.9736300   6.0382880
  54.6313700  73.6035310   4.9319750  53.6838610  73.6374290   5.0635180
  54.9563690  74.4174260   5.3169110  45.1633240  69.9032490   3.2275740
  45.4708220  69.3479380   2.5111240  44.2333940  70.0376950   3.0448730
  50.7148300  85.6199780   5.5183200  50.7275460  85.2162070   4.6505460
  50.1623520  86.3947070   5.4144630  50.1133740  80.5229620   6.8465810
  50.5302530  80.3089730   6.0119270  50.8373560  80.7802410   7.4174430
  54.0595840  78.9216840   6.9382050  53.2314470  78.9909930   6.4632180
  54.6546320  79.5071150   6.4697880  51.0237850  75.7086160   7.8836920
  50.6109030  76.5339870   8.1376910  50.2913800  75.1231200   7.6913280
  43.1570640  78.4946060   2.7455590  42.7527640  77.7823310   2.2501490
  43.2433760  78.1499300   3.6343630  43.6252340  82.1813620   4.9094800
  43.3280630  81.5759090   4.2302580  44.5752160  82.2190930   4.7984160
  41.8699260  75.2689270   6.5254630  42.4213850  75.3784610   5.7507880
  42.3842770  75.6426870   7.2409860  51.7137950  85.7545490   8.5717900
  51.2368510  86.5617680   8.3790510  51.0299740  85.1023820   8.7244110
  42.7170770  81.9195310  11.5602600  41.8199300  82.1435280  11.8076000
  42.7423640  82.0430250  10.6114000  41.5441990  78.7908630  10.1359970
  41.4049760  79.6631430  10.5047370  40.6623350  78.4481440   9.9907910
  43.3422340  84.7330330  12.3445120  43.3137770  85.1373280  11.4773550
  43.1787310  83.8040690  12.1816720  55.2937160  85.5157430  13.6409290
  55.7696880  85.9940320  14.3198370  55.9144320  85.4474920  12.9154790
  37.4960640  80.5606180   6.0530880  37.5741060  80.6954950   5.1086600
  38.1102320  79.8522070   6.2459000  38.7408270  82.2606370   2.4637060
  38.3336350  82.4020960   1.6090660  39.6321280  81.9766530   2.2608270
  54.6970410  82.7070280  10.8009300  54.8233470  82.4682160   9.8826480
  54.7391790  81.8754820  11.2731380  48.5587150  86.4098280   9.3704110
  49.0731820  86.3206290  10.1726540  47.7156230  86.7557980   9.6632020
  54.5494420  74.7602740  11.7659040  53.9338690  75.2682410  11.2374500
  54.2290840  73.8601070  11.7084980  37.5520160  81.6020350   8.5925340
  37.7151200  81.1325710   7.7744710  38.0172610  81.0943910   9.2574180
  42.3238930  70.7326110   3.6285910  41.8807080  71.5135650   3.2970430
  42.8823920  71.0556000   4.3356850  46.6108740  73.5994630   9.2321230
  46.1488110  73.8077650  10.0441170  46.2086850  72.7853980   8.9291900
  51.6113250  74.8203580  10.3617890  50.7606840  74.5209330  10.6826960
  51.4515040  75.0645590   9.4501710  48.7062960  76.3205330  12.4616680
  49.0316370  75.4869080  12.1218910  49.4943290  76.8433850  12.6095010
  44.3614830  71.2773440   5.4875510  44.6587160  72.1836270   5.4067530
  44.9100390  70.7892220   4.8735080  44.5552360  76.7545260  12.0227430
  44.4595960  75.8139990  11.8727830  45.3984340  76.9760330  11.6275500
  39.6862900  73.1658930  10.1761210  39.2926290  74.0134140  10.3833990
  38.9981300  72.5285300  10.3669850  46.2607950  73.2493900  13.2457950
  45.5706270  73.0566100  13.8804040  47.0040250  73.5328540  13.7782250
  36.9879950  71.0887390   4.2091290  36.6993000  71.6590250   4.9216270
  37.7325710  70.6091840   4.5722520  48.5370920  77.0892340   6.0811870
  47.8052040  77.5979150   6.4301970  48.1395260  76.2722320   5.7800650
  44.9748310  73.7646540   4.4864360  44.9784370  73.3236490   3.6368900
  45.8699430  74.0863870   4.5936180  40.8250690  73.6473030   3.4458570
  40.4850740  74.1248260   4.2025620  40.0628010  73.1938150   3.0859670
  48.9996830  72.5426020   5.4934810  49.0169570  72.9934670   6.3376660
  48.7512410  71.6431660   5.7068250  52.4267580  69.9558200  11.3321190
  52.7513350  69.2247860  11.8579170  52.4624090  69.6371840  10.4302180
  39.1259140  80.9771780  10.7521150  38.7413930  80.3365450  11.3504110
  39.4371330  81.6807900  11.3215880  45.2756280  77.8248320   6.2329770
  45.6426410  77.3506890   6.9791110  45.0861340  78.6989890   6.5738110
  38.1396770  72.5692010   2.3623240  37.8543690  72.2047680   3.2001860
  38.0775630  71.8372470   1.7486380  43.0655650  76.8656960   8.5513980
  42.7612720  77.7448940   8.7764340  44.0202110  76.9256750   8.5871420
  52.3525420  80.0683310   4.9407220  53.0724540  80.5638600   4.5503330
  52.1507240  79.3901200   4.2961090  47.7344220  80.1392370  10.8276220
  47.6681530  79.2188040  10.5733810  47.1049360  80.2367810  11.5420860
  41.6374840  80.7398330   2.7859640  42.1553510  79.9366590   2.7316530
  41.1858860  80.6777470   3.6276470  39.1219380  77.7059700   9.6985340
  38.7634320  78.3713550  10.2858680  38.8273940  76.8743250  10.0697960
  42.3232500  78.1643940  12.5824890  42.0232640  78.3101120  11.6852710
  43.0943740  77.6049230  12.4898280  47.6660950  82.9612940  10.5780020
  47.6805490  82.0293900  10.3598930  46.9586050  83.0472700  11.2169790
  53.8772160  79.6020280   9.9248600  53.1520350  80.1949060   9.7277990
  54.4047620  79.5943820   9.1261970  49.4071750  81.3280450   3.4232450
  49.7595570  80.7308580   2.7633820  48.5234080  81.0024680   3.5940700
  47.0994850  84.6030510   7.6720520  47.7437070  84.8089890   8.3493940
  47.4624290  83.8418910   7.2191370  48.3726930  82.6062860   6.3897970
  49.0149160  81.9056020   6.5030140  48.8976280  83.3861300   6.2094860
  50.1464550  83.4057760   9.5934030  50.4820790  83.9924450  10.2711950
  49.2264890  83.2750470   9.8231820  37.6967950  71.1952940  10.3757440
  36.9826470  71.3949860  10.9810050  38.1162990  70.4192510  10.7472240
  37.9840540  85.1833200  11.3623970  38.0931660  84.2427940  11.2219360
  37.3321100  85.4487950  10.7137700  45.9753130  83.4549090  12.7622090
  45.6550000  82.7358330  13.3067780  45.3011490  84.1304160  12.8358150
  49.1906730  73.6875250   8.1258890  49.5587550  72.8670460   8.4538460
  48.3304930  73.7477140   8.5414540  46.1508720  76.3414840   8.3496860
  46.6493970  76.8160660   9.0148710  46.2931670  75.4178360   8.5566890
  53.3575580  72.5582800   9.1925250  52.8549180  73.2988200   9.5319060
  54.1732240  72.9466800   8.8762040  51.6497590  77.8015980   2.6386610
  50.7087730  77.8166210   2.8134300  51.9641660  77.0151940   3.0846910
  53.6523170  84.9724830   4.3140870  53.7770590  85.7956000   4.7864680
  54.5188730  84.7615560   3.9665020  41.1240700  87.0656040   3.9858000
  41.8603180  86.5171500   4.2566570  41.5081620  87.9312050   3.8463990
  40.1298980  86.2502110  13.1743580  40.9311710  86.5714160  13.5878980
  39.6150800  85.8897690  13.8963490  48.9663610  82.3581980  13.1218990
  48.3601770  82.3813580  12.3814740  48.6617720  81.6265020  13.6586240
  50.3963980  86.0862270  11.7328400  51.3485730  86.0020290  11.6828640
  50.2492200  86.7503980  12.4062190  37.8496790  78.7375570  12.1179630
  38.3535810  78.1582850  12.6895860  37.1104210  79.0215800  12.6556000
  44.9034730  80.1446560  11.6515150  44.1380400  80.7131560  11.5669820
  45.0850690  79.8522770  10.7583380  52.0458080  81.8751890  12.2090170
  52.7867550  82.2127650  11.7057630  51.2830760  82.0443950  11.6559940
  39.8819870  76.8805160  13.0129700  39.9225210  76.5819030  13.9214930
  40.7365370  77.2812770  12.8537220  41.8225680  75.4597260  10.9804190
  41.2922140  74.9688210  10.3527530  42.4913750  75.8881460  10.4462120
  50.7203740  79.9266720  10.7445380  51.1344760  80.0811800  11.5935800
  49.7854740  80.0521940  10.9071160  51.1925910  77.2662880  12.7484530
  51.7746680  76.5115200  12.6605010  51.3687680  77.7970320  11.9716010
  42.3097980  72.4259630  11.0601480  42.2154850  71.8080380  10.3352350
  41.7295370  73.1525920  10.8331390  45.0759420  70.9832870   8.0928870
  44.6276720  71.0057130   7.2474420  44.4424620  70.5851890   8.6899170
  45.4818970  79.8787200   8.7141310  45.9007080  80.7219930   8.5417550
  44.5627600  80.0159240   8.4848090  47.8182870  77.6103380  10.0979150
  47.9379080  77.0144520  10.8373990  48.6776870  77.6473070   9.6780450
  50.1570770  78.1640570   8.6741660  49.6305990  78.6883190   8.0706800
  50.5002110  78.7967960   9.3051390  43.3326390  86.1840210   9.8299040
  42.7947480  86.9086270   9.5107740  43.5860350  85.7070550   9.0396380
  44.5851640  74.1524730  11.3554970  45.1751330  73.8440580  12.0432790
  43.7671880  73.6804480  11.5114870  49.4045070  73.7690540  11.5887990
  48.7160590  73.1072080  11.5237980  50.1251090  73.3228810  12.0336450
  46.1888600  87.4191420  10.0885690  46.1147300  88.3226560  10.3958060
  45.2867440  87.1003320  10.0607760  37.5915890  84.7466010   3.3919310
  37.9218900  83.8787070   3.1597950  38.0206890  84.9524530   4.2224270
  38.0806100  85.6136600   6.1300940  37.6437090  85.7937400   6.9625090
  38.6483780  86.3711220   5.9882660  53.7168280  85.1153600  10.4178250
  53.1170270  85.1746160   9.6742170  53.8462180  84.1758580  10.5475100
  37.9130530  78.1256830   2.4889820  37.2579370  77.8568470   1.8449520
  38.7508480  78.0161310   2.0391800  55.4186160  80.4569000   3.1024090
  55.7894990  79.6736320   2.6960060  56.0588090  81.1458100   2.9241390
  52.4019920  81.8405580   8.5154410  51.5879760  82.2702740   8.7780200
  52.8094120  82.4523990   7.9023460  38.9506460  78.5109400   7.0293160
  39.3179500  78.4236800   7.9089180  38.3817280  77.7475950   6.9300020
  53.7510320  76.9793780  10.0423630  53.5196410  76.7506530   9.1421580
  54.0114870  77.8993330   9.9968520  38.5022460  75.4218490  10.9351580
  37.6078510  75.3885250  11.2745290  39.0420010  75.6205280  11.7002830
  52.1898390  72.2050210  12.8203330  53.0668570  72.2133610  13.2037330
  52.2019230  71.4681050  12.2095680  53.6361660  76.0579750   3.7091350
  54.1599140  75.5642400   3.0781520  54.2221080  76.1930110   4.4538920
  53.8151380  76.1419620   7.2310900  52.8654090  76.1083160   7.3455890
  53.9964390  77.0519730   6.9960670  39.0062170  69.6966820   5.2834800
  39.6538360  69.1464200   4.8429960  39.4264010  69.9509970   6.1050610
  54.5548790  73.9514050   2.1821440  54.4448070  73.7970090   3.1203710
  55.3156380  73.4234990   1.9396850  52.9014510  69.8908180   8.6404440
  53.5386730  70.5042320   9.0063630  53.0489400  69.9268840   7.6953670
  38.7594170  69.8522490   8.0260120  38.4108990  70.3086310   8.7918300
  38.4281870  68.9579620   8.1082550  40.3658540  83.0242090  12.1913310
  40.3228170  82.6535000  13.0727770  40.4969550  83.9619660  12.3315130
  44.0664570  84.5801680   7.7923030  43.8255930  84.8476240   6.9053550
  45.0067210  84.7507410   7.8473890  46.2718990  71.0434370  11.5479540
  46.2107880  71.6356200  12.2974950  47.2119370  70.9360330  11.4029800
  48.9093550  70.7004430  11.1871830  49.5233960  71.0183720  10.5252910
  49.4543110  70.2153020  11.8067690  55.3268730  86.5996060   8.5933670
  54.8327010  86.9964930   7.8760800  54.7182020  85.9745270   8.9870950
  39.4314810  69.3798690  11.3010890  39.9797800  69.1986740  10.5377000
  39.4970120  68.5892800  11.8367200  40.2046570  85.9704340   9.3111090
  39.6106890  85.8389040  10.0501130  40.1970410  85.1342480   8.8453190
  49.6501590  69.2636570   7.5141120  48.7761430  69.5971680   7.3114050
  49.5412340  68.7909750   8.3392990  50.5573570  71.4707440   8.8982840
  50.2286930  70.6559200   8.5184570  51.5055870  71.4277250   8.7748530
  53.0108180  87.2419480   5.8720410  52.5511150  87.9935290   5.4978430
  52.3820640  86.5225950   5.8135210  39.8358800  83.3362720   8.2619130
  39.1092860  82.7168010   8.1945080  39.8967950  83.7303330   7.3917210
  43.4403900  85.5507720   5.0468540  43.9568920  84.9395080   4.5216800
  44.0901280  86.0536500   5.5379550  46.1799400  86.4416210   5.8737520
  46.4677210  86.1870510   4.9970530  46.6922620  85.8893570   6.4643090
  47.3976410  70.1806410   6.4534030  46.6148200  70.6551910   6.7330790
  47.1039340  69.2761240   6.3447210  51.9497480  70.8829510   4.4983120
  52.3905570  70.8274610   3.6504720  51.6805070  71.7987520   4.5693300
  53.8136050  70.5144750   2.5091940  53.7524450  69.5705970   2.3622960
  54.5928080  70.6224840   3.0545400  45.2830630  72.5993160   1.9650060
  44.4705140  72.2250050   1.6245940  45.7872270  71.8438240   2.2671250
  49.7855610  69.2635610   3.2033130  50.3884980  69.8355820   3.6781650
  49.0448600  69.8275050   2.9807030  46.2471760  87.3632310  13.2405720
  47.1739070  87.1276580  13.2841680  46.2322190  88.1904310  12.7591750
  43.4335370  70.0277060  13.0047600  43.1519640  70.5310660  12.2408420
  43.8155070  69.2298810  12.6389730  50.0350830  69.4430640  13.5828070
  49.9216280  69.7625250  14.4779590  50.8520570  69.8443150  13.2865350
  52.8149320  86.5902170  13.0646760  53.6074640  86.0951400  12.8572720
  53.1082470  87.2692310  13.6722370  48.9408980  58.6879620  59.0436770
  48.8603030  57.7734230  58.7728480  48.5273400  59.1846690  58.3376480
  47.0727020  60.4658640  60.9246040  46.2969120  59.9859080  61.2144610
  47.7239950  59.7864290  60.7502200  41.0892850  60.7778450  61.8021800
  40.2577730  60.5227160  62.2018310  41.6973830  60.8489220  62.5379720
  51.0934450  64.8718830  59.7045170  50.6315980  64.1006070  60.0332340
  51.9060000  64.8984900  60.2097620  41.0694110  64.8118540  61.9979820
  41.3722150  63.9216280  61.8190040  41.8137700  65.3688760  61.7702070
  39.4984800  55.7380340  55.5864190  38.6101500  56.0796310  55.4844070
  39.7825990  55.5380660  54.6945020  37.4617810  58.3385990  61.4703890
  38.0333920  57.5708190  61.4707530  37.4619350  58.6374750  60.5610500
  47.3197760  67.1576840  59.3249160  46.7009200  67.6134340  58.7543600
  48.1749540  67.3128300  58.9238860  46.5136010  63.1415830  60.9316200
  46.4444290  62.2005770  60.7705330  47.2755870  63.2317240  61.5038770
  47.5441180  55.9486210  61.1585130  47.9206000  55.0758090  61.0458800
  47.4460690  56.2844910  60.2675570  41.6746190  54.3211840  56.6202570
  41.7812940  55.2215570  56.9271330  40.7638550  54.2729810  56.3297220
  51.3265300  53.4436650  58.0913470  52.1474920  52.9533220  58.1338950
  51.3599380  54.0334310  58.8445310  39.3229350  56.2430850  61.8655160
  40.0039460  56.5069220  62.4842560  39.0077400  55.4031720  62.1993170
  43.5153920  57.2898210  60.9527750  44.0232140  57.7879180  61.5932770
  44.0467160  56.5133410  60.7767110  48.1861110  62.0416080  56.7181070
  47.5678380  62.5065530  56.1543790  48.6984360  62.7343560  57.1350580
  51.5626780  55.3837030  60.8641010  50.8582350  55.6721920  61.4444120
  51.9238940  56.1937140  60.5040570  41.4805350  53.6406730  63.2261620
  41.8222160  54.4848780  62.9315490  40.5421160  53.7890470  63.3426960
  37.5544310  62.7272610  54.0920700  37.1772290  63.2159710  53.3605600
  37.8117380  63.3997890  54.7227230  53.1789560  65.0012160  63.1268490
  52.4953080  65.6711270  63.1185160  53.7183850  65.1992810  62.3613350
  54.6313700  54.8291820  61.2550220  53.6838610  54.8630800  61.3865650
  54.9563690  55.6430770  61.6399580  45.1633240  51.1289000  59.5506210
  45.4708220  50.5735890  58.8341710  44.2333940  51.2633460  59.3679200
  50.7148300  66.8456290  61.8413670  50.7275460  66.4418580  60.9735930
  50.1623520  67.6203580  61.7375100  52.0093720  63.5672510  56.9303840
  51.8990050  62.6246840  57.0553260  52.0061970  63.9288150  57.8166600
  47.5514000  59.1937830  56.2866330  46.6243280  59.1275210  56.5154800
  47.7038820  60.1317960  56.1721570  47.5383080  55.4654830  53.2833490
  46.5986750  55.6268790  53.3685950  47.8566340  56.1840510  52.7369480
  54.0595840  60.1473350  63.2612520  53.2314470  60.2166440  62.7862650
  54.6546320  60.7327660  62.7928350  51.5811290  60.7558130  56.7901580
  50.9623710  60.4177680  56.1427880  51.5635740  60.1117890  57.4980770
  43.1570640  59.7202570  59.0686060  42.7527640  59.0079820  58.5731960
  43.2433760  59.3755810  59.9574100  43.6252340  63.4070130  61.2325270
  43.3280630  62.8015600  60.5533050  44.5752160  63.4447440  61.1214630
  49.7575990  59.9944940  53.7974330  50.1969270  59.1567370  53.6512150
  50.4704410  60.6274340  53.8838470  47.8671370  64.9341010  57.7655570
  48.3067280  65.6765340  57.3510960  47.8058260  65.1767580  58.6894530
  53.3393130  51.2487750  52.1115370  53.0265790  51.3414580  53.0114440
  54.1005600  51.8268780  52.0612800  39.8575270  58.6147550  56.5692710
  39.7372870  59.3409640  55.9573980  39.5476160  57.8450460  56.0920620
  37.4960640  61.7862690  62.3761350  37.5741060  61.9211460  61.4317070
  38.1102320  61.0778580  62.5689470  38.7408270  63.4862880  58.7867530
  38.3336350  63.6277470  57.9321130  39.6321280  63.2023040  58.5838740
  50.5341550  67.9210130  55.1218580  50.3742690  67.6313070  56.0200410
  50.3688260  67.1450260  54.5863810  43.0129930  67.7008660  56.8990200
  42.8372410  66.7844200  56.6858000  42.1585670  68.0595950  57.1388000
  50.2367680  65.4297690  53.6816580  49.5432840  65.4274980  53.0218860
  50.9790540  65.0057010  53.2510750  49.8017610  67.0560400  57.7565070
  50.2574560  66.2749780  58.0703690  50.1410130  67.7667220  58.3006250
  42.3238930  51.9582620  59.9516380  41.8807080  52.7392160  59.6200900
  42.8823920  52.2812510  60.6587320  45.4397750  51.5793320  54.8322210
  44.8151930  51.5753190  55.5575520  45.3527870  50.7124280  54.4358180
  44.3614830  52.5029950  61.8105980  44.6587160  53.4092780  61.7298000
  44.9100390  52.0148730  61.1965550  42.1153150  57.0816190  57.6797630
  41.8894070  56.8653360  58.5844250  41.3345680  57.5144650  57.3343600
  49.3450910  57.0879560  56.2788280  48.7459800  57.8115360  56.0951900
  49.8930520  57.0256340  55.4964730  47.9515780  55.7243100  58.3091560
  48.3445350  56.0415300  57.4960250  48.3132630  54.8454980  58.4236080
  36.9879950  52.3143900  60.5321760  36.6993000  52.8846760  61.2446740
  37.7325710  51.8348350  60.8952990  37.1750180  56.2564020  51.7424480
  37.0924850  57.1994780  51.8839470  36.8233240  56.1138930  50.8636830
  48.5370920  58.3148850  62.4042340  47.8052040  58.8235660  62.7532440
  48.1395260  57.4978830  62.1031120  44.9748310  54.9903050  60.8094830
  44.9784370  54.5493000  59.9599370  45.8699430  55.3120380  60.9166650
  40.8250690  54.8729540  59.7689040  40.4850740  55.3504770  60.5256090
  40.0628010  54.4194660  59.4090140  45.0368460  55.9915130  53.8001590
  45.1581280  55.9501610  54.7487410  44.6516970  56.8539280  53.6448320
  48.9996830  53.7682530  61.8165280  49.0169570  54.2191180  62.6607130
  48.7512410  52.8688170  62.0298720  44.0489960  58.3016270  53.1984890
  43.4806860  57.8534520  52.5720800  44.7578960  58.6609050  52.6650040
  45.2756280  59.0504830  62.5560240  45.6426410  58.5763400  63.3021580
  45.0861340  59.9246400  62.8968580  38.1396770  53.7948520  58.6853710
  37.8543690  53.4304190  59.5232330  38.0775630  53.0628980  58.0716850
  41.5937440  62.2974460  55.4711300  40.8199700  61.7572080  55.3110020
  42.3232070  61.7781070  55.1329060  52.3525420  61.2939820  61.2637690
  53.0724540  61.7895110  60.8733800  52.1507240  60.6157710  60.6191560
  47.8135360  52.6877780  55.4067080  46.9999970  52.1890950  55.3312390
  47.6197310  53.5276030  54.9903430  50.5283750  57.0597430  53.7029240
  51.4163370  57.3714660  53.5280580  50.4988840  56.1869680  53.3109820
  41.6374840  61.9654840  59.1090110  42.1553510  61.1623100  59.0547000
  41.1858860  61.9033980  59.9506940  46.5244340  63.2321120  54.3817410
  46.8660040  63.9763350  53.8860730  45.6957050  63.5452240  54.7442240
  52.7998020  58.3709270  53.1709100  52.7161740  58.8023490  52.3205540
  53.5192210  58.8307620  53.6035920  53.8285270  65.2251530  55.8991230
  53.1861430  64.5707150  56.1734950  53.4415930  65.6306620  55.1231900
  49.4071750  62.5536960  59.7462920  49.7595570  61.9565090  59.0864290
  48.5234080  62.2281190  59.9171170  45.4935030  63.3134650  57.1533330
  46.1806160  63.8603860  57.5340920  44.7067450  63.8575380  57.1882940
  37.6327430  58.9307470  52.6450410  38.5022280  59.2132270  52.9286330
  37.1417750  59.7443340  52.5299220  44.7962240  60.3180680  56.7658690
  45.2525020  61.1285930  56.9918880  44.4450450  60.0003820  57.5977180
  40.6974020  50.6618330  57.2381210  40.5688650  50.6536230  58.1866130
  39.8736040  51.0001420  56.8872220  48.3726930  63.8319370  62.7128440
  49.0149160  63.1312530  62.8260610  48.8976280  64.6117810  62.5325330
  52.2182650  64.1167990  52.4367580  51.9920230  63.3998430  53.0292220
  51.8278850  63.8680430  51.5989330  37.9998680  68.1434850  53.2112040
  38.3596320  68.7424190  52.5569310  37.8591020  68.6894740  53.9847070
  51.7998900  62.0339930  54.0981740  51.5120600  62.4952620  54.8859620
  52.5951070  61.5737700  54.3665960  44.0167300  65.5266050  54.0285710
  44.0077400  66.2595740  53.4130220  43.0965660  65.2797630  54.1212670
  39.6173940  60.7480940  54.7732470  39.0101890  61.4879840  54.7827770
  40.0923290  60.8380300  53.9470670  52.5568760  53.8688700  55.2576920
  51.9281920  53.9734370  54.5435150  52.0620680  54.0885480  56.0470800
  47.0026900  65.5894290  52.6910900  47.1038880  65.3858280  51.7612880
  46.1028640  65.3352570  52.8958680  44.5252790  56.1474650  56.6734800
  43.8168940  56.6160990  57.1148410  44.8097270  55.4896660  57.3079990
  48.5568220  52.8725310  58.1130590  48.4336000  52.8911440  57.1640100
  49.5052780  52.9204250  58.2328990  45.6445010  68.1080610  57.3858570
  45.8986510  68.0702000  56.4637940  44.6957490  67.9813940  57.3786820
  42.7287810  54.4559730  54.0485510  43.5778340  54.8929880  53.9825700
  42.3619080  54.7679990  54.8757570  51.6497590  59.0272490  58.9617080
  50.7087730  59.0422720  59.1364770  51.9641660  58.2408450  59.4077380
  41.6279230  60.7092090  52.5221040  42.3942500  60.5973450  53.0846470
  41.7053920  60.0130060  51.8697810  40.3225990  58.1417160  53.2053930
  40.4029580  57.1944670  53.3171330  41.2145740  58.4724040  53.3114590
  53.6523170  66.1981340  60.6371340  53.7770590  67.0212510  61.1095150
  54.5188730  65.9872070  60.2895490  41.1240700  68.2912550  60.3088470
  41.8603180  67.7428010  60.5797040  41.5081620  69.1568560  60.1694460
  38.0086180  64.3586120  56.1829980  37.0825960  64.6007260  56.1735390
  38.4742610  65.1860380  56.0614730  44.2343010  67.4642860  52.1314040
  45.0271620  67.7531690  51.6795830  43.7147360  67.0335030  51.4526520
  53.2873180  66.6912990  53.5550780  53.0014690  66.2778130  52.7404960
  53.0892730  67.6200700  53.4351300  44.7520410  62.6846270  51.9956390
  44.6471050  62.0698620  52.7217770  44.5844630  62.1612160  51.2119400
  47.9923140  61.7466300  52.5998380  47.4433240  62.1935600  53.2441120
  48.6142400  61.2415550  53.1236050  43.6598260  60.7057220  54.4963680
  44.0814680  60.5397090  55.3395070  43.7849100  59.8957450  54.0018820
  46.1725900  59.7294830  51.7440780  46.6931560  59.0143850  51.3781930
  46.8194300  60.3680700  52.0441290  42.5557160  56.7790450  51.4421840
  42.3546220  55.9157810  51.8035180  42.3849210  56.6923810  50.5043440
  50.0345470  51.5898680  53.9708720  50.3147760  50.7466580  54.3268140
  49.2611200  51.8221790  54.4847470  41.3539960  53.8791070  51.4299720
  41.6565860  53.8858500  50.5218870  42.0934550  53.5288930  51.9267380
  44.5724890  52.8225690  52.4155920  44.2246890  52.1449680  51.8358370
  44.7737660  52.3615200  53.2299310  46.7373930  67.8106440  54.0342520
  47.6324720  68.1491410  54.0561280  46.7691560  67.0885850  53.4066800
  40.3770090  63.1833490  52.2629520  40.8144960  63.7263160  52.9187100
  40.8617820  62.3580440  52.2725860  37.5915890  65.9722520  59.7149780
  37.9218900  65.1043580  59.4828420  38.0206890  66.1781040  60.5454740
  42.1877810  64.3031530  57.3751750  41.8873350  64.1796500  58.2755660
  42.0815300  63.4440120  56.9667480  38.0806100  66.8393110  62.4531410
  37.6437090  67.0193910  63.2855560  38.6483780  67.5967730  62.3113130
  54.9569730  64.0827930  52.0778430  54.1262690  64.1504580  52.5485660
  55.1341560  64.9732050  51.7745290  54.4126190  60.8275410  54.5812630
  55.1745100  61.3972060  54.6872320  54.4280560  60.2602610  55.3520940
  37.9130530  59.3513340  58.8120290  37.2579370  59.0824980  58.1679990
  38.7508480  59.2417820  58.3622270  55.4186160  61.6825510  59.4254560
  55.7894990  60.8992830  59.0190530  56.0588090  62.3714610  59.2471860
  54.4645360  61.1209780  51.7385150  54.7394200  62.0288660  51.6104370
  54.2756100  61.0572310  52.6747140  50.8620970  54.1454630  53.0338780
  51.2805850  53.9585610  52.1935440  50.5557030  53.2933680  53.3441710
  54.3610700  59.0578770  56.7314580  53.9854300  58.2906700  56.2995870
  53.6313820  59.4401470  57.2189510  37.1268610  56.5612270  54.7545620
  36.2232690  56.8242470  54.5797280  37.6109230  56.8323440  53.9745580
  53.6361660  57.2836260  60.0321820  54.1599140  56.7898910  59.4011990
  54.2221080  57.4186620  60.7769390  39.6695820  55.6177810  52.6640000
  40.3787520  55.1961030  52.1787280  38.9535760  55.6853040  52.0323350
  39.3169980  51.6717140  51.7042650  40.0398110  52.2126080  52.0223870
  39.5894500  51.3980560  50.8284190  53.1261630  56.5409610  55.9714230
  53.6220750  56.3080480  56.7563110  52.9277700  55.7021450  55.5551870
  39.0062170  50.9223330  61.6065270  39.6538360  50.3720710  61.1660430
  39.4264010  51.1766480  62.4281080  54.5548790  55.1770560  58.5051910
  54.4448070  55.0226600  59.4434180  55.3156380  54.6491500  58.2627320
  55.4439060  53.0078480  51.7458050  56.3688370  52.8759660  51.5376340
  55.4214850  53.0871300  52.6994500  55.5177550  53.7789140  54.3714760
  54.7229050  53.7134260  54.9007670  55.7220830  54.7139780  54.3600110
  52.4595970  67.8180690  58.3653150  53.0555040  67.4965260  57.6887570
  52.7174120  67.3452510  59.1566420  53.0108180  68.4675990  62.1950880
  52.5511150  69.2191800  61.8208900  52.3820640  67.7482460  62.1365680
  43.4403900  66.7764230  61.3699010  43.9568920  66.1651590  60.8447270
  44.0901280  67.2793010  61.8610020  46.1799400  67.6672720  62.1967990
  46.4677210  67.4127020  61.3201000  46.6922620  67.1150080  62.7873560
  47.3976410  51.4062920  62.7764500  46.6148200  51.8808420  63.0561260
  47.1039340  50.5017750  62.6677680  51.9497480  52.1086020  60.8213590
  52.3905570  52.0531120  59.9735190  51.6805070  53.0244030  60.8923770
  53.8136050  51.7401260  58.8322410  53.7524450  50.7962480  58.6853430
  54.5928080  51.8481350  59.3775870  38.1188800  67.8793620  57.7946360
  37.9510840  67.2464300  58.4928250  37.2523310  68.0853020  57.4440550
  38.7416820  51.7110400  55.2978220  39.4996180  51.8239280  54.7242250
  38.2793990  52.5479600  55.2521650  45.2830630  53.8249670  58.2880530
  44.4705140  53.4506560  57.9476410  45.7872270  53.0694750  58.5901720
  49.7855610  50.4892120  59.5263600  50.3884980  51.0612330  60.0012120
  49.0448600  51.0531560  59.3037500  52.9290210  50.8913680  54.8003880
  53.1240840  51.7897130  55.0671310  52.1420080  50.6600760  55.2936830
  39.7251500  66.5726850  55.2396500  39.1999120  66.9534880  54.5358460
  39.6496080  67.1977620  55.9606210  41.1141970  52.2374450  53.8380190
  41.6434730  51.4504250  53.7088140  41.7470290  52.9165640  54.0715720
  43.3079810  51.9749590  56.8925580  42.6782550  51.2736900  57.0595710
  42.7684950  52.7353720  56.6758740  54.4816820  68.1314390  56.5610440
  54.6569010  67.4452130  55.9171360  53.7838390  68.6561440  56.1687110
  42.3244470  68.5209230  54.1145750  43.0563290  68.2368510  53.5669640
  42.5838140  68.2822510  55.0045130  41.4859260  64.6373960  54.1192080
  40.8568140  65.1059060  54.6677910  41.6007090  63.7923180  54.5538270
  47.0727020  60.4658640  42.1502550  46.2969120  59.9859080  42.4401120
  47.7239950  59.7864290  41.9758710  41.0892850  60.7778450  43.0278310
  40.2577730  60.5227160  43.4274820  41.6973830  60.8489220  43.7636230
  41.0694110  64.8118540  43.2236330  41.3722150  63.9216280  43.0446550
  41.8137700  65.3688760  42.9958580  37.4617810  58.3385990  42.6960400
  38.0333920  57.5708190  42.6964040  37.4619350  58.6374750  41.7867010
  46.5136010  63.1415830  42.1572710  46.4444290  62.2005770  41.9961840
  47.2755870  63.2317240  42.7295280  38.7042680  53.7470350  44.4829330
  38.5245520  52.8496100  44.7632090  38.3022760  54.2942220  45.1576280
  47.5441180  55.9486210  42.3841640  47.9206000  55.0758090  42.2715310
  47.4460690  56.2844910  41.4932080  51.3265300  53.4436650  39.3169980
  52.1474920  52.9533220  39.3595460  51.3599380  54.0334310  40.0701820
  39.3229350  56.2430850  43.0911670  40.0039460  56.5069220  43.7099070
  39.0077400  55.4031720  43.4249680  43.5153920  57.2898210  42.1784260
  44.0232140  57.7879180  42.8189280  44.0467160  56.5133410  42.0023620
  55.6164850  55.4603400  45.8813610  54.9117020  55.8485110  45.3628720
  55.8822770  56.1553690  46.4834540  41.7990020  51.9296770  46.4447680
  41.8008460  52.4469160  45.6393580  40.9694330  51.4526950  46.4217610
  43.0492870  61.5691950  44.6221180  42.7162250  62.1960870  45.2642250
  43.2259550  62.0953830  43.8422850  51.5626780  55.3837030  42.0897520
  50.8582350  55.6721920  42.6700630  51.9238940  56.1937140  41.7297080
  41.4805350  53.6406730  44.4518130  41.8222160  54.4848780  44.1572000
  40.5421160  53.7890470  44.5683470  42.2611970  63.5372750  46.4370360
  42.8785970  64.2123830  46.1554810  41.4005090  63.9460730  46.3457860
  53.1789560  65.0012160  44.3525000  52.4953080  65.6711270  44.3441670
  53.7183850  65.1992810  43.5869860  54.6313700  54.8291820  42.4806730
  53.6838610  54.8630800  42.6122160  54.9563690  55.6430770  42.8656090
  50.7148300  66.8456290  43.0670180  50.7275460  66.4418580  42.1992440
  50.1623520  67.6203580  42.9631610  50.1133740  61.7486130  44.3952790
  50.5302530  61.5346240  43.5606250  50.8373560  62.0058920  44.9661410
  54.0595840  60.1473350  44.4869030  53.2314470  60.2166440  44.0119160
  54.6546320  60.7327660  44.0184860  51.0237850  56.9342670  45.4323900
  50.6109030  57.7596380  45.6863890  50.2913800  56.3487710  45.2400260
  43.6252340  63.4070130  42.4581780  43.3280630  62.8015600  41.7789560
  44.5752160  63.4447440  42.3471140  41.8699260  56.4945780  44.0741610
  42.4213850  56.6041120  43.2994860  42.3842770  56.8683380  44.7896840
  51.7137950  66.9802000  46.1204880  51.2368510  67.7874190  45.9277490
  51.0299740  66.3280330  46.2731090  42.7170770  63.1451820  49.1089580
  41.8199300  63.3691790  49.3562980  42.7423640  63.2686760  48.1600980
  41.5441990  60.0165140  47.6846950  41.4049760  60.8887940  48.0534350
  40.6623350  59.6737950  47.5394890  43.3422340  65.9586840  49.8932100
  43.3137770  66.3629790  49.0260530  43.1787310  65.0297200  49.7303700
  53.3393130  51.2487750  33.3371880  53.0265790  51.3414580  34.2370950
  54.1005600  51.8268780  33.2869310  55.2937160  66.7413940  51.1896270
  55.7696880  67.2196830  51.8685350  55.9144320  66.6731430  50.4641770
  37.4960640  61.7862690  43.6017860  37.5741060  61.9211460  42.6573580
  38.1102320  61.0778580  43.7945980  54.6970410  63.9326790  48.3496280
  54.8233470  63.6938670  47.4313460  54.7391790  63.1011330  48.8218360
  48.5587150  67.6354790  46.9191090  49.0731820  67.5462800  47.7213520
  47.7156230  67.9814490  47.2119000  54.5494420  55.9859250  49.3146020
  53.9338690  56.4938920  48.7861480  54.2290840  55.0857580  49.2571960
  37.5520160  62.8276860  46.1412320  37.7151200  62.3582220  45.3231690
  38.0172610  62.3200420  46.8061160  42.3238930  51.9582620  41.1772890
  41.8807080  52.7392160  40.8457410  42.8823920  52.2812510  41.8843830
  46.6108740  54.8251140  46.7808210  46.1488110  55.0334160  47.5928150
  46.2086850  54.0110490  46.4778880  51.6113250  56.0460090  47.9104870
  50.7606840  55.7465840  48.2313940  51.4515040  56.2902100  46.9988690
  48.7062960  57.5461840  50.0103660  49.0316370  56.7125590  49.6705890
  49.4943290  58.0690360  50.1581990  44.3614830  52.5029950  43.0362490
  44.6587160  53.4092780  42.9554510  44.9100390  52.0148730  42.4222060
  44.5552360  57.9801770  49.5714410  44.4595960  57.0396500  49.4214810
  45.3984340  58.2016840  49.1762480  39.6862900  54.3915440  47.7248190
  39.2926290  55.2390650  47.9320970  38.9981300  53.7541810  47.9156830
  46.2607950  54.4750410  50.7944930  45.5706270  54.2822610  51.4291020
  47.0040250  54.7585050  51.3269230  36.9879950  52.3143900  41.7578270
  36.6993000  52.8846760  42.4703250  37.7325710  51.8348350  42.1209500
  48.5370920  58.3148850  43.6298850  47.8052040  58.8235660  43.9788950
  48.1395260  57.4978830  43.3287630  44.9748310  54.9903050  42.0351340
  44.9784370  54.5493000  41.1855880  45.8699430  55.3120380  42.1423160
  48.9996830  53.7682530  43.0421790  49.0169570  54.2191180  43.8863640
  48.7512410  52.8688170  43.2555230  52.4267580  51.1814710  48.8808170
  52.7513350  50.4504370  49.4066150  52.4624090  50.8628350  47.9789160
  39.1259140  62.2028290  48.3008130  38.7413930  61.5621960  48.8991090
  39.4371330  62.9064410  48.8702860  45.2756280  59.0504830  43.7816750
  45.6426410  58.5763400  44.5278090  45.0861340  59.9246400  44.1225090
  43.0655650  58.0913470  46.1000960  42.7612720  58.9705450  46.3251320
  44.0202110  58.1513260  46.1358400  52.3525420  61.2939820  42.4894200
  53.0724540  61.7895110  42.0990310  52.1507240  60.6157710  41.8448070
  47.7344220  61.3648880  48.3763200  47.6681530  60.4444550  48.1220790
  47.1049360  61.4624320  49.0907840  39.1219380  58.9316210  47.2472320
  38.7634320  59.5970060  47.8345660  38.8273940  58.0999760  47.6184940
  42.3232500  59.3900450  50.1311870  42.0232640  59.5357630  49.2339690
  43.0943740  58.8305740  50.0385260  47.6660950  64.1869450  48.1267000
  47.6805490  63.2550410  47.9085910  46.9586050  64.2729210  48.7656770
  52.7998020  58.3709270  34.3965610  52.7161740  58.8023490  33.5462050
  53.5192210  58.8307620  34.8292430  53.8772160  60.8276790  47.4735580
  53.1520350  61.4205570  47.2764970  54.4047620  60.8200330  46.6748950
  47.0994850  65.8287020  45.2207500  47.7437070  66.0346400  45.8980920
  47.4624290  65.0675420  44.7678350  48.3726930  63.8319370  43.9384950
  49.0149160  63.1312530  44.0517120  48.8976280  64.6117810  43.7581840
  50.1464550  64.6314270  47.1421010  50.4820790  65.2180960  47.8198930
  49.2264890  64.5006980  47.3718800  37.6967950  52.4209450  47.9244420
  36.9826470  52.6206370  48.5297030  38.1162990  51.6449020  48.2959220
  37.9840540  66.4089710  48.9110950  38.0931660  65.4684450  48.7706340
  37.3321100  66.6744460  48.2624680  45.9753130  64.6805600  50.3109070
  45.6550000  63.9614840  50.8554760  45.3011490  65.3560670  50.3845130
  49.1906730  54.9131760  45.6745870  49.5587550  54.0926970  46.0025440
  48.3304930  54.9733650  46.0901520  52.5568760  53.8688700  36.4833430
  51.9281920  53.9734370  35.7691660  52.0620680  54.0885480  37.2727310
  46.1508720  57.5671350  45.8983840  46.6493970  58.0417170  46.5635690
  46.2931670  56.6434870  46.1053870  53.3575580  53.7839310  46.7412230
  52.8549180  54.5244710  47.0806040  54.1732240  54.1723310  46.4249020
  41.1240700  68.2912550  41.5344980  41.8603180  67.7428010  41.8053550
  41.5081620  69.1568560  41.3950970  40.1298980  67.4758620  50.7230560
  40.9311710  67.7970670  51.1365960  39.6150800  67.1154200  51.4450470
  48.9663610  63.5838490  50.6705970  48.3601770  63.6070090  49.9301720
  48.6617720  62.8521530  51.2073220  50.3963980  67.3118780  49.2815380
  51.3485730  67.2276800  49.2315620  50.2492200  67.9760490  49.9549170
  37.8496790  59.9632080  49.6666610  38.3535810  59.3839360  50.2382840
  37.1104210  60.2472310  50.2042980  44.9034730  61.3703070  49.2002130
  44.1380400  61.9388070  49.1156800  45.0850690  61.0779280  48.3070360
  52.0458080  63.1008400  49.7577150  52.7867550  63.4384160  49.2544610
  51.2830760  63.2700460  49.2046920  39.8819870  58.1061670  50.5616680
  39.9225210  57.8075540  51.4701910  40.7365370  58.5069280  50.4024200
  41.8225680  56.6853770  48.5291170  41.2922140  56.1944720  47.9014510
  42.4913750  57.1137970  47.9949100  50.7203740  61.1523230  48.2932360
  51.1344760  61.3068310  49.1422780  49.7854740  61.2778450  48.4558140
  51.1925910  58.4919390  50.2971510  51.7746680  57.7371710  50.2091990
  51.3687680  59.0226830  49.5202990  42.3097980  53.6516140  48.6088460
  42.2154850  53.0336890  47.8839330  41.7295370  54.3782430  48.3818370
  45.0759420  52.2089380  45.6415850  44.6276720  52.2313640  44.7961400
  44.4424620  51.8108400  46.2386150  45.4818970  61.1043710  46.2628290
  45.9007080  61.9476440  46.0904530  44.5627600  61.2415750  46.0335070
  47.8182870  58.8359890  47.6466130  47.9379080  58.2401030  48.3860970
  48.6776870  58.8729580  47.2267430  50.1570770  59.3897080  46.2228640
  49.6305990  59.9139700  45.6193780  50.5002110  60.0224470  46.8538370
  43.3326390  67.4096720  47.3786020  42.7947480  68.1342780  47.0594720
  43.5860350  66.9327060  46.5883360  44.5851640  55.3781240  48.9041950
  45.1751330  55.0697090  49.5919770  43.7671880  54.9060990  49.0601850
  49.4045070  54.9947050  49.1374970  48.7160590  54.3328590  49.0724960
  50.1251090  54.5485320  49.5823430  46.1888600  68.6447930  47.6372670
  46.1147300  69.5483070  47.9445040  45.2867440  68.3259830  47.6094740
  37.5915890  65.9722520  40.9406290  37.9218900  65.1043580  40.7084930
  38.0206890  66.1781040  41.7711250  38.0806100  66.8393110  43.6787920
  37.6437090  67.0193910  44.5112070  38.6483780  67.5967730  43.5369640
  53.7168280  66.3410110  47.9665230  53.1170270  66.4002670  47.2229150
  53.8462180  65.4015090  48.0962080  52.4019920  63.0662090  46.0641390
  51.5879760  63.4959250  46.3267180  52.8094120  63.6780500  45.4510440
  38.9506460  59.7365910  44.5780140  39.3179500  59.6493310  45.4576160
  38.3817280  58.9732460  44.4787000  53.7510320  58.2050290  47.5910610
  53.5196410  57.9763040  46.6908560  54.0114870  59.1249840  47.5455500
  38.5022460  56.6475000  48.4838560  37.6078510  56.6141760  48.8232270
  39.0420010  56.8461790  49.2489810  52.1898390  53.4306720  50.3690310
  53.0668570  53.4390120  50.7524310  52.2019230  52.6937560  49.7582660
  53.6361660  57.2836260  41.2578330  54.1599140  56.7898910  40.6268500
  54.2221080  57.4186620  42.0025900  53.8151380  57.3676130  44.7797880
  52.8654090  57.3339670  44.8942870  53.9964390  58.2776240  44.5447650
  39.0062170  50.9223330  42.8321780  39.6538360  50.3720710  42.3916940
  39.4264010  51.1766480  43.6537590  54.5548790  55.1770560  39.7308420
  54.4448070  55.0226600  40.6690690  55.3156380  54.6491500  39.4883830
  52.9014510  51.1164690  46.1891420  53.5386730  51.7298830  46.5550610
  53.0489400  51.1525350  45.2440650  55.4439060  53.0078480  32.9714560
  56.3688370  52.8759660  32.7632850  55.4214850  53.0871300  33.9251010
  55.5177550  53.7789140  35.5971270  54.7229050  53.7134260  36.1264180
  55.7220830  54.7139780  35.5856620  38.7594170  51.0779000  45.5747100
  38.4108990  51.5342820  46.3405280  38.4281870  50.1836130  45.6569530
  40.3658540  64.2498600  49.7400290  40.3228170  63.8791510  50.6214750
  40.4969550  65.1876170  49.8802110  44.0664570  65.8058190  45.3410010
  43.8255930  66.0732750  44.4540530  45.0067210  65.9763920  45.3960870
  46.2718990  52.2690880  49.0966520  46.2107880  52.8612710  49.8461930
  47.2119370  52.1616840  48.9516780  48.9093550  51.9260940  48.7358810
  49.5233960  52.2440230  48.0739890  49.4543110  51.4409530  49.3554670
  55.3268730  67.8252570  46.1420650  54.8327010  68.2221440  45.4247780
  54.7182020  67.2001780  46.5357930  39.4314810  50.6055200  48.8497870
  39.9797800  50.4243250  48.0863980  39.4970120  49.8149310  49.3854180
  40.2046570  67.1960850  46.8598070  39.6106890  67.0645550  47.5988110
  40.1970410  66.3598990  46.3940170  49.6501590  50.4893080  45.0628100
  48.7761430  50.8228190  44.8601030  49.5412340  50.0166260  45.8879970
  50.5573570  52.6963950  46.4469820  50.2286930  51.8815710  46.0671550
  51.5055870  52.6533760  46.3235510  53.0108180  68.4675990  43.4207390
  52.5511150  69.2191800  43.0465410  52.3820640  67.7482460  43.3622190
  39.8358800  64.5619230  45.8106110  39.1092860  63.9424520  45.7432060
  39.8967950  64.9559840  44.9404190  43.4403900  66.7764230  42.5955520
  43.9568920  66.1651590  42.0703780  44.0901280  67.2793010  43.0866530
  46.1799400  67.6672720  43.4224500  46.4677210  67.4127020  42.5457510
  46.6922620  67.1150080  44.0130070  47.3976410  51.4062920  44.0021010
  46.6148200  51.8808420  44.2817770  47.1039340  50.5017750  43.8934190
  51.9497480  52.1086020  42.0470100  52.3905570  52.0531120  41.1991700
  51.6805070  53.0244030  42.1180280  53.8136050  51.7401260  40.0578920
  53.7524450  50.7962480  39.9109940  54.5928080  51.8481350  40.6032380
  46.2471760  68.5888820  50.7892700  47.1739070  68.3533090  50.8328660
  46.2322190  69.4160820  50.3078730  43.4335370  51.2533570  50.5534580
  43.1519640  51.7567170  49.7895400  43.8155070  50.4555320  50.1876710
  50.0350830  50.6687150  51.1315050  49.9216280  50.9881760  52.0266570
  50.8520570  51.0699660  50.8352330  52.8149320  67.8158680  50.6133740
  53.6074640  67.3207910  50.4059700  53.1082470  68.4948820  51.2209350
  48.9408980  58.6879620  21.4949790  48.8603030  57.7734230  21.2241500
  48.5273400  59.1846690  20.7889500  51.0934450  64.8718830  22.1558190
  50.6315980  64.1006070  22.4845360  51.9060000  64.8984900  22.6610640
  39.4984800  55.7380340  18.0377210  38.6101500  56.0796310  17.9357090
  39.7825990  55.5380660  17.1458040  41.6746190  54.3211840  19.0715590
  41.7812940  55.2215570  19.3784350  40.7638550  54.2729810  18.7810240
  51.3265300  53.4436650  20.5426490  52.1474920  52.9533220  20.5851970
  51.3599380  54.0334310  21.2958330  43.5153920  57.2898210  23.4040770
  44.0232140  57.7879180  24.0445790  44.0467160  56.5133410  23.2280130
  55.6164850  55.4603400  27.1070120  54.9117020  55.8485110  26.5885230
  55.8822770  56.1553690  27.7091050  48.1861110  62.0416080  19.1694090
  47.5678380  62.5065530  18.6056810  48.6984360  62.7343560  19.5863600
  51.5626780  55.3837030  23.3154030  50.8582350  55.6721920  23.8957140
  51.9238940  56.1937140  22.9553590  37.5544310  62.7272610  16.5433720
  37.1772290  63.2159710  15.8118620  37.8117380  63.3997890  17.1740250
  54.6313700  54.8291820  23.7063240  53.6838610  54.8630800  23.8378670
  54.9563690  55.6430770  24.0912600  45.1633240  51.1289000  22.0019230
  45.4708220  50.5735890  21.2854730  44.2333940  51.2633460  21.8192220
  52.0093720  63.5672510  19.3816860  51.8990050  62.6246840  19.5066280
  52.0061970  63.9288150  20.2679620  47.5514000  59.1937830  18.7379350
  46.6243280  59.1275210  18.9667820  47.7038820  60.1317960  18.6234590
  47.5383080  55.4654830  15.7346510  46.5986750  55.6268790  15.8198970
  47.8566340  56.1840510  15.1882500  51.5811290  60.7558130  19.2414600
  50.9623710  60.4177680  18.5940900  51.5635740  60.1117890  19.9493790
  43.1570640  59.7202570  21.5199080  42.7527640  59.0079820  21.0244980
  43.2433760  59.3755810  22.4087120  49.7575990  59.9944940  16.2487350
  50.1969270  59.1567370  16.1025170  50.4704410  60.6274340  16.3351490
  47.8671370  64.9341010  20.2168590  48.3067280  65.6765340  19.8023980
  47.8058260  65.1767580  21.1407550  53.3393130  51.2487750  14.5628390
  53.0265790  51.3414580  15.4627460  54.1005600  51.8268780  14.5125820
  39.8575270  58.6147550  19.0205730  39.7372870  59.3409640  18.4087000
  39.5476160  57.8450460  18.5433640  38.7408270  63.4862880  21.2380550
  38.3336350  63.6277470  20.3834150  39.6321280  63.2023040  21.0351760
  50.5341550  67.9210130  17.5731600  50.3742690  67.6313070  18.4713430
  50.3688260  67.1450260  17.0376830  43.0129930  67.7008660  19.3503220
  42.8372410  66.7844200  19.1371020  42.1585670  68.0595950  19.5901020
  50.2367680  65.4297690  16.1329600  49.5432840  65.4274980  15.4731880
  50.9790540  65.0057010  15.7023770  49.8017610  67.0560400  20.2078090
  50.2574560  66.2749780  20.5216710  50.1410130  67.7667220  20.7519270
  54.5494420  55.9859250  30.5402530  53.9338690  56.4938920  30.0117990
  54.2290840  55.0857580  30.4828470  42.3238930  51.9582620  22.4029400
  41.8807080  52.7392160  22.0713920  42.8823920  52.2812510  23.1100340
  45.4397750  51.5793320  17.2835230  44.8151930  51.5753190  18.0088540
  45.3527870  50.7124280  16.8871200  42.1153150  57.0816190  20.1310650
  41.8894070  56.8653360  21.0357270  41.3345680  57.5144650  19.7856620
  49.3450910  57.0879560  18.7301300  48.7459800  57.8115360  18.5464920
  49.8930520  57.0256340  17.9477750  47.9515780  55.7243100  20.7604580
  48.3445350  56.0415300  19.9473270  48.3132630  54.8454980  20.8749100
  37.1750180  56.2564020  14.1937500  37.0924850  57.1994780  14.3352490
  36.8233240  56.1138930  13.3149850  40.8250690  54.8729540  22.2202060
  40.4850740  55.3504770  22.9769110  40.0628010  54.4194660  21.8603160
  45.0368460  55.9915130  16.2514610  45.1581280  55.9501610  17.2000430
  44.6516970  56.8539280  16.0961340  44.0489960  58.3016270  15.6497910
  43.4806860  57.8534520  15.0233820  44.7578960  58.6609050  15.1163060
  52.4267580  51.1814710  30.1064680  52.7513350  50.4504370  30.6322660
  52.4624090  50.8628350  29.2045670  38.1396770  53.7948520  21.1366730
  37.8543690  53.4304190  21.9745350  38.0775630  53.0628980  20.5229870
  41.5937440  62.2974460  17.9224320  40.8199700  61.7572080  17.7623040
  42.3232070  61.7781070  17.5842080  52.3525420  61.2939820  23.7150710
  53.0724540  61.7895110  23.3246820  52.1507240  60.6157710  23.0704580
  47.8135360  52.6877780  17.8580100  46.9999970  52.1890950  17.7825410
  47.6197310  53.5276030  17.4416450  50.5283750  57.0597430  16.1542260
  51.4163370  57.3714660  15.9793600  50.4988840  56.1869680  15.7622840
  41.6374840  61.9654840  21.5603130  42.1553510  61.1623100  21.5060020
  41.1858860  61.9033980  22.4019960  46.5244340  63.2321120  16.8330430
  46.8660040  63.9763350  16.3373750  45.6957050  63.5452240  17.1955260
  52.7998020  58.3709270  15.6222120  52.7161740  58.8023490  14.7718560
  53.5192210  58.8307620  16.0548940  53.8285270  65.2251530  18.3504250
  53.1861430  64.5707150  18.6247970  53.4415930  65.6306620  17.5744920
  49.4071750  62.5536960  22.1975940  49.7595570  61.9565090  21.5377310
  48.5234080  62.2281190  22.3684190  45.4935030  63.3134650  19.6046350
  46.1806160  63.8603860  19.9853940  44.7067450  63.8575380  19.6395960
  37.6327430  58.9307470  15.0963430  38.5022280  59.2132270  15.3799350
  37.1417750  59.7443340  14.9812240  44.7962240  60.3180680  19.2171710
  45.2525020  61.1285930  19.4431900  44.4450450  60.0003820  20.0490200
  40.6974020  50.6618330  19.6894230  40.5688650  50.6536230  20.6379150
  39.8736040  51.0001420  19.3385240  52.2182650  64.1167990  14.8880600
  51.9920230  63.3998430  15.4805240  51.8278850  63.8680430  14.0502350
  37.9998680  68.1434850  15.6625060  38.3596320  68.7424190  15.0082330
  37.8591020  68.6894740  16.4360090  51.7998900  62.0339930  16.5494760
  51.5120600  62.4952620  17.3372640  52.5951070  61.5737700  16.8178980
  44.0167300  65.5266050  16.4798730  44.0077400  66.2595740  15.8643240
  43.0965660  65.2797630  16.5725690  39.6173940  60.7480940  17.2245490
  39.0101890  61.4879840  17.2340790  40.0923290  60.8380300  16.3983690
  52.5568760  53.8688700  17.7089940  51.9281920  53.9734370  16.9948170
  52.0620680  54.0885480  18.4983820  47.0026900  65.5894290  15.1423920
  47.1038880  65.3858280  14.2125900  46.1028640  65.3352570  15.3471700
  44.5252790  56.1474650  19.1247820  43.8168940  56.6160990  19.5661430
  44.8097270  55.4896660  19.7593010  48.5568220  52.8725310  20.5643610
  48.4336000  52.8911440  19.6153120  49.5052780  52.9204250  20.6842010
  45.6445010  68.1080610  19.8371590  45.8986510  68.0702000  18.9150960
  44.6957490  67.9813940  19.8299840  42.7287810  54.4559730  16.4998530
  43.5778340  54.8929880  16.4338720  42.3619080  54.7679990  17.3270590
  53.3575580  53.7839310  27.9668740  52.8549180  54.5244710  28.3062550
  54.1732240  54.1723310  27.6505530  51.6497590  59.0272490  21.4130100
  50.7087730  59.0422720  21.5877790  51.9641660  58.2408450  21.8590400
  41.6279230  60.7092090  14.9734060  42.3942500  60.5973450  15.5359490
  41.7053920  60.0130060  14.3210830  40.3225990  58.1417160  15.6566950
  40.4029580  57.1944670  15.7684350  41.2145740  58.4724040  15.7627610
  53.6523170  66.1981340  23.0884360  53.7770590  67.0212510  23.5608170
  54.5188730  65.9872070  22.7408510  38.0086180  64.3586120  18.6343000
  37.0825960  64.6007260  18.6248410  38.4742610  65.1860380  18.5127750
  44.2343010  67.4642860  14.5827060  45.0271620  67.7531690  14.1308850
  43.7147360  67.0335030  13.9039540  53.2873180  66.6912990  16.0063800
  53.0014690  66.2778130  15.1917980  53.0892730  67.6200700  15.8864320
  44.7520410  62.6846270  14.4469410  44.6471050  62.0698620  15.1730790
  44.5844630  62.1612160  13.6632420  47.9923140  61.7466300  15.0511400
  47.4433240  62.1935600  15.6954140  48.6142400  61.2415550  15.5749070
  43.6598260  60.7057220  16.9476700  44.0814680  60.5397090  17.7908090
  43.7849100  59.8957450  16.4531840  46.1725900  59.7294830  14.1953800
  46.6931560  59.0143850  13.8294950  46.8194300  60.3680700  14.4954310
  42.5557160  56.7790450  13.8934860  42.3546220  55.9157810  14.2548200
  42.3849210  56.6923810  12.9556460  50.0345470  51.5898680  16.4221740
  50.3147760  50.7466580  16.7781160  49.2611200  51.8221790  16.9360490
  41.3539960  53.8791070  13.8812740  41.6565860  53.8858500  12.9731890
  42.0934550  53.5288930  14.3780400  44.5724890  52.8225690  14.8668940
  44.2246890  52.1449680  14.2871390  44.7737660  52.3615200  15.6812330
  46.7373930  67.8106440  16.4855540  47.6324720  68.1491410  16.5074300
  46.7691560  67.0885850  15.8579820  40.3770090  63.1833490  14.7142540
  40.8144960  63.7263160  15.3700120  40.8617820  62.3580440  14.7238880
  37.5915890  65.9722520  22.1662800  37.9218900  65.1043580  21.9341440
  38.0206890  66.1781040  22.9967760  42.1877810  64.3031530  19.8264770
  41.8873350  64.1796500  20.7268680  42.0815300  63.4440120  19.4180500
  54.9569730  64.0827930  14.5291450  54.1262690  64.1504580  14.9998680
  55.1341560  64.9732050  14.2258310  54.4126190  60.8275410  17.0325650
  55.1745100  61.3972060  17.1385340  54.4280560  60.2602610  17.8033960
  37.9130530  59.3513340  21.2633310  37.2579370  59.0824980  20.6193010
  38.7508480  59.2417820  20.8135290  55.4186160  61.6825510  21.8767580
  55.7894990  60.8992830  21.4703550  56.0588090  62.3714610  21.6984880
  54.4645360  61.1209780  14.1898170  54.7394200  62.0288660  14.0617390
  54.2756100  61.0572310  15.1260160  50.8620970  54.1454630  15.4851800
  51.2805850  53.9585610  14.6448460  50.5557030  53.2933680  15.7954730
  54.3610700  59.0578770  19.1827600  53.9854300  58.2906700  18.7508890
  53.6313820  59.4401470  19.6702530  53.7510320  58.2050290  28.8167120
  53.5196410  57.9763040  27.9165070  54.0114870  59.1249840  28.7712010
  52.1898390  53.4306720  31.5946820  53.0668570  53.4390120  31.9780820
  52.2019230  52.6937560  30.9839170  37.1268610  56.5612270  17.2058640
  36.2232690  56.8242470  17.0310300  37.6109230  56.8323440  16.4258600
  53.6361660  57.2836260  22.4834840  54.1599140  56.7898910  21.8525010
  54.2221080  57.4186620  23.2282410  53.8151380  57.3676130  26.0054390
  52.8654090  57.3339670  26.1199380  53.9964390  58.2776240  25.7704160
  39.6695820  55.6177810  15.1153020  40.3787520  55.1961030  14.6300300
  38.9535760  55.6853040  14.4836370  39.3169980  51.6717140  14.1555670
  40.0398110  52.2126080  14.4736890  39.5894500  51.3980560  13.2797210
  53.1261630  56.5409610  18.4227250  53.6220750  56.3080480  19.2076130
  52.9277700  55.7021450  18.0064890  54.5548790  55.1770560  20.9564930
  54.4448070  55.0226600  21.8947200  55.3156380  54.6491500  20.7140340
  52.9014510  51.1164690  27.4147930  53.5386730  51.7298830  27.7807120
  53.0489400  51.1525350  26.4697160  55.4439060  53.0078480  14.1971070
  56.3688370  52.8759660  13.9889360  55.4214850  53.0871300  15.1507520
  55.5177550  53.7789140  16.8227780  54.7229050  53.7134260  17.3520690
  55.7220830  54.7139780  16.8113130  52.4595970  67.8180690  20.8166170
  53.0555040  67.4965260  20.1400590  52.7174120  67.3452510  21.6079440
  51.9497480  52.1086020  23.2726610  52.3905570  52.0531120  22.4248210
  51.6805070  53.0244030  23.3436790  53.8136050  51.7401260  21.2835430
  53.7524450  50.7962480  21.1366450  54.5928080  51.8481350  21.8288890
  38.1188800  67.8793620  20.2459380  37.9510840  67.2464300  20.9441270
  37.2523310  68.0853020  19.8953570  38.7416820  51.7110400  17.7491240
  39.4996180  51.8239280  17.1755270  38.2793990  52.5479600  17.7034670
  45.2830630  53.8249670  20.7393550  44.4705140  53.4506560  20.3989430
  45.7872270  53.0694750  21.0414740  49.7855610  50.4892120  21.9776620
  50.3884980  51.0612330  22.4525140  49.0448600  51.0531560  21.7550520
  52.9290210  50.8913680  17.2516900  53.1240840  51.7897130  17.5184330
  52.1420080  50.6600760  17.7449850  39.7251500  66.5726850  17.6909520
  39.1999120  66.9534880  16.9871480  39.6496080  67.1977620  18.4119230
  41.1141970  52.2374450  16.2893210  41.6434730  51.4504250  16.1601160
  41.7470290  52.9165640  16.5228740  43.3079810  51.9749590  19.3438600
  42.6782550  51.2736900  19.5108730  42.7684950  52.7353720  19.1271760
  54.4816820  68.1314390  19.0123460  54.6569010  67.4452130  18.3684380
  53.7838390  68.6561440  18.6200130  42.3244470  68.5209230  16.5658770
  43.0563290  68.2368510  16.0182660  42.5838140  68.2822510  17.4558150
  41.4859260  64.6373960  16.5705100  40.8568140  65.1059060  17.1190930
  41.6007090  63.7923180  17.0051290  48.9408980  58.6879620   2.7206300
  48.8603030  57.7734230   2.4498010  48.5273400  59.1846690   2.0146010
  47.0727020  60.4658640   4.6015570  46.2969120  59.9859080   4.8914140
  47.7239950  59.7864290   4.4271730  41.0892850  60.7778450   5.4791330
  40.2577730  60.5227160   5.8787840  41.6973830  60.8489220   6.2149250
  51.0934450  64.8718830   3.3814700  50.6315980  64.1006070   3.7101870
  51.9060000  64.8984900   3.8867150  41.0694110  64.8118540   5.6749350
  41.3722150  63.9216280   5.4959570  41.8137700  65.3688760   5.4471600
  37.4617810  58.3385990   5.1473420  38.0333920  57.5708190   5.1477060
  37.4619350  58.6374750   4.2380030  47.3197760  67.1576840   3.0018690
  46.7009200  67.6134340   2.4313130  48.1749540  67.3128300   2.6008390
  46.5136010  63.1415830   4.6085730  46.4444290  62.2005770   4.4474860
  47.2755870  63.2317240   5.1808300  38.7042680  53.7470350   6.9342350
  38.5245520  52.8496100   7.2145110  38.3022760  54.2942220   7.6089300
  47.5441180  55.9486210   4.8354660  47.9206000  55.0758090   4.7228330
  47.4460690  56.2844910   3.9445100  51.3265300  53.4436650   1.7683000
  52.1474920  52.9533220   1.8108480  51.3599380  54.0334310   2.5214840
  39.3229350  56.2430850   5.5424690  40.0039460  56.5069220   6.1612090
  39.0077400  55.4031720   5.8762700  43.5153920  57.2898210   4.6297280
  44.0232140  57.7879180   5.2702300  44.0467160  56.5133410   4.4536640
  55.6164850  55.4603400   8.3326630  54.9117020  55.8485110   7.8141740
  55.8822770  56.1553690   8.9347560  41.7990020  51.9296770   8.8960700
  41.8008460  52.4469160   8.0906600  40.9694330  51.4526950   8.8730630
  43.0492870  61.5691950   7.0734200  42.7162250  62.1960870   7.7155270
  43.2259550  62.0953830   6.2935870  51.5626780  55.3837030   4.5410540
  50.8582350  55.6721920   5.1213650  51.9238940  56.1937140   4.1810100
  41.4805350  53.6406730   6.9031150  41.8222160  54.4848780   6.6085020
  40.5421160  53.7890470   7.0196490  42.2611970  63.5372750   8.8883380
  42.8785970  64.2123830   8.6067830  41.4005090  63.9460730   8.7970880
  53.1789560  65.0012160   6.8038020  52.4953080  65.6711270   6.7954690
  53.7183850  65.1992810   6.0382880  54.6313700  54.8291820   4.9319750
  53.6838610  54.8630800   5.0635180  54.9563690  55.6430770   5.3169110
  45.1633240  51.1289000   3.2275740  45.4708220  50.5735890   2.5111240
  44.2333940  51.2633460   3.0448730  50.7148300  66.8456290   5.5183200
  50.7275460  66.4418580   4.6505460  50.1623520  67.6203580   5.4144630
  50.1133740  61.7486130   6.8465810  50.5302530  61.5346240   6.0119270
  50.8373560  62.0058920   7.4174430  54.0595840  60.1473350   6.9382050
  53.2314470  60.2166440   6.4632180  54.6546320  60.7327660   6.4697880
  51.0237850  56.9342670   7.8836920  50.6109030  57.7596380   8.1376910
  50.2913800  56.3487710   7.6913280  43.1570640  59.7202570   2.7455590
  42.7527640  59.0079820   2.2501490  43.2433760  59.3755810   3.6343630
  43.6252340  63.4070130   4.9094800  43.3280630  62.8015600   4.2302580
  44.5752160  63.4447440   4.7984160  41.8699260  56.4945780   6.5254630
  42.4213850  56.6041120   5.7507880  42.3842770  56.8683380   7.2409860
  51.7137950  66.9802000   8.5717900  51.2368510  67.7874190   8.3790510
  51.0299740  66.3280330   8.7244110  42.7170770  63.1451820  11.5602600
  41.8199300  63.3691790  11.8076000  42.7423640  63.2686760  10.6114000
  41.5441990  60.0165140  10.1359970  41.4049760  60.8887940  10.5047370
  40.6623350  59.6737950   9.9907910  43.3422340  65.9586840  12.3445120
  43.3137770  66.3629790  11.4773550  43.1787310  65.0297200  12.1816720
  55.2937160  66.7413940  13.6409290  55.7696880  67.2196830  14.3198370
  55.9144320  66.6731430  12.9154790  37.4960640  61.7862690   6.0530880
  37.5741060  61.9211460   5.1086600  38.1102320  61.0778580   6.2459000
  38.7408270  63.4862880   2.4637060  38.3336350  63.6277470   1.6090660
  39.6321280  63.2023040   2.2608270  54.6970410  63.9326790  10.8009300
  54.8233470  63.6938670   9.8826480  54.7391790  63.1011330  11.2731380
  48.5587150  67.6354790   9.3704110  49.0731820  67.5462800  10.1726540
  47.7156230  67.9814490   9.6632020  54.5494420  55.9859250  11.7659040
  53.9338690  56.4938920  11.2374500  54.2290840  55.0857580  11.7084980
  37.5520160  62.8276860   8.5925340  37.7151200  62.3582220   7.7744710
  38.0172610  62.3200420   9.2574180  42.3238930  51.9582620   3.6285910
  41.8807080  52.7392160   3.2970430  42.8823920  52.2812510   4.3356850
  46.6108740  54.8251140   9.2321230  46.1488110  55.0334160  10.0441170
  46.2086850  54.0110490   8.9291900  51.6113250  56.0460090  10.3617890
  50.7606840  55.7465840  10.6826960  51.4515040  56.2902100   9.4501710
  48.7062960  57.5461840  12.4616680  49.0316370  56.7125590  12.1218910
  49.4943290  58.0690360  12.6095010  44.3614830  52.5029950   5.4875510
  44.6587160  53.4092780   5.4067530  44.9100390  52.0148730   4.8735080
  44.5552360  57.9801770  12.0227430  44.4595960  57.0396500  11.8727830
  45.3984340  58.2016840  11.6275500  39.6862900  54.3915440  10.1761210
  39.2926290  55.2390650  10.3833990  38.9981300  53.7541810  10.3669850
  46.2607950  54.4750410  13.2457950  45.5706270  54.2822610  13.8804040
  47.0040250  54.7585050  13.7782250  36.9879950  52.3143900   4.2091290
  36.6993000  52.8846760   4.9216270  37.7325710  51.8348350   4.5722520
  48.5370920  58.3148850   6.0811870  47.8052040  58.8235660   6.4301970
  48.1395260  57.4978830   5.7800650  44.9748310  54.9903050   4.4864360
  44.9784370  54.5493000   3.6368900  45.8699430  55.3120380   4.5936180
  40.8250690  54.8729540   3.4458570  40.4850740  55.3504770   4.2025620
  40.0628010  54.4194660   3.0859670  48.9996830  53.7682530   5.4934810
  49.0169570  54.2191180   6.3376660  48.7512410  52.8688170   5.7068250
  52.4267580  51.1814710  11.3321190  52.7513350  50.4504370  11.8579170
  52.4624090  50.8628350  10.4302180  39.1259140  62.2028290  10.7521150
  38.7413930  61.5621960  11.3504110  39.4371330  62.9064410  11.3215880
  45.2756280  59.0504830   6.2329770  45.6426410  58.5763400   6.9791110
  45.0861340  59.9246400   6.5738110  38.1396770  53.7948520   2.3623240
  37.8543690  53.4304190   3.2001860  38.0775630  53.0628980   1.7486380
  43.0655650  58.0913470   8.5513980  42.7612720  58.9705450   8.7764340
  44.0202110  58.1513260   8.5871420  52.3525420  61.2939820   4.9407220
  53.0724540  61.7895110   4.5503330  52.1507240  60.6157710   4.2961090
  47.7344220  61.3648880  10.8276220  47.6681530  60.4444550  10.5733810
  47.1049360  61.4624320  11.5420860  41.6374840  61.9654840   2.7859640
  42.1553510  61.1623100   2.7316530  41.1858860  61.9033980   3.6276470
  39.1219380  58.9316210   9.6985340  38.7634320  59.5970060  10.2858680
  38.8273940  58.0999760  10.0697960  42.3232500  59.3900450  12.5824890
  42.0232640  59.5357630  11.6852710  43.0943740  58.8305740  12.4898280
  47.6660950  64.1869450  10.5780020  47.6805490  63.2550410  10.3598930
  46.9586050  64.2729210  11.2169790  53.8772160  60.8276790   9.9248600
  53.1520350  61.4205570   9.7277990  54.4047620  60.8200330   9.1261970
  49.4071750  62.5536960   3.4232450  49.7595570  61.9565090   2.7633820
  48.5234080  62.2281190   3.5940700  47.0994850  65.8287020   7.6720520
  47.7437070  66.0346400   8.3493940  47.4624290  65.0675420   7.2191370
  48.3726930  63.8319370   6.3897970  49.0149160  63.1312530   6.5030140
  48.8976280  64.6117810   6.2094860  50.1464550  64.6314270   9.5934030
  50.4820790  65.2180960  10.2711950  49.2264890  64.5006980   9.8231820
  37.6967950  52.4209450  10.3757440  36.9826470  52.6206370  10.9810050
  38.1162990  51.6449020  10.7472240  37.9840540  66.4089710  11.3623970
  38.0931660  65.4684450  11.2219360  37.3321100  66.6744460  10.7137700
  45.9753130  64.6805600  12.7622090  45.6550000  63.9614840  13.3067780
  45.3011490  65.3560670  12.8358150  49.1906730  54.9131760   8.1258890
  49.5587550  54.0926970   8.4538460  48.3304930  54.9733650   8.5414540
  46.1508720  57.5671350   8.3496860  46.6493970  58.0417170   9.0148710
  46.2931670  56.6434870   8.5566890  53.3575580  53.7839310   9.1925250
  52.8549180  54.5244710   9.5319060  54.1732240  54.1723310   8.8762040
  51.6497590  59.0272490   2.6386610  50.7087730  59.0422720   2.8134300
  51.9641660  58.2408450   3.0846910  53.6523170  66.1981340   4.3140870
  53.7770590  67.0212510   4.7864680  54.5188730  65.9872070   3.9665020
  41.1240700  68.2912550   3.9858000  41.8603180  67.7428010   4.2566570
  41.5081620  69.1568560   3.8463990  40.1298980  67.4758620  13.1743580
  40.9311710  67.7970670  13.5878980  39.6150800  67.1154200  13.8963490
  48.9663610  63.5838490  13.1218990  48.3601770  63.6070090  12.3814740
  48.6617720  62.8521530  13.6586240  50.3963980  67.3118780  11.7328400
  51.3485730  67.2276800  11.6828640  50.2492200  67.9760490  12.4062190
  37.8496790  59.9632080  12.1179630  38.3535810  59.3839360  12.6895860
  37.1104210  60.2472310  12.6556000  44.9034730  61.3703070  11.6515150
  44.1380400  61.9388070  11.5669820  45.0850690  61.0779280  10.7583380
  52.0458080  63.1008400  12.2090170  52.7867550  63.4384160  11.7057630
  51.2830760  63.2700460  11.6559940  39.8819870  58.1061670  13.0129700
  39.9225210  57.8075540  13.9214930  40.7365370  58.5069280  12.8537220
  41.8225680  56.6853770  10.9804190  41.2922140  56.1944720  10.3527530
  42.4913750  57.1137970  10.4462120  50.7203740  61.1523230  10.7445380
  51.1344760  61.3068310  11.5935800  49.7854740  61.2778450  10.9071160
  51.1925910  58.4919390  12.7484530  51.7746680  57.7371710  12.6605010
  51.3687680  59.0226830  11.9716010  42.3097980  53.6516140  11.0601480
  42.2154850  53.0336890  10.3352350  41.7295370  54.3782430  10.8331390
  45.0759420  52.2089380   8.0928870  44.6276720  52.2313640   7.2474420
  44.4424620  51.8108400   8.6899170  45.4818970  61.1043710   8.7141310
  45.9007080  61.9476440   8.5417550  44.5627600  61.2415750   8.4848090
  47.8182870  58.8359890  10.0979150  47.9379080  58.2401030  10.8373990
  48.6776870  58.8729580   9.6780450  50.1570770  59.3897080   8.6741660
  49.6305990  59.9139700   8.0706800  50.5002110  60.0224470   9.3051390
  43.3326390  67.4096720   9.8299040  42.7947480  68.1342780   9.5107740
  43.5860350  66.9327060   9.0396380  44.5851640  55.3781240  11.3554970
  45.1751330  55.0697090  12.0432790  43.7671880  54.9060990  11.5114870
  49.4045070  54.9947050  11.5887990  48.7160590  54.3328590  11.5237980
  50.1251090  54.5485320  12.0336450  46.1888600  68.6447930  10.0885690
  46.1147300  69.5483070  10.3958060  45.2867440  68.3259830  10.0607760
  37.5915890  65.9722520   3.3919310  37.9218900  65.1043580   3.1597950
  38.0206890  66.1781040   4.2224270  38.0806100  66.8393110   6.1300940
  37.6437090  67.0193910   6.9625090  38.6483780  67.5967730   5.9882660
  53.7168280  66.3410110  10.4178250  53.1170270  66.4002670   9.6742170
  53.8462180  65.4015090  10.5475100  37.9130530  59.3513340   2.4889820
  37.2579370  59.0824980   1.8449520  38.7508480  59.2417820   2.0391800
  55.4186160  61.6825510   3.1024090  55.7894990  60.8992830   2.6960060
  56.0588090  62.3714610   2.9241390  52.4019920  63.0662090   8.5154410
  51.5879760  63.4959250   8.7780200  52.8094120  63.6780500   7.9023460
  38.9506460  59.7365910   7.0293160  39.3179500  59.6493310   7.9089180
  38.3817280  58.9732460   6.9300020  53.7510320  58.2050290  10.0423630
  53.5196410  57.9763040   9.1421580  54.0114870  59.1249840   9.9968520
  38.5022460  56.6475000  10.9351580  37.6078510  56.6141760  11.2745290
  39.0420010  56.8461790  11.7002830  52.1898390  53.4306720  12.8203330
  53.0668570  53.4390120  13.2037330  52.2019230  52.6937560  12.2095680
  53.6361660  57.2836260   3.7091350  54.1599140  56.7898910   3.0781520
  54.2221080  57.4186620   4.4538920  53.8151380  57.3676130   7.2310900
  52.8654090  57.3339670   7.3455890  53.9964390  58.2776240   6.9960670
  39.0062170  50.9223330   5.2834800  39.6538360  50.3720710   4.8429960
  39.4264010  51.1766480   6.1050610  54.5548790  55.1770560   2.1821440
  54.4448070  55.0226600   3.1203710  55.3156380  54.6491500   1.9396850
  52.9014510  51.1164690   8.6404440  53.5386730  51.7298830   9.0063630
  53.0489400  51.1525350   7.6953670  38.7594170  51.0779000   8.0260120
  38.4108990  51.5342820   8.7918300  38.4281870  50.1836130   8.1082550
  40.3658540  64.2498600  12.1913310  40.3228170  63.8791510  13.0727770
  40.4969550  65.1876170  12.3315130  44.0664570  65.8058190   7.7923030
  43.8255930  66.0732750   6.9053550  45.0067210  65.9763920   7.8473890
  46.2718990  52.2690880  11.5479540  46.2107880  52.8612710  12.2974950
  47.2119370  52.1616840  11.4029800  48.9093550  51.9260940  11.1871830
  49.5233960  52.2440230  10.5252910  49.4543110  51.4409530  11.8067690
  55.3268730  67.8252570   8.5933670  54.8327010  68.2221440   7.8760800
  54.7182020  67.2001780   8.9870950  39.4314810  50.6055200  11.3010890
  39.9797800  50.4243250  10.5377000  39.4970120  49.8149310  11.8367200
  40.2046570  67.1960850   9.3111090  39.6106890  67.0645550  10.0501130
  40.1970410  66.3598990   8.8453190  49.6501590  50.4893080   7.5141120
  48.7761430  50.8228190   7.3114050  49.5412340  50.0166260   8.3392990
  50.5573570  52.6963950   8.8982840  50.2286930  51.8815710   8.5184570
  51.5055870  52.6533760   8.7748530  53.0108180  68.4675990   5.8720410
  52.5511150  69.2191800   5.4978430  52.3820640  67.7482460   5.8135210
  39.8358800  64.5619230   8.2619130  39.1092860  63.9424520   8.1945080
  39.8967950  64.9559840   7.3917210  43.4403900  66.7764230   5.0468540
  43.9568920  66.1651590   4.5216800  44.0901280  67.2793010   5.5379550
  46.1799400  67.6672720   5.8737520  46.4677210  67.4127020   4.9970530
  46.6922620  67.1150080   6.4643090  47.3976410  51.4062920   6.4534030
  46.6148200  51.8808420   6.7330790  47.1039340  50.5017750   6.3447210
  51.9497480  52.1086020   4.4983120  52.3905570  52.0531120   3.6504720
  51.6805070  53.0244030   4.5693300  53.8136050  51.7401260   2.5091940
  53.7524450  50.7962480   2.3622960  54.5928080  51.8481350   3.0545400
  45.2830630  53.8249670   1.9650060  44.4705140  53.4506560   1.6245940
  45.7872270  53.0694750   2.2671250  49.7855610  50.4892120   3.2033130
  50.3884980  51.0612330   3.6781650  49.0448600  51.0531560   2.9807030
  46.2471760  68.5888820  13.2405720  47.1739070  68.3533090  13.2841680
  46.2322190  69.4160820  12.7591750  43.4335370  51.2533570  13.0047600
  43.1519640  51.7567170  12.2408420  43.8155070  50.4555320  12.6389730
  50.0350830  50.6687150  13.5828070  49.9216280  50.9881760  14.4779590
  50.8520570  51.0699660  13.2865350  52.8149320  67.8158680  13.0646760
  53.6074640  67.3207910  12.8572720  53.1082470  68.4948820  13.6722370
  48.9408980  39.9136130  59.0436770  48.8603030  38.9990740  58.7728480
  48.5273400  40.4103200  58.3376480  47.0727020  41.6915150  60.9246040
  46.2969120  41.2115590  61.2144610  47.7239950  41.0120800  60.7502200
  41.0892850  42.0034960  61.8021800  40.2577730  41.7483670  62.2018310
  41.6973830  42.0745730  62.5379720  51.0934450  46.0975340  59.7045170
  50.6315980  45.3262580  60.0332340  51.9060000  46.1241410  60.2097620
  41.0694110  46.0375050  61.9979820  41.3722150  45.1472790  61.8190040
  41.8137700  46.5945270  61.7702070  39.4984800  36.9636850  55.5864190
  38.6101500  37.3052820  55.4844070  39.7825990  36.7637170  54.6945020
  37.4617810  39.5642500  61.4703890  38.0333920  38.7964700  61.4707530
  37.4619350  39.8631260  60.5610500  47.3197760  48.3833350  59.3249160
  46.7009200  48.8390850  58.7543600  48.1749540  48.5384810  58.9238860
  46.5136010  44.3672340  60.9316200  46.4444290  43.4262280  60.7705330
  47.2755870  44.4573750  61.5038770  47.5441180  37.1742720  61.1585130
  47.9206000  36.3014600  61.0458800  47.4460690  37.5101420  60.2675570
  41.6746190  35.5468350  56.6202570  41.7812940  36.4472080  56.9271330
  40.7638550  35.4986320  56.3297220  51.3265300  34.6693160  58.0913470
  52.1474920  34.1789730  58.1338950  51.3599380  35.2590820  58.8445310
  39.3229350  37.4687360  61.8655160  40.0039460  37.7325730  62.4842560
  39.0077400  36.6288230  62.1993170  43.5153920  38.5154720  60.9527750
  44.0232140  39.0135690  61.5932770  44.0467160  37.7389920  60.7767110
  48.1861110  43.2672590  56.7181070  47.5678380  43.7322040  56.1543790
  48.6984360  43.9600070  57.1350580  51.5626780  36.6093540  60.8641010
  50.8582350  36.8978430  61.4444120  51.9238940  37.4193650  60.5040570
  41.4805350  34.8663240  63.2261620  41.8222160  35.7105290  62.9315490
  40.5421160  35.0146980  63.3426960  37.5544310  43.9529120  54.0920700
  37.1772290  44.4416220  53.3605600  37.8117380  44.6254400  54.7227230
  53.1789560  46.2268670  63.1268490  52.4953080  46.8967780  63.1185160
  53.7183850  46.4249320  62.3613350  54.6313700  36.0548330  61.2550220
  53.6838610  36.0887310  61.3865650  54.9563690  36.8687280  61.6399580
  45.1633240  32.3545510  59.5506210  45.4708220  31.7992400  58.8341710
  44.2333940  32.4889970  59.3679200  50.7148300  48.0712800  61.8413670
  50.7275460  47.6675090  60.9735930  50.1623520  48.8460090  61.7375100
  52.0093720  44.7929020  56.9303840  51.8990050  43.8503350  57.0553260
  52.0061970  45.1544660  57.8166600  47.5514000  40.4194340  56.2866330
  46.6243280  40.3531720  56.5154800  47.7038820  41.3574470  56.1721570
  47.5383080  36.6911340  53.2833490  46.5986750  36.8525300  53.3685950
  47.8566340  37.4097020  52.7369480  54.0595840  41.3729860  63.2612520
  53.2314470  41.4422950  62.7862650  54.6546320  41.9584170  62.7928350
  51.5811290  41.9814640  56.7901580  50.9623710  41.6434190  56.1427880
  51.5635740  41.3374400  57.4980770  43.1570640  40.9459080  59.0686060
  42.7527640  40.2336330  58.5731960  43.2433760  40.6012320  59.9574100
  43.6252340  44.6326640  61.2325270  43.3280630  44.0272110  60.5533050
  44.5752160  44.6703950  61.1214630  49.7575990  41.2201450  53.7974330
  50.1969270  40.3823880  53.6512150  50.4704410  41.8530850  53.8838470
  47.8671370  46.1597520  57.7655570  48.3067280  46.9021850  57.3510960
  47.8058260  46.4024090  58.6894530  53.3393130  32.4744260  52.1115370
  53.0265790  32.5671090  53.0114440  54.1005600  33.0525290  52.0612800
  39.8575270  39.8404060  56.5692710  39.7372870  40.5666150  55.9573980
  39.5476160  39.0706970  56.0920620  37.4960640  43.0119200  62.3761350
  37.5741060  43.1467970  61.4317070  38.1102320  42.3035090  62.5689470
  38.7408270  44.7119390  58.7867530  38.3336350  44.8533980  57.9321130
  39.6321280  44.4279550  58.5838740  50.5341550  49.1466640  55.1218580
  50.3742690  48.8569580  56.0200410  50.3688260  48.3706770  54.5863810
  43.0129930  48.9265170  56.8990200  42.8372410  48.0100710  56.6858000
  42.1585670  49.2852460  57.1388000  50.2367680  46.6554200  53.6816580
  49.5432840  46.6531490  53.0218860  50.9790540  46.2313520  53.2510750
  49.8017610  48.2816910  57.7565070  50.2574560  47.5006290  58.0703690
  50.1410130  48.9923730  58.3006250  42.3238930  33.1839130  59.9516380
  41.8807080  33.9648670  59.6200900  42.8823920  33.5069020  60.6587320
  45.4397750  32.8049830  54.8322210  44.8151930  32.8009700  55.5575520
  45.3527870  31.9380790  54.4358180  44.3614830  33.7286460  61.8105980
  44.6587160  34.6349290  61.7298000  44.9100390  33.2405240  61.1965550
  42.1153150  38.3072700  57.6797630  41.8894070  38.0909870  58.5844250
  41.3345680  38.7401160  57.3343600  49.3450910  38.3136070  56.2788280
  48.7459800  39.0371870  56.0951900  49.8930520  38.2512850  55.4964730
  47.9515780  36.9499610  58.3091560  48.3445350  37.2671810  57.4960250
  48.3132630  36.0711490  58.4236080  36.9879950  33.5400410  60.5321760
  36.6993000  34.1103270  61.2446740  37.7325710  33.0604860  60.8952990
  37.1750180  37.4820530  51.7424480  37.0924850  38.4251290  51.8839470
  36.8233240  37.3395440  50.8636830  48.5370920  39.5405360  62.4042340
  47.8052040  40.0492170  62.7532440  48.1395260  38.7235340  62.1031120
  44.9748310  36.2159560  60.8094830  44.9784370  35.7749510  59.9599370
  45.8699430  36.5376890  60.9166650  40.8250690  36.0986050  59.7689040
  40.4850740  36.5761280  60.5256090  40.0628010  35.6451170  59.4090140
  45.0368460  37.2171640  53.8001590  45.1581280  37.1758120  54.7487410
  44.6516970  38.0795790  53.6448320  48.9996830  34.9939040  61.8165280
  49.0169570  35.4447690  62.6607130  48.7512410  34.0944680  62.0298720
  44.0489960  39.5272780  53.1984890  43.4806860  39.0791030  52.5720800
  44.7578960  39.8865560  52.6650040  45.2756280  40.2761340  62.5560240
  45.6426410  39.8019910  63.3021580  45.0861340  41.1502910  62.8968580
  38.1396770  35.0205030  58.6853710  37.8543690  34.6560700  59.5232330
  38.0775630  34.2885490  58.0716850  41.5937440  43.5230970  55.4711300
  40.8199700  42.9828590  55.3110020  42.3232070  43.0037580  55.1329060
  52.3525420  42.5196330  61.2637690  53.0724540  43.0151620  60.8733800
  52.1507240  41.8414220  60.6191560  47.8135360  33.9134290  55.4067080
  46.9999970  33.4147460  55.3312390  47.6197310  34.7532540  54.9903430
  50.5283750  38.2853940  53.7029240  51.4163370  38.5971170  53.5280580
  50.4988840  37.4126190  53.3109820  41.6374840  43.1911350  59.1090110
  42.1553510  42.3879610  59.0547000  41.1858860  43.1290490  59.9506940
  46.5244340  44.4577630  54.3817410  46.8660040  45.2019860  53.8860730
  45.6957050  44.7708750  54.7442240  52.7998020  39.5965780  53.1709100
  52.7161740  40.0280000  52.3205540  53.5192210  40.0564130  53.6035920
  53.8285270  46.4508040  55.8991230  53.1861430  45.7963660  56.1734950
  53.4415930  46.8563130  55.1231900  49.4071750  43.7793470  59.7462920
  49.7595570  43.1821600  59.0864290  48.5234080  43.4537700  59.9171170
  45.4935030  44.5391160  57.1533330  46.1806160  45.0860370  57.5340920
  44.7067450  45.0831890  57.1882940  37.6327430  40.1563980  52.6450410
  38.5022280  40.4388780  52.9286330  37.1417750  40.9699850  52.5299220
  44.7962240  41.5437190  56.7658690  45.2525020  42.3542440  56.9918880
  44.4450450  41.2260330  57.5977180  40.6974020  31.8874840  57.2381210
  40.5688650  31.8792740  58.1866130  39.8736040  32.2257930  56.8872220
  48.3726930  45.0575880  62.7128440  49.0149160  44.3569040  62.8260610
  48.8976280  45.8374320  62.5325330  52.2182650  45.3424500  52.4367580
  51.9920230  44.6254940  53.0292220  51.8278850  45.0936940  51.5989330
  37.9998680  49.3691360  53.2112040  38.3596320  49.9680700  52.5569310
  37.8591020  49.9151250  53.9847070  51.7998900  43.2596440  54.0981740
  51.5120600  43.7209130  54.8859620  52.5951070  42.7994210  54.3665960
  44.0167300  46.7522560  54.0285710  44.0077400  47.4852250  53.4130220
  43.0965660  46.5054140  54.1212670  39.6173940  41.9737450  54.7732470
  39.0101890  42.7136350  54.7827770  40.0923290  42.0636810  53.9470670
  52.5568760  35.0945210  55.2576920  51.9281920  35.1990880  54.5435150
  52.0620680  35.3141990  56.0470800  47.0026900  46.8150800  52.6910900
  47.1038880  46.6114790  51.7612880  46.1028640  46.5609080  52.8958680
  44.5252790  37.3731160  56.6734800  43.8168940  37.8417500  57.1148410
  44.8097270  36.7153170  57.3079990  48.5568220  34.0981820  58.1130590
  48.4336000  34.1167950  57.1640100  49.5052780  34.1460760  58.2328990
  45.6445010  49.3337120  57.3858570  45.8986510  49.2958510  56.4637940
  44.6957490  49.2070450  57.3786820  42.7287810  35.6816240  54.0485510
  43.5778340  36.1186390  53.9825700  42.3619080  35.9936500  54.8757570
  51.6497590  40.2529000  58.9617080  50.7087730  40.2679230  59.1364770
  51.9641660  39.4664960  59.4077380  41.6279230  41.9348600  52.5221040
  42.3942500  41.8229960  53.0846470  41.7053920  41.2386570  51.8697810
  40.3225990  39.3673670  53.2053930  40.4029580  38.4201180  53.3171330
  41.2145740  39.6980550  53.3114590  53.6523170  47.4237850  60.6371340
  53.7770590  48.2469020  61.1095150  54.5188730  47.2128580  60.2895490
  41.1240700  49.5169060  60.3088470  41.8603180  48.9684520  60.5797040
  41.5081620  50.3825070  60.1694460  38.0086180  45.5842630  56.1829980
  37.0825960  45.8263770  56.1735390  38.4742610  46.4116890  56.0614730
  44.2343010  48.6899370  52.1314040  45.0271620  48.9788200  51.6795830
  43.7147360  48.2591540  51.4526520  53.2873180  47.9169500  53.5550780
  53.0014690  47.5034640  52.7404960  53.0892730  48.8457210  53.4351300
  44.7520410  43.9102780  51.9956390  44.6471050  43.2955130  52.7217770
  44.5844630  43.3868670  51.2119400  47.9923140  42.9722810  52.5998380
  47.4433240  43.4192110  53.2441120  48.6142400  42.4672060  53.1236050
  43.6598260  41.9313730  54.4963680  44.0814680  41.7653600  55.3395070
  43.7849100  41.1213960  54.0018820  46.1725900  40.9551340  51.7440780
  46.6931560  40.2400360  51.3781930  46.8194300  41.5937210  52.0441290
  42.5557160  38.0046960  51.4421840  42.3546220  37.1414320  51.8035180
  42.3849210  37.9180320  50.5043440  50.0345470  32.8155190  53.9708720
  50.3147760  31.9723090  54.3268140  49.2611200  33.0478300  54.4847470
  41.3539960  35.1047580  51.4299720  41.6565860  35.1115010  50.5218870
  42.0934550  34.7545440  51.9267380  44.5724890  34.0482200  52.4155920
  44.2246890  33.3706190  51.8358370  44.7737660  33.5871710  53.2299310
  46.7373930  49.0362950  54.0342520  47.6324720  49.3747920  54.0561280
  46.7691560  48.3142360  53.4066800  40.3770090  44.4090000  52.2629520
  40.8144960  44.9519670  52.9187100  40.8617820  43.5836950  52.2725860
  37.5915890  47.1979030  59.7149780  37.9218900  46.3300090  59.4828420
  38.0206890  47.4037550  60.5454740  42.1877810  45.5288040  57.3751750
  41.8873350  45.4053010  58.2755660  42.0815300  44.6696630  56.9667480
  38.0806100  48.0649620  62.4531410  37.6437090  48.2450420  63.2855560
  38.6483780  48.8224240  62.3113130  54.9569730  45.3084440  52.0778430
  54.1262690  45.3761090  52.5485660  55.1341560  46.1988560  51.7745290
  54.4126190  42.0531920  54.5812630  55.1745100  42.6228570  54.6872320
  54.4280560  41.4859120  55.3520940  37.9130530  40.5769850  58.8120290
  37.2579370  40.3081490  58.1679990  38.7508480  40.4674330  58.3622270
  55.4186160  42.9082020  59.4254560  55.7894990  42.1249340  59.0190530
  56.0588090  43.5971120  59.2471860  54.4645360  42.3466290  51.7385150
  54.7394200  43.2545170  51.6104370  54.2756100  42.2828820  52.6747140
  50.8620970  35.3711140  53.0338780  51.2805850  35.1842120  52.1935440
  50.5557030  34.5190190  53.3441710  54.3610700  40.2835280  56.7314580
  53.9854300  39.5163210  56.2995870  53.6313820  40.6657980  57.2189510
  37.1268610  37.7868780  54.7545620  36.2232690  38.0498980  54.5797280
  37.6109230  38.0579950  53.9745580  53.6361660  38.5092770  60.0321820
  54.1599140  38.0155420  59.4011990  54.2221080  38.6443130  60.7769390
  39.6695820  36.8434320  52.6640000  40.3787520  36.4217540  52.1787280
  38.9535760  36.9109550  52.0323350  39.3169980  32.8973650  51.7042650
  40.0398110  33.4382590  52.0223870  39.5894500  32.6237070  50.8284190
  53.1261630  37.7666120  55.9714230  53.6220750  37.5336990  56.7563110
  52.9277700  36.9277960  55.5551870  39.0062170  32.1479840  61.6065270
  39.6538360  31.5977220  61.1660430  39.4264010  32.4022990  62.4281080
  54.5548790  36.4027070  58.5051910  54.4448070  36.2483110  59.4434180
  55.3156380  35.8748010  58.2627320  55.4439060  34.2334990  51.7458050
  56.3688370  34.1016170  51.5376340  55.4214850  34.3127810  52.6994500
  55.5177550  35.0045650  54.3714760  54.7229050  34.9390770  54.9007670
  55.7220830  35.9396290  54.3600110  52.4595970  49.0437200  58.3653150
  53.0555040  48.7221770  57.6887570  52.7174120  48.5709020  59.1566420
  53.0108180  49.6932500  62.1950880  52.5511150  50.4448310  61.8208900
  52.3820640  48.9738970  62.1365680  43.4403900  48.0020740  61.3699010
  43.9568920  47.3908100  60.8447270  44.0901280  48.5049520  61.8610020
  46.1799400  48.8929230  62.1967990  46.4677210  48.6383530  61.3201000
  46.6922620  48.3406590  62.7873560  47.3976410  32.6319430  62.7764500
  46.6148200  33.1064930  63.0561260  47.1039340  31.7274260  62.6677680
  51.9497480  33.3342530  60.8213590  52.3905570  33.2787630  59.9735190
  51.6805070  34.2500540  60.8923770  53.8136050  32.9657770  58.8322410
  53.7524450  32.0218990  58.6853430  54.5928080  33.0737860  59.3775870
  38.1188800  49.1050130  57.7946360  37.9510840  48.4720810  58.4928250
  37.2523310  49.3109530  57.4440550  38.7416820  32.9366910  55.2978220
  39.4996180  33.0495790  54.7242250  38.2793990  33.7736110  55.2521650
  45.2830630  35.0506180  58.2880530  44.4705140  34.6763070  57.9476410
  45.7872270  34.2951260  58.5901720  49.7855610  31.7148630  59.5263600
  50.3884980  32.2868840  60.0012120  49.0448600  32.2788070  59.3037500
  52.9290210  32.1170190  54.8003880  53.1240840  33.0153640  55.0671310
  52.1420080  31.8857270  55.2936830  39.7251500  47.7983360  55.2396500
  39.1999120  48.1791390  54.5358460  39.6496080  48.4234130  55.9606210
  41.1141970  33.4630960  53.8380190  41.6434730  32.6760760  53.7088140
  41.7470290  34.1422150  54.0715720  43.3079810  33.2006100  56.8925580
  42.6782550  32.4993410  57.0595710  42.7684950  33.9610230  56.6758740
  54.4816820  49.3570900  56.5610440  54.6569010  48.6708640  55.9171360
  53.7838390  49.8817950  56.1687110  42.3244470  49.7465740  54.1145750
  43.0563290  49.4625020  53.5669640  42.5838140  49.5079020  55.0045130
  41.4859260  45.8630470  54.1192080  40.8568140  46.3315570  54.6677910
  41.6007090  45.0179690  54.5538270  47.0727020  41.6915150  42.1502550
  46.2969120  41.2115590  42.4401120  47.7239950  41.0120800  41.9758710
  41.0892850  42.0034960  43.0278310  40.2577730  41.7483670  43.4274820
  41.6973830  42.0745730  43.7636230  51.0934450  46.0975340  40.9301680
  50.6315980  45.3262580  41.2588850  51.9060000  46.1241410  41.4354130
  41.0694110  46.0375050  43.2236330  41.3722150  45.1472790  43.0446550
  41.8137700  46.5945270  42.9958580  37.4617810  39.5642500  42.6960400
  38.0333920  38.7964700  42.6964040  37.4619350  39.8631260  41.7867010
  47.3197760  48.3833350  40.5505670  46.7009200  48.8390850  39.9800110
  48.1749540  48.5384810  40.1495370  46.5136010  44.3672340  42.1572710
  46.4444290  43.4262280  41.9961840  47.2755870  44.4573750  42.7295280
  38.7042680  34.9726860  44.4829330  38.5245520  34.0752610  44.7632090
  38.3022760  35.5198730  45.1576280  47.5441180  37.1742720  42.3841640
  47.9206000  36.3014600  42.2715310  47.4460690  37.5101420  41.4932080
  39.3229350  37.4687360  43.0911670  40.0039460  37.7325730  43.7099070
  39.0077400  36.6288230  43.4249680  43.5153920  38.5154720  42.1784260
  44.0232140  39.0135690  42.8189280  44.0467160  37.7389920  42.0023620
  55.6164850  36.6859910  45.8813610  54.9117020  37.0741620  45.3628720
  55.8822770  37.3810200  46.4834540  41.7990020  33.1553280  46.4447680
  41.8008460  33.6725670  45.6393580  40.9694330  32.6783460  46.4217610
  43.0492870  42.7948460  44.6221180  42.7162250  43.4217380  45.2642250
  43.2259550  43.3210340  43.8422850  51.5626780  36.6093540  42.0897520
  50.8582350  36.8978430  42.6700630  51.9238940  37.4193650  41.7297080
  41.4805350  34.8663240  44.4518130  41.8222160  35.7105290  44.1572000
  40.5421160  35.0146980  44.5683470  42.2611970  44.7629260  46.4370360
  42.8785970  45.4380340  46.1554810  41.4005090  45.1717240  46.3457860
  53.1789560  46.2268670  44.3525000  52.4953080  46.8967780  44.3441670
  53.7183850  46.4249320  43.5869860  54.6313700  36.0548330  42.4806730
  53.6838610  36.0887310  42.6122160  54.9563690  36.8687280  42.8656090
  50.7148300  48.0712800  43.0670180  50.7275460  47.6675090  42.1992440
  50.1623520  48.8460090  42.9631610  50.1133740  42.9742640  44.3952790
  50.5302530  42.7602750  43.5606250  50.8373560  43.2315430  44.9661410
  54.0595840  41.3729860  44.4869030  53.2314470  41.4422950  44.0119160
  54.6546320  41.9584170  44.0184860  51.5811290  41.9814640  38.0158090
  50.9623710  41.6434190  37.3684390  51.5635740  41.3374400  38.7237280
  51.0237850  38.1599180  45.4323900  50.6109030  38.9852890  45.6863890
  50.2913800  37.5744220  45.2400260  43.6252340  44.6326640  42.4581780
  43.3280630  44.0272110  41.7789560  44.5752160  44.6703950  42.3471140
  41.8699260  37.7202290  44.0741610  42.4213850  37.8297630  43.2994860
  42.3842770  38.0939890  44.7896840  51.7137950  48.2058510  46.1204880
  51.2368510  49.0130700  45.9277490  51.0299740  47.5536840  46.2731090
  42.7170770  44.3708330  49.1089580  41.8199300  44.5948300  49.3562980
  42.7423640  44.4943270  48.1600980  41.5441990  41.2421650  47.6846950
  41.4049760  42.1144450  48.0534350  40.6623350  40.8994460  47.5394890
  43.3422340  47.1843350  49.8932100  43.3137770  47.5886300  49.0260530
  43.1787310  46.2553710  49.7303700  55.2937160  47.9670450  51.1896270
  55.7696880  48.4453340  51.8685350  55.9144320  47.8987940  50.4641770
  37.4960640  43.0119200  43.6017860  37.5741060  43.1467970  42.6573580
  38.1102320  42.3035090  43.7945980  38.7408270  44.7119390  40.0124040
  38.3336350  44.8533980  39.1577640  39.6321280  44.4279550  39.8095250
  54.6970410  45.1583300  48.3496280  54.8233470  44.9195180  47.4313460
  54.7391790  44.3267840  48.8218360  48.5587150  48.8611300  46.9191090
  49.0731820  48.7719310  47.7213520  47.7156230  49.2071000  47.2119000
  54.5494420  37.2115760  49.3146020  53.9338690  37.7195430  48.7861480
  54.2290840  36.3114090  49.2571960  37.5520160  44.0533370  46.1412320
  37.7151200  43.5838730  45.3231690  38.0172610  43.5456930  46.8061160
  42.3238930  33.1839130  41.1772890  41.8807080  33.9648670  40.8457410
  42.8823920  33.5069020  41.8843830  46.6108740  36.0507650  46.7808210
  46.1488110  36.2590670  47.5928150  46.2086850  35.2367000  46.4778880
  51.6113250  37.2716600  47.9104870  50.7606840  36.9722350  48.2313940
  51.4515040  37.5158610  46.9988690  48.7062960  38.7718350  50.0103660
  49.0316370  37.9382100  49.6705890  49.4943290  39.2946870  50.1581990
  44.3614830  33.7286460  43.0362490  44.6587160  34.6349290  42.9554510
  44.9100390  33.2405240  42.4222060  42.1153150  38.3072700  38.9054140
  41.8894070  38.0909870  39.8100760  41.3345680  38.7401160  38.5600110
  44.5552360  39.2058280  49.5714410  44.4595960  38.2653010  49.4214810
  45.3984340  39.4273350  49.1762480  39.6862900  35.6171950  47.7248190
  39.2926290  36.4647160  47.9320970  38.9981300  34.9798320  47.9156830
  46.2607950  35.7006920  50.7944930  45.5706270  35.5079120  51.4291020
  47.0040250  35.9841560  51.3269230  36.9879950  33.5400410  41.7578270
  36.6993000  34.1103270  42.4703250  37.7325710  33.0604860  42.1209500
  48.5370920  39.5405360  43.6298850  47.8052040  40.0492170  43.9788950
  48.1395260  38.7235340  43.3287630  44.9748310  36.2159560  42.0351340
  44.9784370  35.7749510  41.1855880  45.8699430  36.5376890  42.1423160
  40.8250690  36.0986050  40.9945550  40.4850740  36.5761280  41.7512600
  40.0628010  35.6451170  40.6346650  48.9996830  34.9939040  43.0421790
  49.0169570  35.4447690  43.8863640  48.7512410  34.0944680  43.2555230
  52.4267580  32.4071220  48.8808170  52.7513350  31.6760880  49.4066150
  52.4624090  32.0884860  47.9789160  39.1259140  43.4284800  48.3008130
  38.7413930  42.7878470  48.8991090  39.4371330  44.1320920  48.8702860
  45.2756280  40.2761340  43.7816750  45.6426410  39.8019910  44.5278090
  45.0861340  41.1502910  44.1225090  43.0655650  39.3169980  46.1000960
  42.7612720  40.1961960  46.3251320  44.0202110  39.3769770  46.1358400
  52.3525420  42.5196330  42.4894200  53.0724540  43.0151620  42.0990310
  52.1507240  41.8414220  41.8448070  47.7344220  42.5905390  48.3763200
  47.6681530  41.6701060  48.1220790  47.1049360  42.6880830  49.0907840
  39.1219380  40.1572720  47.2472320  38.7634320  40.8226570  47.8345660
  38.8273940  39.3256270  47.6184940  42.3232500  40.6156960  50.1311870
  42.0232640  40.7614140  49.2339690  43.0943740  40.0562250  50.0385260
  47.6660950  45.4125960  48.1267000  47.6805490  44.4806920  47.9085910
  46.9586050  45.4985720  48.7656770  52.7998020  39.5965780  34.3965610
  52.7161740  40.0280000  33.5462050  53.5192210  40.0564130  34.8292430
  53.8772160  42.0533300  47.4735580  53.1520350  42.6462080  47.2764970
  54.4047620  42.0456840  46.6748950  53.8285270  46.4508040  37.1247740
  53.1861430  45.7963660  37.3991460  53.4415930  46.8563130  36.3488410
  49.4071750  43.7793470  40.9719430  49.7595570  43.1821600  40.3120800
  48.5234080  43.4537700  41.1427680  47.0994850  47.0543530  45.2207500
  47.7437070  47.2602910  45.8980920  47.4624290  46.2931930  44.7678350
  48.3726930  45.0575880  43.9384950  49.0149160  44.3569040  44.0517120
  48.8976280  45.8374320  43.7581840  50.1464550  45.8570780  47.1421010
  50.4820790  46.4437470  47.8198930  49.2264890  45.7263490  47.3718800
  37.6967950  33.6465960  47.9244420  36.9826470  33.8462880  48.5297030
  38.1162990  32.8705530  48.2959220  51.7998900  43.2596440  35.3238250
  51.5120600  43.7209130  36.1116130  52.5951070  42.7994210  35.5922470
  37.9840540  47.6346220  48.9110950  38.0931660  46.6940960  48.7706340
  37.3321100  47.9000970  48.2624680  45.9753130  45.9062110  50.3109070
  45.6550000  45.1871350  50.8554760  45.3011490  46.5817180  50.3845130
  49.1906730  36.1388270  45.6745870  49.5587550  35.3183480  46.0025440
  48.3304930  36.1990160  46.0901520  46.1508720  38.7927860  45.8983840
  46.6493970  39.2673680  46.5635690  46.2931670  37.8691380  46.1053870
  53.3575580  35.0095820  46.7412230  52.8549180  35.7501220  47.0806040
  54.1732240  35.3979820  46.4249020  51.6497590  40.2529000  40.1873590
  50.7087730  40.2679230  40.3621280  51.9641660  39.4664960  40.6333890
  53.6523170  47.4237850  41.8627850  53.7770590  48.2469020  42.3351660
  54.5188730  47.2128580  41.5152000  41.1240700  49.5169060  41.5344980
  41.8603180  48.9684520  41.8053550  41.5081620  50.3825070  41.3950970
  40.1298980  48.7015130  50.7230560  40.9311710  49.0227180  51.1365960
  39.6150800  48.3410710  51.4450470  48.9663610  44.8095000  50.6705970
  48.3601770  44.8326600  49.9301720  48.6617720  44.0778040  51.2073220
  50.3963980  48.5375290  49.2815380  51.3485730  48.4533310  49.2315620
  50.2492200  49.2017000  49.9549170  53.2873180  47.9169500  34.7807290
  53.0014690  47.5034640  33.9661470  53.0892730  48.8457210  34.6607810
  37.8496790  41.1888590  49.6666610  38.3535810  40.6095870  50.2382840
  37.1104210  41.4728820  50.2042980  44.9034730  42.5959580  49.2002130
  44.1380400  43.1644580  49.1156800  45.0850690  42.3035790  48.3070360
  52.0458080  44.3264910  49.7577150  52.7867550  44.6640670  49.2544610
  51.2830760  44.4956970  49.2046920  39.8819870  39.3318180  50.5616680
  39.9225210  39.0332050  51.4701910  40.7365370  39.7325790  50.4024200
  41.8225680  37.9110280  48.5291170  41.2922140  37.4201230  47.9014510
  42.4913750  38.3394480  47.9949100  50.7203740  42.3779740  48.2932360
  51.1344760  42.5324820  49.1422780  49.7854740  42.5034960  48.4558140
  51.1925910  39.7175900  50.2971510  51.7746680  38.9628220  50.2091990
  51.3687680  40.2483340  49.5202990  42.3097980  34.8772650  48.6088460
  42.2154850  34.2593400  47.8839330  41.7295370  35.6038940  48.3818370
  45.0759420  33.4345890  45.6415850  44.6276720  33.4570150  44.7961400
  44.4424620  33.0364910  46.2386150  45.4818970  42.3300220  46.2628290
  45.9007080  43.1732950  46.0904530  44.5627600  42.4672260  46.0335070
  47.8182870  40.0616400  47.6466130  47.9379080  39.4657540  48.3860970
  48.6776870  40.0986090  47.2267430  50.1570770  40.6153590  46.2228640
  49.6305990  41.1396210  45.6193780  50.5002110  41.2480980  46.8538370
  43.3326390  48.6353230  47.3786020  42.7947480  49.3599290  47.0594720
  43.5860350  48.1583570  46.5883360  44.5851640  36.6037750  48.9041950
  45.1751330  36.2953600  49.5919770  43.7671880  36.1317500  49.0601850
  49.4045070  36.2203560  49.1374970  48.7160590  35.5585100  49.0724960
  50.1251090  35.7741830  49.5823430  46.1888600  49.8704440  47.6372670
  46.1147300  50.7739580  47.9445040  45.2867440  49.5516340  47.6094740
  37.5915890  47.1979030  40.9406290  37.9218900  46.3300090  40.7084930
  38.0206890  47.4037550  41.7711250  38.0806100  48.0649620  43.6787920
  37.6437090  48.2450420  44.5112070  38.6483780  48.8224240  43.5369640
  53.7168280  47.5666620  47.9665230  53.1170270  47.6259180  47.2229150
  53.8462180  46.6271600  48.0962080  54.9569730  45.3084440  33.3034940
  54.1262690  45.3761090  33.7742170  55.1341560  46.1988560  33.0001800
  54.4126190  42.0531920  35.8069140  55.1745100  42.6228570  35.9128830
  54.4280560  41.4859120  36.5777450  37.9130530  40.5769850  40.0376800
  37.2579370  40.3081490  39.3936500  38.7508480  40.4674330  39.5878780
  55.4186160  42.9082020  40.6511070  55.7894990  42.1249340  40.2447040
  56.0588090  43.5971120  40.4728370  52.4019920  44.2918600  46.0641390
  51.5879760  44.7215760  46.3267180  52.8094120  44.9037010  45.4510440
  54.4645360  42.3466290  32.9641660  54.7394200  43.2545170  32.8360880
  54.2756100  42.2828820  33.9003650  54.3610700  40.2835280  37.9571090
  53.9854300  39.5163210  37.5252380  53.6313820  40.6657980  38.4446020
  38.9506460  40.9622420  44.5780140  39.3179500  40.8749820  45.4576160
  38.3817280  40.1988970  44.4787000  53.7510320  39.4306800  47.5910610
  53.5196410  39.2019550  46.6908560  54.0114870  40.3506350  47.5455500
  38.5022460  37.8731510  48.4838560  37.6078510  37.8398270  48.8232270
  39.0420010  38.0718300  49.2489810  52.1898390  34.6563230  50.3690310
  53.0668570  34.6646630  50.7524310  52.2019230  33.9194070  49.7582660
  53.6361660  38.5092770  41.2578330  54.1599140  38.0155420  40.6268500
  54.2221080  38.6443130  42.0025900  53.8151380  38.5932640  44.7797880
  52.8654090  38.5596180  44.8942870  53.9964390  39.5032750  44.5447650
  53.1261630  37.7666120  37.1970740  53.6220750  37.5336990  37.9819620
  52.9277700  36.9277960  36.7808380  39.0062170  32.1479840  42.8321780
  39.6538360  31.5977220  42.3916940  39.4264010  32.4022990  43.6537590
  54.5548790  36.4027070  39.7308420  54.4448070  36.2483110  40.6690690
  55.3156380  35.8748010  39.4883830  52.9014510  32.3421200  46.1891420
  53.5386730  32.9555340  46.5550610  53.0489400  32.3781860  45.2440650
  55.4439060  34.2334990  32.9714560  56.3688370  34.1016170  32.7632850
  55.4214850  34.3127810  33.9251010  55.5177550  35.0045650  35.5971270
  54.7229050  34.9390770  36.1264180  55.7220830  35.9396290  35.5856620
  38.7594170  32.3035510  45.5747100  38.4108990  32.7599330  46.3405280
  38.4281870  31.4092640  45.6569530  40.3658540  45.4755110  49.7400290
  40.3228170  45.1048020  50.6214750  40.4969550  46.4132680  49.8802110
  44.0664570  47.0314700  45.3410010  43.8255930  47.2989260  44.4540530
  45.0067210  47.2020430  45.3960870  46.2718990  33.4947390  49.0966520
  46.2107880  34.0869220  49.8461930  47.2119370  33.3873350  48.9516780
  48.9093550  33.1517450  48.7358810  49.5233960  33.4696740  48.0739890
  49.4543110  32.6666040  49.3554670  55.3268730  49.0509080  46.1420650
  54.8327010  49.4477950  45.4247780  54.7182020  48.4258290  46.5357930
  39.4314810  31.8311710  48.8497870  39.9797800  31.6499760  48.0863980
  39.4970120  31.0405820  49.3854180  40.2046570  48.4217360  46.8598070
  39.6106890  48.2902060  47.5988110  40.1970410  47.5855500  46.3940170
  49.6501590  31.7149590  45.0628100  48.7761430  32.0484700  44.8601030
  49.5412340  31.2422770  45.8879970  50.5573570  33.9220460  46.4469820
  50.2286930  33.1072220  46.0671550  51.5055870  33.8790270  46.3235510
  53.0108180  49.6932500  43.4207390  52.5511150  50.4448310  43.0465410
  52.3820640  48.9738970  43.3622190  39.8358800  45.7875740  45.8106110
  39.1092860  45.1681030  45.7432060  39.8967950  46.1816350  44.9404190
  43.4403900  48.0020740  42.5955520  43.9568920  47.3908100  42.0703780
  44.0901280  48.5049520  43.0866530  46.1799400  48.8929230  43.4224500
  46.4677210  48.6383530  42.5457510  46.6922620  48.3406590  44.0130070
  47.3976410  32.6319430  44.0021010  46.6148200  33.1064930  44.2817770
  47.1039340  31.7274260  43.8934190  51.9497480  33.3342530  42.0470100
  52.3905570  33.2787630  41.1991700  51.6805070  34.2500540  42.1180280
  53.8136050  32.9657770  40.0578920  53.7524450  32.0218990  39.9109940
  54.5928080  33.0737860  40.6032380  49.7855610  31.7148630  40.7520110
  50.3884980  32.2868840  41.2268630  49.0448600  32.2788070  40.5294010
  46.2471760  49.8145330  50.7892700  47.1739070  49.5789600  50.8328660
  46.2322190  50.6417330  50.3078730  54.4816820  49.3570900  37.7866950
  54.6569010  48.6708640  37.1427870  53.7838390  49.8817950  37.3943620
  43.4335370  32.4790080  50.5534580  43.1519640  32.9823680  49.7895400
  43.8155070  31.6811830  50.1876710  50.0350830  31.8943660  51.1315050
  49.9216280  32.2138270  52.0266570  50.8520570  32.2956170  50.8352330
  52.8149320  49.0415190  50.6133740  53.6074640  48.5464420  50.4059700
  53.1082470  49.7205330  51.2209350  48.9408980  39.9136130  21.4949790
  48.8603030  38.9990740  21.2241500  48.5273400  40.4103200  20.7889500
  47.0727020  41.6915150  23.3759060  46.2969120  41.2115590  23.6657630
  47.7239950  41.0120800  23.2015220  51.0934450  46.0975340  22.1558190
  50.6315980  45.3262580  22.4845360  51.9060000  46.1241410  22.6610640
  39.4984800  36.9636850  18.0377210  38.6101500  37.3052820  17.9357090
  39.7825990  36.7637170  17.1458040  47.3197760  48.3833350  21.7762180
  46.7009200  48.8390850  21.2056620  48.1749540  48.5384810  21.3751880
  41.6746190  35.5468350  19.0715590  41.7812940  36.4472080  19.3784350
  40.7638550  35.4986320  18.7810240  51.3265300  34.6693160  20.5426490
  52.1474920  34.1789730  20.5851970  51.3599380  35.2590820  21.2958330
  55.6164850  36.6859910  27.1070120  54.9117020  37.0741620  26.5885230
  55.8822770  37.3810200  27.7091050  48.1861110  43.2672590  19.1694090
  47.5678380  43.7322040  18.6056810  48.6984360  43.9600070  19.5863600
  51.5626780  36.6093540  23.3154030  50.8582350  36.8978430  23.8957140
  51.9238940  37.4193650  22.9553590  37.5544310  43.9529120  16.5433720
  37.1772290  44.4416220  15.8118620  37.8117380  44.6254400  17.1740250
  53.1789560  46.2268670  25.5781510  52.4953080  46.8967780  25.5698180
  53.7183850  46.4249320  24.8126370  54.6313700  36.0548330  23.7063240
  53.6838610  36.0887310  23.8378670  54.9563690  36.8687280  24.0912600
  45.1633240  32.3545510  22.0019230  45.4708220  31.7992400  21.2854730
  44.2333940  32.4889970  21.8192220  50.7148300  48.0712800  24.2926690
  50.7275460  47.6675090  23.4248950  50.1623520  48.8460090  24.1888120
  52.0093720  44.7929020  19.3816860  51.8990050  43.8503350  19.5066280
  52.0061970  45.1544660  20.2679620  50.1133740  42.9742640  25.6209300
  50.5302530  42.7602750  24.7862760  50.8373560  43.2315430  26.1917920
  47.5514000  40.4194340  18.7379350  46.6243280  40.3531720  18.9667820
  47.7038820  41.3574470  18.6234590  47.5383080  36.6911340  15.7346510
  46.5986750  36.8525300  15.8198970  47.8566340  37.4097020  15.1882500
  54.0595840  41.3729860  25.7125540  53.2314470  41.4422950  25.2375670
  54.6546320  41.9584170  25.2441370  51.5811290  41.9814640  19.2414600
  50.9623710  41.6434190  18.5940900  51.5635740  41.3374400  19.9493790
  51.0237850  38.1599180  26.6580410  50.6109030  38.9852890  26.9120400
  50.2913800  37.5744220  26.4656770  43.1570640  40.9459080  21.5199080
  42.7527640  40.2336330  21.0244980  43.2433760  40.6012320  22.4087120
  49.7575990  41.2201450  16.2487350  50.1969270  40.3823880  16.1025170
  50.4704410  41.8530850  16.3351490  47.8671370  46.1597520  20.2168590
  48.3067280  46.9021850  19.8023980  47.8058260  46.4024090  21.1407550
  53.3393130  32.4744260  14.5628390  53.0265790  32.5671090  15.4627460
  54.1005600  33.0525290  14.5125820  39.8575270  39.8404060  19.0205730
  39.7372870  40.5666150  18.4087000  39.5476160  39.0706970  18.5433640
  55.2937160  47.9670450  32.4152780  55.7696880  48.4453340  33.0941860
  55.9144320  47.8987940  31.6898280  38.7408270  44.7119390  21.2380550
  38.3336350  44.8533980  20.3834150  39.6321280  44.4279550  21.0351760
  54.6970410  45.1583300  29.5752790  54.8233470  44.9195180  28.6569970
  54.7391790  44.3267840  30.0474870  50.5341550  49.1466640  17.5731600
  50.3742690  48.8569580  18.4713430  50.3688260  48.3706770  17.0376830
  43.0129930  48.9265170  19.3503220  42.8372410  48.0100710  19.1371020
  42.1585670  49.2852460  19.5901020  50.2367680  46.6554200  16.1329600
  49.5432840  46.6531490  15.4731880  50.9790540  46.2313520  15.7023770
  49.8017610  48.2816910  20.2078090  50.2574560  47.5006290  20.5216710
  50.1410130  48.9923730  20.7519270  54.5494420  37.2115760  30.5402530
  53.9338690  37.7195430  30.0117990  54.2290840  36.3114090  30.4828470
  42.3238930  33.1839130  22.4029400  41.8807080  33.9648670  22.0713920
  42.8823920  33.5069020  23.1100340  51.6113250  37.2716600  29.1361380
  50.7606840  36.9722350  29.4570450  51.4515040  37.5158610  28.2245200
  45.4397750  32.8049830  17.2835230  44.8151930  32.8009700  18.0088540
  45.3527870  31.9380790  16.8871200  42.1153150  38.3072700  20.1310650
  41.8894070  38.0909870  21.0357270  41.3345680  38.7401160  19.7856620
  49.3450910  38.3136070  18.7301300  48.7459800  39.0371870  18.5464920
  49.8930520  38.2512850  17.9477750  47.9515780  36.9499610  20.7604580
  48.3445350  37.2671810  19.9473270  48.3132630  36.0711490  20.8749100
  37.1750180  37.4820530  14.1937500  37.0924850  38.4251290  14.3352490
  36.8233240  37.3395440  13.3149850  45.0368460  37.2171640  16.2514610
  45.1581280  37.1758120  17.2000430  44.6516970  38.0795790  16.0961340
  48.9996830  34.9939040  24.2678300  49.0169570  35.4447690  25.1120150
  48.7512410  34.0944680  24.4811740  44.0489960  39.5272780  15.6497910
  43.4806860  39.0791030  15.0233820  44.7578960  39.8865560  15.1163060
  38.1396770  35.0205030  21.1366730  37.8543690  34.6560700  21.9745350
  38.0775630  34.2885490  20.5229870  41.5937440  43.5230970  17.9224320
  40.8199700  42.9828590  17.7623040  42.3232070  43.0037580  17.5842080
  52.3525420  42.5196330  23.7150710  53.0724540  43.0151620  23.3246820
  52.1507240  41.8414220  23.0704580  47.8135360  33.9134290  17.8580100
  46.9999970  33.4147460  17.7825410  47.6197310  34.7532540  17.4416450
  50.5283750  38.2853940  16.1542260  51.4163370  38.5971170  15.9793600
  50.4988840  37.4126190  15.7622840  41.6374840  43.1911350  21.5603130
  42.1553510  42.3879610  21.5060020  41.1858860  43.1290490  22.4019960
  46.5244340  44.4577630  16.8330430  46.8660040  45.2019860  16.3373750
  45.6957050  44.7708750  17.1955260  52.7998020  39.5965780  15.6222120
  52.7161740  40.0280000  14.7718560  53.5192210  40.0564130  16.0548940
  53.8772160  42.0533300  28.6992090  53.1520350  42.6462080  28.5021480
  54.4047620  42.0456840  27.9005460  53.8285270  46.4508040  18.3504250
  53.1861430  45.7963660  18.6247970  53.4415930  46.8563130  17.5744920
  49.4071750  43.7793470  22.1975940  49.7595570  43.1821600  21.5377310
  48.5234080  43.4537700  22.3684190  45.4935030  44.5391160  19.6046350
  46.1806160  45.0860370  19.9853940  44.7067450  45.0831890  19.6395960
  37.6327430  40.1563980  15.0963430  38.5022280  40.4388780  15.3799350
  37.1417750  40.9699850  14.9812240  44.7962240  41.5437190  19.2171710
  45.2525020  42.3542440  19.4431900  44.4450450  41.2260330  20.0490200
  40.6974020  31.8874840  19.6894230  40.5688650  31.8792740  20.6379150
  39.8736040  32.2257930  19.3385240  52.2182650  45.3424500  14.8880600
  51.9920230  44.6254940  15.4805240  51.8278850  45.0936940  14.0502350
  37.9998680  49.3691360  15.6625060  38.3596320  49.9680700  15.0082330
  37.8591020  49.9151250  16.4360090  51.7998900  43.2596440  16.5494760
  51.5120600  43.7209130  17.3372640  52.5951070  42.7994210  16.8178980
  44.0167300  46.7522560  16.4798730  44.0077400  47.4852250  15.8643240
  43.0965660  46.5054140  16.5725690  39.6173940  41.9737450  17.2245490
  39.0101890  42.7136350  17.2340790  40.0923290  42.0636810  16.3983690
  52.5568760  35.0945210  17.7089940  51.9281920  35.1990880  16.9948170
  52.0620680  35.3141990  18.4983820  47.0026900  46.8150800  15.1423920
  47.1038880  46.6114790  14.2125900  46.1028640  46.5609080  15.3471700
  44.5252790  37.3731160  19.1247820  43.8168940  37.8417500  19.5661430
  44.8097270  36.7153170  19.7593010  48.5568220  34.0981820  20.5643610
  48.4336000  34.1167950  19.6153120  49.5052780  34.1460760  20.6842010
  45.6445010  49.3337120  19.8371590  45.8986510  49.2958510  18.9150960
  44.6957490  49.2070450  19.8299840  42.7287810  35.6816240  16.4998530
  43.5778340  36.1186390  16.4338720  42.3619080  35.9936500  17.3270590
  53.3575580  35.0095820  27.9668740  52.8549180  35.7501220  28.3062550
  54.1732240  35.3979820  27.6505530  51.6497590  40.2529000  21.4130100
  50.7087730  40.2679230  21.5877790  51.9641660  39.4664960  21.8590400
  41.6279230  41.9348600  14.9734060  42.3942500  41.8229960  15.5359490
  41.7053920  41.2386570  14.3210830  40.3225990  39.3673670  15.6566950
  40.4029580  38.4201180  15.7684350  41.2145740  39.6980550  15.7627610
  53.6523170  47.4237850  23.0884360  53.7770590  48.2469020  23.5608170
  54.5188730  47.2128580  22.7408510  38.0086180  45.5842630  18.6343000
  37.0825960  45.8263770  18.6248410  38.4742610  46.4116890  18.5127750
  44.2343010  48.6899370  14.5827060  45.0271620  48.9788200  14.1308850
  43.7147360  48.2591540  13.9039540  53.2873180  47.9169500  16.0063800
  53.0014690  47.5034640  15.1917980  53.0892730  48.8457210  15.8864320
  44.7520410  43.9102780  14.4469410  44.6471050  43.2955130  15.1730790
  44.5844630  43.3868670  13.6632420  47.9923140  42.9722810  15.0511400
  47.4433240  43.4192110  15.6954140  48.6142400  42.4672060  15.5749070
  52.0458080  44.3264910  30.9833660  52.7867550  44.6640670  30.4801120
  51.2830760  44.4956970  30.4303430  43.6598260  41.9313730  16.9476700
  44.0814680  41.7653600  17.7908090  43.7849100  41.1213960  16.4531840
  46.1725900  40.9551340  14.1953800  46.6931560  40.2400360  13.8294950
  46.8194300  41.5937210  14.4954310  50.7203740  42.3779740  29.5188870
  51.1344760  42.5324820  30.3679290  49.7854740  42.5034960  29.6814650
  51.1925910  39.7175900  31.5228020  51.7746680  38.9628220  31.4348500
  51.3687680  40.2483340  30.7459500  42.5557160  38.0046960  13.8934860
  42.3546220  37.1414320  14.2548200  42.3849210  37.9180320  12.9556460
  50.0345470  32.8155190  16.4221740  50.3147760  31.9723090  16.7781160
  49.2611200  33.0478300  16.9360490  41.3539960  35.1047580  13.8812740
  41.6565860  35.1115010  12.9731890  42.0934550  34.7545440  14.3780400
  44.5724890  34.0482200  14.8668940  44.2246890  33.3706190  14.2871390
  44.7737660  33.5871710  15.6812330  46.7373930  49.0362950  16.4855540
  47.6324720  49.3747920  16.5074300  46.7691560  48.3142360  15.8579820
  40.3770090  44.4090000  14.7142540  40.8144960  44.9519670  15.3700120
  40.8617820  43.5836950  14.7238880  37.5915890  47.1979030  22.1662800
  37.9218900  46.3300090  21.9341440  38.0206890  47.4037550  22.9967760
  42.1877810  45.5288040  19.8264770  41.8873350  45.4053010  20.7268680
  42.0815300  44.6696630  19.4180500  53.7168280  47.5666620  29.1921740
  53.1170270  47.6259180  28.4485660  53.8462180  46.6271600  29.3218590
  54.9569730  45.3084440  14.5291450  54.1262690  45.3761090  14.9998680
  55.1341560  46.1988560  14.2258310  54.4126190  42.0531920  17.0325650
  55.1745100  42.6228570  17.1385340  54.4280560  41.4859120  17.8033960
  55.4186160  42.9082020  21.8767580  55.7894990  42.1249340  21.4703550
  56.0588090  43.5971120  21.6984880  52.4019920  44.2918600  27.2897900
  51.5879760  44.7215760  27.5523690  52.8094120  44.9037010  26.6766950
  54.4645360  42.3466290  14.1898170  54.7394200  43.2545170  14.0617390
  54.2756100  42.2828820  15.1260160  50.8620970  35.3711140  15.4851800
  51.2805850  35.1842120  14.6448460  50.5557030  34.5190190  15.7954730
  54.3610700  40.2835280  19.1827600  53.9854300  39.5163210  18.7508890
  53.6313820  40.6657980  19.6702530  53.7510320  39.4306800  28.8167120
  53.5196410  39.2019550  27.9165070  54.0114870  40.3506350  28.7712010
  37.1268610  37.7868780  17.2058640  36.2232690  38.0498980  17.0310300
  37.6109230  38.0579950  16.4258600  53.6361660  38.5092770  22.4834840
  54.1599140  38.0155420  21.8525010  54.2221080  38.6443130  23.2282410
  53.8151380  38.5932640  26.0054390  52.8654090  38.5596180  26.1199380
  53.9964390  39.5032750  25.7704160  39.6695820  36.8434320  15.1153020
  40.3787520  36.4217540  14.6300300  38.9535760  36.9109550  14.4836370
  39.3169980  32.8973650  14.1555670  40.0398110  33.4382590  14.4736890
  39.5894500  32.6237070  13.2797210  53.1261630  37.7666120  18.4227250
  53.6220750  37.5336990  19.2076130  52.9277700  36.9277960  18.0064890
  54.5548790  36.4027070  20.9564930  54.4448070  36.2483110  21.8947200
  55.3156380  35.8748010  20.7140340  55.4439060  34.2334990  14.1971070
  56.3688370  34.1016170  13.9889360  55.4214850  34.3127810  15.1507520
  55.5177550  35.0045650  16.8227780  54.7229050  34.9390770  17.3520690
  55.7220830  35.9396290  16.8113130  52.4595970  49.0437200  20.8166170
  53.0555040  48.7221770  20.1400590  52.7174120  48.5709020  21.6079440
  55.3268730  49.0509080  27.3677160  54.8327010  49.4477950  26.6504290
  54.7182020  48.4258290  27.7614440  53.0108180  49.6932500  24.6463900
  52.5511150  50.4448310  24.2721920  52.3820640  48.9738970  24.5878700
  51.9497480  33.3342530  23.2726610  52.3905570  33.2787630  22.4248210
  51.6805070  34.2500540  23.3436790  53.8136050  32.9657770  21.2835430
  53.7524450  32.0218990  21.1366450  54.5928080  33.0737860  21.8288890
  38.1188800  49.1050130  20.2459380  37.9510840  48.4720810  20.9441270
  37.2523310  49.3109530  19.8953570  38.7416820  32.9366910  17.7491240
  39.4996180  33.0495790  17.1755270  38.2793990  33.7736110  17.7034670
  45.2830630  35.0506180  20.7393550  44.4705140  34.6763070  20.3989430
  45.7872270  34.2951260  21.0414740  49.7855610  31.7148630  21.9776620
  50.3884980  32.2868840  22.4525140  49.0448600  32.2788070  21.7550520
  52.9290210  32.1170190  17.2516900  53.1240840  33.0153640  17.5184330
  52.1420080  31.8857270  17.7449850  39.7251500  47.7983360  17.6909520
  39.1999120  48.1791390  16.9871480  39.6496080  48.4234130  18.4119230
  41.1141970  33.4630960  16.2893210  41.6434730  32.6760760  16.1601160
  41.7470290  34.1422150  16.5228740  43.3079810  33.2006100  19.3438600
  42.6782550  32.4993410  19.5108730  42.7684950  33.9610230  19.1271760
  54.4816820  49.3570900  19.0123460  54.6569010  48.6708640  18.3684380
  53.7838390  49.8817950  18.6200130  42.3244470  49.7465740  16.5658770
  43.0563290  49.4625020  16.0182660  42.5838140  49.5079020  17.4558150
  41.4859260  45.8630470  16.5705100  40.8568140  46.3315570  17.1190930
  41.6007090  45.0179690  17.0051290  48.9408980  39.9136130   2.7206300
  48.8603030  38.9990740   2.4498010  48.5273400  40.4103200   2.0146010
  47.0727020  41.6915150   4.6015570  46.2969120  41.2115590   4.8914140
  47.7239950  41.0120800   4.4271730  41.0892850  42.0034960   5.4791330
  40.2577730  41.7483670   5.8787840  41.6973830  42.0745730   6.2149250
  51.0934450  46.0975340   3.3814700  50.6315980  45.3262580   3.7101870
  51.9060000  46.1241410   3.8867150  41.0694110  46.0375050   5.6749350
  41.3722150  45.1472790   5.4959570  41.8137700  46.5945270   5.4471600
  37.4617810  39.5642500   5.1473420  38.0333920  38.7964700   5.1477060
  37.4619350  39.8631260   4.2380030  47.3197760  48.3833350   3.0018690
  46.7009200  48.8390850   2.4313130  48.1749540  48.5384810   2.6008390
  46.5136010  44.3672340   4.6085730  46.4444290  43.4262280   4.4474860
  47.2755870  44.4573750   5.1808300  38.7042680  34.9726860   6.9342350
  38.5245520  34.0752610   7.2145110  38.3022760  35.5198730   7.6089300
  47.5441180  37.1742720   4.8354660  47.9206000  36.3014600   4.7228330
  47.4460690  37.5101420   3.9445100  51.3265300  34.6693160   1.7683000
  52.1474920  34.1789730   1.8108480  51.3599380  35.2590820   2.5214840
  39.3229350  37.4687360   5.5424690  40.0039460  37.7325730   6.1612090
  39.0077400  36.6288230   5.8762700  43.5153920  38.5154720   4.6297280
  44.0232140  39.0135690   5.2702300  44.0467160  37.7389920   4.4536640
  55.6164850  36.6859910   8.3326630  54.9117020  37.0741620   7.8141740
  55.8822770  37.3810200   8.9347560  41.7990020  33.1553280   8.8960700
  41.8008460  33.6725670   8.0906600  40.9694330  32.6783460   8.8730630
  43.0492870  42.7948460   7.0734200  42.7162250  43.4217380   7.7155270
  43.2259550  43.3210340   6.2935870  51.5626780  36.6093540   4.5410540
  50.8582350  36.8978430   5.1213650  51.9238940  37.4193650   4.1810100
  41.4805350  34.8663240   6.9031150  41.8222160  35.7105290   6.6085020
  40.5421160  35.0146980   7.0196490  42.2611970  44.7629260   8.8883380
  42.8785970  45.4380340   8.6067830  41.4005090  45.1717240   8.7970880
  53.1789560  46.2268670   6.8038020  52.4953080  46.8967780   6.7954690
  53.7183850  46.4249320   6.0382880  54.6313700  36.0548330   4.9319750
  53.6838610  36.0887310   5.0635180  54.9563690  36.8687280   5.3169110
  45.1633240  32.3545510   3.2275740  45.4708220  31.7992400   2.5111240
  44.2333940  32.4889970   3.0448730  50.7148300  48.0712800   5.5183200
  50.7275460  47.6675090   4.6505460  50.1623520  48.8460090   5.4144630
  50.1133740  42.9742640   6.8465810  50.5302530  42.7602750   6.0119270
  50.8373560  43.2315430   7.4174430  54.0595840  41.3729860   6.9382050
  53.2314470  41.4422950   6.4632180  54.6546320  41.9584170   6.4697880
  51.0237850  38.1599180   7.8836920  50.6109030  38.9852890   8.1376910
  50.2913800  37.5744220   7.6913280  43.1570640  40.9459080   2.7455590
  42.7527640  40.2336330   2.2501490  43.2433760  40.6012320   3.6343630
  43.6252340  44.6326640   4.9094800  43.3280630  44.0272110   4.2302580
  44.5752160  44.6703950   4.7984160  41.8699260  37.7202290   6.5254630
  42.4213850  37.8297630   5.7507880  42.3842770  38.0939890   7.2409860
  51.7137950  48.2058510   8.5717900  51.2368510  49.0130700   8.3790510
  51.0299740  47.5536840   8.7244110  42.7170770  44.3708330  11.5602600
  41.8199300  44.5948300  11.8076000  42.7423640  44.4943270  10.6114000
  41.5441990  41.2421650  10.1359970  41.4049760  42.1144450  10.5047370
  40.6623350  40.8994460   9.9907910  43.3422340  47.1843350  12.3445120
  43.3137770  47.5886300  11.4773550  43.1787310  46.2553710  12.1816720
  55.2937160  47.9670450  13.6409290  55.7696880  48.4453340  14.3198370
  55.9144320  47.8987940  12.9154790  37.4960640  43.0119200   6.0530880
  37.5741060  43.1467970   5.1086600  38.1102320  42.3035090   6.2459000
  38.7408270  44.7119390   2.4637060  38.3336350  44.8533980   1.6090660
  39.6321280  44.4279550   2.2608270  54.6970410  45.1583300  10.8009300
  54.8233470  44.9195180   9.8826480  54.7391790  44.3267840  11.2731380
  48.5587150  48.8611300   9.3704110  49.0731820  48.7719310  10.1726540
  47.7156230  49.2071000   9.6632020  54.5494420  37.2115760  11.7659040
  53.9338690  37.7195430  11.2374500  54.2290840  36.3114090  11.7084980
  37.5520160  44.0533370   8.5925340  37.7151200  43.5838730   7.7744710
  38.0172610  43.5456930   9.2574180  42.3238930  33.1839130   3.6285910
  41.8807080  33.9648670   3.2970430  42.8823920  33.5069020   4.3356850
  46.6108740  36.0507650   9.2321230  46.1488110  36.2590670  10.0441170
  46.2086850  35.2367000   8.9291900  51.6113250  37.2716600  10.3617890
  50.7606840  36.9722350  10.6826960  51.4515040  37.5158610   9.4501710
  48.7062960  38.7718350  12.4616680  49.0316370  37.9382100  12.1218910
  49.4943290  39.2946870  12.6095010  44.3614830  33.7286460   5.4875510
  44.6587160  34.6349290   5.4067530  44.9100390  33.2405240   4.8735080
  44.5552360  39.2058280  12.0227430  44.4595960  38.2653010  11.8727830
  45.3984340  39.4273350  11.6275500  39.6862900  35.6171950  10.1761210
  39.2926290  36.4647160  10.3833990  38.9981300  34.9798320  10.3669850
  46.2607950  35.7006920  13.2457950  45.5706270  35.5079120  13.8804040
  47.0040250  35.9841560  13.7782250  36.9879950  33.5400410   4.2091290
  36.6993000  34.1103270   4.9216270  37.7325710  33.0604860   4.5722520
  48.5370920  39.5405360   6.0811870  47.8052040  40.0492170   6.4301970
  48.1395260  38.7235340   5.7800650  44.9748310  36.2159560   4.4864360
  44.9784370  35.7749510   3.6368900  45.8699430  36.5376890   4.5936180
  40.8250690  36.0986050   3.4458570  40.4850740  36.5761280   4.2025620
  40.0628010  35.6451170   3.0859670  48.9996830  34.9939040   5.4934810
  49.0169570  35.4447690   6.3376660  48.7512410  34.0944680   5.7068250
  52.4267580  32.4071220  11.3321190  52.7513350  31.6760880  11.8579170
  52.4624090  32.0884860  10.4302180  39.1259140  43.4284800  10.7521150
  38.7413930  42.7878470  11.3504110  39.4371330  44.1320920  11.3215880
  45.2756280  40.2761340   6.2329770  45.6426410  39.8019910   6.9791110
  45.0861340  41.1502910   6.5738110  38.1396770  35.0205030   2.3623240
  37.8543690  34.6560700   3.2001860  38.0775630  34.2885490   1.7486380
  43.0655650  39.3169980   8.5513980  42.7612720  40.1961960   8.7764340
  44.0202110  39.3769770   8.5871420  52.3525420  42.5196330   4.9407220
  53.0724540  43.0151620   4.5503330  52.1507240  41.8414220   4.2961090
  47.7344220  42.5905390  10.8276220  47.6681530  41.6701060  10.5733810
  47.1049360  42.6880830  11.5420860  41.6374840  43.1911350   2.7859640
  42.1553510  42.3879610   2.7316530  41.1858860  43.1290490   3.6276470
  39.1219380  40.1572720   9.6985340  38.7634320  40.8226570  10.2858680
  38.8273940  39.3256270  10.0697960  42.3232500  40.6156960  12.5824890
  42.0232640  40.7614140  11.6852710  43.0943740  40.0562250  12.4898280
  47.6660950  45.4125960  10.5780020  47.6805490  44.4806920  10.3598930
  46.9586050  45.4985720  11.2169790  53.8772160  42.0533300   9.9248600
  53.1520350  42.6462080   9.7277990  54.4047620  42.0456840   9.1261970
  49.4071750  43.7793470   3.4232450  49.7595570  43.1821600   2.7633820
  48.5234080  43.4537700   3.5940700  47.0994850  47.0543530   7.6720520
  47.7437070  47.2602910   8.3493940  47.4624290  46.2931930   7.2191370
  48.3726930  45.0575880   6.3897970  49.0149160  44.3569040   6.5030140
  48.8976280  45.8374320   6.2094860  50.1464550  45.8570780   9.5934030
  50.4820790  46.4437470  10.2711950  49.2264890  45.7263490   9.8231820
  37.6967950  33.6465960  10.3757440  36.9826470  33.8462880  10.9810050
  38.1162990  32.8705530  10.7472240  37.9840540  47.6346220  11.3623970
  38.0931660  46.6940960  11.2219360  37.3321100  47.9000970  10.7137700
  45.9753130  45.9062110  12.7622090  45.6550000  45.1871350  13.3067780
  45.3011490  46.5817180  12.8358150  49.1906730  36.1388270   8.1258890
  49.5587550  35.3183480   8.4538460  48.3304930  36.1990160   8.5414540
  46.1508720  38.7927860   8.3496860  46.6493970  39.2673680   9.0148710
  46.2931670  37.8691380   8.5566890  53.3575580  35.0095820   9.1925250
  52.8549180  35.7501220   9.5319060  54.1732240  35.3979820   8.8762040
  51.6497590  40.2529000   2.6386610  50.7087730  40.2679230   2.8134300
  51.9641660  39.4664960   3.0846910  53.6523170  47.4237850   4.3140870
  53.7770590  48.2469020   4.7864680  54.5188730  47.2128580   3.9665020
  41.1240700  49.5169060   3.9858000  41.8603180  48.9684520   4.2566570
  41.5081620  50.3825070   3.8463990  40.1298980  48.7015130  13.1743580
  40.9311710  49.0227180  13.5878980  39.6150800  48.3410710  13.8963490
  48.9663610  44.8095000  13.1218990  48.3601770  44.8326600  12.3814740
  48.6617720  44.0778040  13.6586240  50.3963980  48.5375290  11.7328400
  51.3485730  48.4533310  11.6828640  50.2492200  49.2017000  12.4062190
  37.8496790  41.1888590  12.1179630  38.3535810  40.6095870  12.6895860
  37.1104210  41.4728820  12.6556000  44.9034730  42.5959580  11.6515150
  44.1380400  43.1644580  11.5669820  45.0850690  42.3035790  10.7583380
  52.0458080  44.3264910  12.2090170  52.7867550  44.6640670  11.7057630
  51.2830760  44.4956970  11.6559940  39.8819870  39.3318180  13.0129700
  39.9225210  39.0332050  13.9214930  40.7365370  39.7325790  12.8537220
  41.8225680  37.9110280  10.9804190  41.2922140  37.4201230  10.3527530
  42.4913750  38.3394480  10.4462120  50.7203740  42.3779740  10.7445380
  51.1344760  42.5324820  11.5935800  49.7854740  42.5034960  10.9071160
  51.1925910  39.7175900  12.7484530  51.7746680  38.9628220  12.6605010
  51.3687680  40.2483340  11.9716010  42.3097980  34.8772650  11.0601480
  42.2154850  34.2593400  10.3352350  41.7295370  35.6038940  10.8331390
  45.0759420  33.4345890   8.0928870  44.6276720  33.4570150   7.2474420
  44.4424620  33.0364910   8.6899170  45.4818970  42.3300220   8.7141310
  45.9007080  43.1732950   8.5417550  44.5627600  42.4672260   8.4848090
  47.8182870  40.0616400  10.0979150  47.9379080  39.4657540  10.8373990
  48.6776870  40.0986090   9.6780450  50.1570770  40.6153590   8.6741660
  49.6305990  41.1396210   8.0706800  50.5002110  41.2480980   9.3051390
  43.3326390  48.6353230   9.8299040  42.7947480  49.3599290   9.5107740
  43.5860350  48.1583570   9.0396380  44.5851640  36.6037750  11.3554970
  45.1751330  36.2953600  12.0432790  43.7671880  36.1317500  11.5114870
  49.4045070  36.2203560  11.5887990  48.7160590  35.5585100  11.5237980
  50.1251090  35.7741830  12.0336450  46.1888600  49.8704440  10.0885690
  46.1147300  50.7739580  10.3958060  45.2867440  49.5516340  10.0607760
  37.5915890  47.1979030   3.3919310  37.9218900  46.3300090   3.1597950
  38.0206890  47.4037550   4.2224270  38.0806100  48.0649620   6.1300940
  37.6437090  48.2450420   6.9625090  38.6483780  48.8224240   5.9882660
  53.7168280  47.5666620  10.4178250  53.1170270  47.6259180   9.6742170
  53.8462180  46.6271600  10.5475100  37.9130530  40.5769850   2.4889820
  37.2579370  40.3081490   1.8449520  38.7508480  40.4674330   2.0391800
  55.4186160  42.9082020   3.1024090  55.7894990  42.1249340   2.6960060
  56.0588090  43.5971120   2.9241390  52.4019920  44.2918600   8.5154410
  51.5879760  44.7215760   8.7780200  52.8094120  44.9037010   7.9023460
  38.9506460  40.9622420   7.0293160  39.3179500  40.8749820   7.9089180
  38.3817280  40.1988970   6.9300020  53.7510320  39.4306800  10.0423630
  53.5196410  39.2019550   9.1421580  54.0114870  40.3506350   9.9968520
  38.5022460  37.8731510  10.9351580  37.6078510  37.8398270  11.2745290
  39.0420010  38.0718300  11.7002830  52.1898390  34.6563230  12.8203330
  53.0668570  34.6646630  13.2037330  52.2019230  33.9194070  12.2095680
  53.6361660  38.5092770   3.7091350  54.1599140  38.0155420   3.0781520
  54.2221080  38.6443130   4.4538920  53.8151380  38.5932640   7.2310900
  52.8654090  38.5596180   7.3455890  53.9964390  39.5032750   6.9960670
  39.0062170  32.1479840   5.2834800  39.6538360  31.5977220   4.8429960
  39.4264010  32.4022990   6.1050610  54.5548790  36.4027070   2.1821440
  54.4448070  36.2483110   3.1203710  55.3156380  35.8748010   1.9396850
  52.9014510  32.3421200   8.6404440  53.5386730  32.9555340   9.0063630
  53.0489400  32.3781860   7.6953670  38.7594170  32.3035510   8.0260120
  38.4108990  32.7599330   8.7918300  38.4281870  31.4092640   8.1082550
  40.3658540  45.4755110  12.1913310  40.3228170  45.1048020  13.0727770
  40.4969550  46.4132680  12.3315130  44.0664570  47.0314700   7.7923030
  43.8255930  47.2989260   6.9053550  45.0067210  47.2020430   7.8473890
  46.2718990  33.4947390  11.5479540  46.2107880  34.0869220  12.2974950
  47.2119370  33.3873350  11.4029800  48.9093550  33.1517450  11.1871830
  49.5233960  33.4696740  10.5252910  49.4543110  32.6666040  11.8067690
  55.3268730  49.0509080   8.5933670  54.8327010  49.4477950   7.8760800
  54.7182020  48.4258290   8.9870950  39.4314810  31.8311710  11.3010890
  39.9797800  31.6499760  10.5377000  39.4970120  31.0405820  11.8367200
  40.2046570  48.4217360   9.3111090  39.6106890  48.2902060  10.0501130
  40.1970410  47.5855500   8.8453190  49.6501590  31.7149590   7.5141120
  48.7761430  32.0484700   7.3114050  49.5412340  31.2422770   8.3392990
  50.5573570  33.9220460   8.8982840  50.2286930  33.1072220   8.5184570
  51.5055870  33.8790270   8.7748530  53.0108180  49.6932500   5.8720410
  52.5511150  50.4448310   5.4978430  52.3820640  48.9738970   5.8135210
  39.8358800  45.7875740   8.2619130  39.1092860  45.1681030   8.1945080
  39.8967950  46.1816350   7.3917210  43.4403900  48.0020740   5.0468540
  43.9568920  47.3908100   4.5216800  44.0901280  48.5049520   5.5379550
  46.1799400  48.8929230   5.8737520  46.4677210  48.6383530   4.9970530
  46.6922620  48.3406590   6.4643090  47.3976410  32.6319430   6.4534030
  46.6148200  33.1064930   6.7330790  47.1039340  31.7274260   6.3447210
  51.9497480  33.3342530   4.4983120  52.3905570  33.2787630   3.6504720
  51.6805070  34.2500540   4.5693300  53.8136050  32.9657770   2.5091940
  53.7524450  32.0218990   2.3622960  54.5928080  33.0737860   3.0545400
  45.2830630  35.0506180   1.9650060  44.4705140  34.6763070   1.6245940
  45.7872270  34.2951260   2.2671250  49.7855610  31.7148630   3.2033130
  50.3884980  32.2868840   3.6781650  49.0448600  32.2788070   2.9807030
  46.2471760  49.8145330  13.2405720  47.1739070  49.5789600  13.2841680
  46.2322190  50.6417330  12.7591750  43.4335370  32.4790080  13.0047600
  43.1519640  32.9823680  12.2408420  43.8155070  31.6811830  12.6389730
  50.0350830  31.8943660  13.5828070  49.9216280  32.2138270  14.4779590
  50.8520570  32.2956170  13.2865350  52.8149320  49.0415190  13.0646760
  53.6074640  48.5464420  12.8572720  53.1082470  49.7205330  13.6722370
  48.9408980  21.1392640  59.0436770  48.8603030  20.2247250  58.7728480
  48.5273400  21.6359710  58.3376480  47.0727020  22.9171660  60.9246040
  46.2969120  22.4372100  61.2144610  47.7239950  22.2377310  60.7502200
  41.0892850  23.2291470  61.8021800  40.2577730  22.9740180  62.2018310
  41.6973830  23.3002240  62.5379720  51.0934450  27.3231850  59.7045170
  50.6315980  26.5519090  60.0332340  51.9060000  27.3497920  60.2097620
  41.0694110  27.2631560  61.9979820  41.3722150  26.3729300  61.8190040
  41.8137700  27.8201780  61.7702070  39.4984800  18.1893360  55.5864190
  38.6101500  18.5309330  55.4844070  39.7825990  17.9893680  54.6945020
  37.4617810  20.7899010  61.4703890  38.0333920  20.0221210  61.4707530
  37.4619350  21.0887770  60.5610500  47.3197760  29.6089860  59.3249160
  46.7009200  30.0647360  58.7543600  48.1749540  29.7641320  58.9238860
  46.5136010  25.5928850  60.9316200  46.4444290  24.6518790  60.7705330
  47.2755870  25.6830260  61.5038770  47.5441180  18.3999230  61.1585130
  47.9206000  17.5271110  61.0458800  47.4460690  18.7357930  60.2675570
  41.6746190  16.7724860  56.6202570  41.7812940  17.6728590  56.9271330
  40.7638550  16.7242830  56.3297220  51.3265300  15.8949670  58.0913470
  52.1474920  15.4046240  58.1338950  51.3599380  16.4847330  58.8445310
  39.3229350  18.6943870  61.8655160  40.0039460  18.9582240  62.4842560
  39.0077400  17.8544740  62.1993170  43.5153920  19.7411230  60.9527750
  44.0232140  20.2392200  61.5932770  44.0467160  18.9646430  60.7767110
  48.1861110  24.4929100  56.7181070  47.5678380  24.9578550  56.1543790
  48.6984360  25.1856580  57.1350580  51.5626780  17.8350050  60.8641010
  50.8582350  18.1234940  61.4444120  51.9238940  18.6450160  60.5040570
  41.4805350  16.0919750  63.2261620  41.8222160  16.9361800  62.9315490
  40.5421160  16.2403490  63.3426960  37.5544310  25.1785630  54.0920700
  37.1772290  25.6672730  53.3605600  37.8117380  25.8510910  54.7227230
  53.1789560  27.4525180  63.1268490  52.4953080  28.1224290  63.1185160
  53.7183850  27.6505830  62.3613350  54.6313700  17.2804840  61.2550220
  53.6838610  17.3143820  61.3865650  54.9563690  18.0943790  61.6399580
  45.1633240  13.5802020  59.5506210  45.4708220  13.0248910  58.8341710
  44.2333940  13.7146480  59.3679200  50.7148300  29.2969310  61.8413670
  50.7275460  28.8931600  60.9735930  50.1623520  30.0716600  61.7375100
  52.0093720  26.0185530  56.9303840  51.8990050  25.0759860  57.0553260
  52.0061970  26.3801170  57.8166600  47.5514000  21.6450850  56.2866330
  46.6243280  21.5788230  56.5154800  47.7038820  22.5830980  56.1721570
  47.5383080  17.9167850  53.2833490  46.5986750  18.0781810  53.3685950
  47.8566340  18.6353530  52.7369480  54.0595840  22.5986370  63.2612520
  53.2314470  22.6679460  62.7862650  54.6546320  23.1840680  62.7928350
  51.5811290  23.2071150  56.7901580  50.9623710  22.8690700  56.1427880
  51.5635740  22.5630910  57.4980770  43.1570640  22.1715590  59.0686060
  42.7527640  21.4592840  58.5731960  43.2433760  21.8268830  59.9574100
  43.6252340  25.8583150  61.2325270  43.3280630  25.2528620  60.5533050
  44.5752160  25.8960460  61.1214630  49.7575990  22.4457960  53.7974330
  50.1969270  21.6080390  53.6512150  50.4704410  23.0787360  53.8838470
  47.8671370  27.3854030  57.7655570  48.3067280  28.1278360  57.3510960
  47.8058260  27.6280600  58.6894530  53.3393130  13.7000770  52.1115370
  53.0265790  13.7927600  53.0114440  54.1005600  14.2781800  52.0612800
  39.8575270  21.0660570  56.5692710  39.7372870  21.7922660  55.9573980
  39.5476160  20.2963480  56.0920620  37.4960640  24.2375710  62.3761350
  37.5741060  24.3724480  61.4317070  38.1102320  23.5291600  62.5689470
  38.7408270  25.9375900  58.7867530  38.3336350  26.0790490  57.9321130
  39.6321280  25.6536060  58.5838740  50.5341550  30.3723150  55.1218580
  50.3742690  30.0826090  56.0200410  50.3688260  29.5963280  54.5863810
  43.0129930  30.1521680  56.8990200  42.8372410  29.2357220  56.6858000
  42.1585670  30.5108970  57.1388000  50.2367680  27.8810710  53.6816580
  49.5432840  27.8788000  53.0218860  50.9790540  27.4570030  53.2510750
  49.8017610  29.5073420  57.7565070  50.2574560  28.7262800  58.0703690
  50.1410130  30.2180240  58.3006250  42.3238930  14.4095640  59.9516380
  41.8807080  15.1905180  59.6200900  42.8823920  14.7325530  60.6587320
  45.4397750  14.0306340  54.8322210  44.8151930  14.0266210  55.5575520
  45.3527870  13.1637300  54.4358180  44.3614830  14.9542970  61.8105980
  44.6587160  15.8605800  61.7298000  44.9100390  14.4661750  61.1965550
  42.1153150  19.5329210  57.6797630  41.8894070  19.3166380  58.5844250
  41.3345680  19.9657670  57.3343600  49.3450910  19.5392580  56.2788280
  48.7459800  20.2628380  56.0951900  49.8930520  19.4769360  55.4964730
  47.9515780  18.1756120  58.3091560  48.3445350  18.4928320  57.4960250
  48.3132630  17.2968000  58.4236080  36.9879950  14.7656920  60.5321760
  36.6993000  15.3359780  61.2446740  37.7325710  14.2861370  60.8952990
  37.1750180  18.7077040  51.7424480  37.0924850  19.6507800  51.8839470
  36.8233240  18.5651950  50.8636830  48.5370920  20.7661870  62.4042340
  47.8052040  21.2748680  62.7532440  48.1395260  19.9491850  62.1031120
  44.9748310  17.4416070  60.8094830  44.9784370  17.0006020  59.9599370
  45.8699430  17.7633400  60.9166650  40.8250690  17.3242560  59.7689040
  40.4850740  17.8017790  60.5256090  40.0628010  16.8707680  59.4090140
  45.0368460  18.4428150  53.8001590  45.1581280  18.4014630  54.7487410
  44.6516970  19.3052300  53.6448320  48.9996830  16.2195550  61.8165280
  49.0169570  16.6704200  62.6607130  48.7512410  15.3201190  62.0298720
  44.0489960  20.7529290  53.1984890  43.4806860  20.3047540  52.5720800
  44.7578960  21.1122070  52.6650040  45.2756280  21.5017850  62.5560240
  45.6426410  21.0276420  63.3021580  45.0861340  22.3759420  62.8968580
  38.1396770  16.2461540  58.6853710  37.8543690  15.8817210  59.5232330
  38.0775630  15.5142000  58.0716850  41.5937440  24.7487480  55.4711300
  40.8199700  24.2085100  55.3110020  42.3232070  24.2294090  55.1329060
  52.3525420  23.7452840  61.2637690  53.0724540  24.2408130  60.8733800
  52.1507240  23.0670730  60.6191560  47.8135360  15.1390800  55.4067080
  46.9999970  14.6403970  55.3312390  47.6197310  15.9789050  54.9903430
  50.5283750  19.5110450  53.7029240  51.4163370  19.8227680  53.5280580
  50.4988840  18.6382700  53.3109820  41.6374840  24.4167860  59.1090110
  42.1553510  23.6136120  59.0547000  41.1858860  24.3547000  59.9506940
  46.5244340  25.6834140  54.3817410  46.8660040  26.4276370  53.8860730
  45.6957050  25.9965260  54.7442240  52.7998020  20.8222290  53.1709100
  52.7161740  21.2536510  52.3205540  53.5192210  21.2820640  53.6035920
  53.8285270  27.6764550  55.8991230  53.1861430  27.0220170  56.1734950
  53.4415930  28.0819640  55.1231900  49.4071750  25.0049980  59.7462920
  49.7595570  24.4078110  59.0864290  48.5234080  24.6794210  59.9171170
  45.4935030  25.7647670  57.1533330  46.1806160  26.3116880  57.5340920
  44.7067450  26.3088400  57.1882940  37.6327430  21.3820490  52.6450410
  38.5022280  21.6645290  52.9286330  37.1417750  22.1956360  52.5299220
  44.7962240  22.7693700  56.7658690  45.2525020  23.5798950  56.9918880
  44.4450450  22.4516840  57.5977180  40.6974020  13.1131350  57.2381210
  40.5688650  13.1049250  58.1866130  39.8736040  13.4514440  56.8872220
  48.3726930  26.2832390  62.7128440  49.0149160  25.5825550  62.8260610
  48.8976280  27.0630830  62.5325330  52.2182650  26.5681010  52.4367580
  51.9920230  25.8511450  53.0292220  51.8278850  26.3193450  51.5989330
  37.9998680  30.5947870  53.2112040  38.3596320  31.1937210  52.5569310
  37.8591020  31.1407760  53.9847070  51.7998900  24.4852950  54.0981740
  51.5120600  24.9465640  54.8859620  52.5951070  24.0250720  54.3665960
  44.0167300  27.9779070  54.0285710  44.0077400  28.7108760  53.4130220
  43.0965660  27.7310650  54.1212670  39.6173940  23.1993960  54.7732470
  39.0101890  23.9392860  54.7827770  40.0923290  23.2893320  53.9470670
  52.5568760  16.3201720  55.2576920  51.9281920  16.4247390  54.5435150
  52.0620680  16.5398500  56.0470800  47.0026900  28.0407310  52.6910900
  47.1038880  27.8371300  51.7612880  46.1028640  27.7865590  52.8958680
  44.5252790  18.5987670  56.6734800  43.8168940  19.0674010  57.1148410
  44.8097270  17.9409680  57.3079990  48.5568220  15.3238330  58.1130590
  48.4336000  15.3424460  57.1640100  49.5052780  15.3717270  58.2328990
  45.6445010  30.5593630  57.3858570  45.8986510  30.5215020  56.4637940
  44.6957490  30.4326960  57.3786820  42.7287810  16.9072750  54.0485510
  43.5778340  17.3442900  53.9825700  42.3619080  17.2193010  54.8757570
  51.6497590  21.4785510  58.9617080  50.7087730  21.4935740  59.1364770
  51.9641660  20.6921470  59.4077380  41.6279230  23.1605110  52.5221040
  42.3942500  23.0486470  53.0846470  41.7053920  22.4643080  51.8697810
  40.3225990  20.5930180  53.2053930  40.4029580  19.6457690  53.3171330
  41.2145740  20.9237060  53.3114590  53.6523170  28.6494360  60.6371340
  53.7770590  29.4725530  61.1095150  54.5188730  28.4385090  60.2895490
  41.1240700  30.7425570  60.3088470  41.8603180  30.1941030  60.5797040
  41.5081620  31.6081580  60.1694460  38.0086180  26.8099140  56.1829980
  37.0825960  27.0520280  56.1735390  38.4742610  27.6373400  56.0614730
  44.2343010  29.9155880  52.1314040  45.0271620  30.2044710  51.6795830
  43.7147360  29.4848050  51.4526520  53.2873180  29.1426010  53.5550780
  53.0014690  28.7291150  52.7404960  53.0892730  30.0713720  53.4351300
  44.7520410  25.1359290  51.9956390  44.6471050  24.5211640  52.7217770
  44.5844630  24.6125180  51.2119400  47.9923140  24.1979320  52.5998380
  47.4433240  24.6448620  53.2441120  48.6142400  23.6928570  53.1236050
  43.6598260  23.1570240  54.4963680  44.0814680  22.9910110  55.3395070
  43.7849100  22.3470470  54.0018820  46.1725900  22.1807850  51.7440780
  46.6931560  21.4656870  51.3781930  46.8194300  22.8193720  52.0441290
  42.5557160  19.2303470  51.4421840  42.3546220  18.3670830  51.8035180
  42.3849210  19.1436830  50.5043440  50.0345470  14.0411700  53.9708720
  50.3147760  13.1979600  54.3268140  49.2611200  14.2734810  54.4847470
  41.3539960  16.3304090  51.4299720  41.6565860  16.3371520  50.5218870
  42.0934550  15.9801950  51.9267380  44.5724890  15.2738710  52.4155920
  44.2246890  14.5962700  51.8358370  44.7737660  14.8128220  53.2299310
  46.7373930  30.2619460  54.0342520  47.6324720  30.6004430  54.0561280
  46.7691560  29.5398870  53.4066800  40.3770090  25.6346510  52.2629520
  40.8144960  26.1776180  52.9187100  40.8617820  24.8093460  52.2725860
  37.5915890  28.4235540  59.7149780  37.9218900  27.5556600  59.4828420
  38.0206890  28.6294060  60.5454740  42.1877810  26.7544550  57.3751750
  41.8873350  26.6309520  58.2755660  42.0815300  25.8953140  56.9667480
  38.0806100  29.2906130  62.4531410  37.6437090  29.4706930  63.2855560
  38.6483780  30.0480750  62.3113130  54.9569730  26.5340950  52.0778430
  54.1262690  26.6017600  52.5485660  55.1341560  27.4245070  51.7745290
  54.4126190  23.2788430  54.5812630  55.1745100  23.8485080  54.6872320
  54.4280560  22.7115630  55.3520940  37.9130530  21.8026360  58.8120290
  37.2579370  21.5338000  58.1679990  38.7508480  21.6930840  58.3622270
  55.4186160  24.1338530  59.4254560  55.7894990  23.3505850  59.0190530
  56.0588090  24.8227630  59.2471860  54.4645360  23.5722800  51.7385150
  54.7394200  24.4801680  51.6104370  54.2756100  23.5085330  52.6747140
  50.8620970  16.5967650  53.0338780  51.2805850  16.4098630  52.1935440
  50.5557030  15.7446700  53.3441710  54.3610700  21.5091790  56.7314580
  53.9854300  20.7419720  56.2995870  53.6313820  21.8914490  57.2189510
  37.1268610  19.0125290  54.7545620  36.2232690  19.2755490  54.5797280
  37.6109230  19.2836460  53.9745580  53.6361660  19.7349280  60.0321820
  54.1599140  19.2411930  59.4011990  54.2221080  19.8699640  60.7769390
  39.6695820  18.0690830  52.6640000  40.3787520  17.6474050  52.1787280
  38.9535760  18.1366060  52.0323350  39.3169980  14.1230160  51.7042650
  40.0398110  14.6639100  52.0223870  39.5894500  13.8493580  50.8284190
  53.1261630  18.9922630  55.9714230  53.6220750  18.7593500  56.7563110
  52.9277700  18.1534470  55.5551870  39.0062170  13.3736350  61.6065270
  39.6538360  12.8233730  61.1660430  39.4264010  13.6279500  62.4281080
  54.5548790  17.6283580  58.5051910  54.4448070  17.4739620  59.4434180
  55.3156380  17.1004520  58.2627320  55.4439060  15.4591500  51.7458050
  56.3688370  15.3272680  51.5376340  55.4214850  15.5384320  52.6994500
  55.5177550  16.2302160  54.3714760  54.7229050  16.1647280  54.9007670
  55.7220830  17.1652800  54.3600110  52.4595970  30.2693710  58.3653150
  53.0555040  29.9478280  57.6887570  52.7174120  29.7965530  59.1566420
  53.0108180  30.9189010  62.1950880  52.5511150  31.6704820  61.8208900
  52.3820640  30.1995480  62.1365680  43.4403900  29.2277250  61.3699010
  43.9568920  28.6164610  60.8447270  44.0901280  29.7306030  61.8610020
  46.1799400  30.1185740  62.1967990  46.4677210  29.8640040  61.3201000
  46.6922620  29.5663100  62.7873560  47.3976410  13.8575940  62.7764500
  46.6148200  14.3321440  63.0561260  47.1039340  12.9530770  62.6677680
  51.9497480  14.5599040  60.8213590  52.3905570  14.5044140  59.9735190
  51.6805070  15.4757050  60.8923770  53.8136050  14.1914280  58.8322410
  53.7524450  13.2475500  58.6853430  54.5928080  14.2994370  59.3775870
  38.1188800  30.3306640  57.7946360  37.9510840  29.6977320  58.4928250
  37.2523310  30.5366040  57.4440550  38.7416820  14.1623420  55.2978220
  39.4996180  14.2752300  54.7242250  38.2793990  14.9992620  55.2521650
  45.2830630  16.2762690  58.2880530  44.4705140  15.9019580  57.9476410
  45.7872270  15.5207770  58.5901720  49.7855610  12.9405140  59.5263600
  50.3884980  13.5125350  60.0012120  49.0448600  13.5044580  59.3037500
  52.9290210  13.3426700  54.8003880  53.1240840  14.2410150  55.0671310
  52.1420080  13.1113780  55.2936830  39.7251500  29.0239870  55.2396500
  39.1999120  29.4047900  54.5358460  39.6496080  29.6490640  55.9606210
  41.1141970  14.6887470  53.8380190  41.6434730  13.9017270  53.7088140
  41.7470290  15.3678660  54.0715720  43.3079810  14.4262610  56.8925580
  42.6782550  13.7249920  57.0595710  42.7684950  15.1866740  56.6758740
  54.4816820  30.5827410  56.5610440  54.6569010  29.8965150  55.9171360
  53.7838390  31.1074460  56.1687110  42.3244470  30.9722250  54.1145750
  43.0563290  30.6881530  53.5669640  42.5838140  30.7335530  55.0045130
  41.4859260  27.0886980  54.1192080  40.8568140  27.5572080  54.6677910
  41.6007090  26.2436200  54.5538270  48.9408980  21.1392640  40.2693280
  48.8603030  20.2247250  39.9984990  48.5273400  21.6359710  39.5632990
  47.0727020  22.9171660  42.1502550  46.2969120  22.4372100  42.4401120
  47.7239950  22.2377310  41.9758710  41.0892850  23.2291470  43.0278310
  40.2577730  22.9740180  43.4274820  41.6973830  23.3002240  43.7636230
  51.0934450  27.3231850  40.9301680  50.6315980  26.5519090  41.2588850
  51.9060000  27.3497920  41.4354130  41.0694110  27.2631560  43.2236330
  41.3722150  26.3729300  43.0446550  41.8137700  27.8201780  42.9958580
  39.4984800  18.1893360  36.8120700  38.6101500  18.5309330  36.7100580
  39.7825990  17.9893680  35.9201530  37.4617810  20.7899010  42.6960400
  38.0333920  20.0221210  42.6964040  37.4619350  21.0887770  41.7867010
  46.5136010  25.5928850  42.1572710  46.4444290  24.6518790  41.9961840
  47.2755870  25.6830260  42.7295280  38.7042680  16.1983370  44.4829330
  38.5245520  15.3009120  44.7632090  38.3022760  16.7455240  45.1576280
  47.5441180  18.3999230  42.3841640  47.9206000  17.5271110  42.2715310
  47.4460690  18.7357930  41.4932080  41.6746190  16.7724860  37.8459080
  41.7812940  17.6728590  38.1527840  40.7638550  16.7242830  37.5553730
  51.3265300  15.8949670  39.3169980  52.1474920  15.4046240  39.3595460
  51.3599380  16.4847330  40.0701820  39.3229350  18.6943870  43.0911670
  40.0039460  18.9582240  43.7099070  39.0077400  17.8544740  43.4249680
  43.5153920  19.7411230  42.1784260  44.0232140  20.2392200  42.8189280
  44.0467160  18.9646430  42.0023620  55.6164850  17.9116420  45.8813610
  54.9117020  18.2998130  45.3628720  55.8822770  18.6066710  46.4834540
  41.7990020  14.3809790  46.4447680  41.8008460  14.8982180  45.6393580
  40.9694330  13.9039970  46.4217610  48.1861110  24.4929100  37.9437580
  47.5678380  24.9578550  37.3800300  48.6984360  25.1856580  38.3607090
  43.0492870  24.0204970  44.6221180  42.7162250  24.6473890  45.2642250
  43.2259550  24.5466850  43.8422850  51.5626780  17.8350050  42.0897520
  50.8582350  18.1234940  42.6700630  51.9238940  18.6450160  41.7297080
  41.4805350  16.0919750  44.4518130  41.8222160  16.9361800  44.1572000
  40.5421160  16.2403490  44.5683470  42.2611970  25.9885770  46.4370360
  42.8785970  26.6636850  46.1554810  41.4005090  26.3973750  46.3457860
  53.1789560  27.4525180  44.3525000  52.4953080  28.1224290  44.3441670
  53.7183850  27.6505830  43.5869860  54.6313700  17.2804840  42.4806730
  53.6838610  17.3143820  42.6122160  54.9563690  18.0943790  42.8656090
  45.1633240  13.5802020  40.7762720  45.4708220  13.0248910  40.0598220
  44.2333940  13.7146480  40.5935710  50.7148300  29.2969310  43.0670180
  50.7275460  28.8931600  42.1992440  50.1623520  30.0716600  42.9631610
  52.0093720  26.0185530  38.1560350  51.8990050  25.0759860  38.2809770
  52.0061970  26.3801170  39.0423110  50.1133740  24.1999150  44.3952790
  50.5302530  23.9859260  43.5606250  50.8373560  24.4571940  44.9661410
  47.5514000  21.6450850  37.5122840  46.6243280  21.5788230  37.7411310
  47.7038820  22.5830980  37.3978080  47.5383080  17.9167850  34.5090000
  46.5986750  18.0781810  34.5942460  47.8566340  18.6353530  33.9625990
  54.0595840  22.5986370  44.4869030  53.2314470  22.6679460  44.0119160
  54.6546320  23.1840680  44.0184860  51.5811290  23.2071150  38.0158090
  50.9623710  22.8690700  37.3684390  51.5635740  22.5630910  38.7237280
  51.0237850  19.3855690  45.4323900  50.6109030  20.2109400  45.6863890
  50.2913800  18.8000730  45.2400260  43.1570640  22.1715590  40.2942570
  42.7527640  21.4592840  39.7988470  43.2433760  21.8268830  41.1830610
  43.6252340  25.8583150  42.4581780  43.3280630  25.2528620  41.7789560
  44.5752160  25.8960460  42.3471140  41.8699260  18.9458800  44.0741610
  42.4213850  19.0554140  43.2994860  42.3842770  19.3196400  44.7896840
  51.7137950  29.4315020  46.1204880  51.2368510  30.2387210  45.9277490
  51.0299740  28.7793350  46.2731090  42.7170770  25.5964840  49.1089580
  41.8199300  25.8204810  49.3562980  42.7423640  25.7199780  48.1600980
  49.7575990  22.4457960  35.0230840  50.1969270  21.6080390  34.8768660
  50.4704410  23.0787360  35.1094980  41.5441990  22.4678160  47.6846950
  41.4049760  23.3400960  48.0534350  40.6623350  22.1250970  47.5394890
  43.3422340  28.4099860  49.8932100  43.3137770  28.8142810  49.0260530
  43.1787310  27.4810220  49.7303700  53.3393130  13.7000770  33.3371880
  53.0265790  13.7927600  34.2370950  54.1005600  14.2781800  33.2869310
  39.8575270  21.0660570  37.7949220  39.7372870  21.7922660  37.1830490
  39.5476160  20.2963480  37.3177130  55.2937160  29.1926960  51.1896270
  55.7696880  29.6709850  51.8685350  55.9144320  29.1244450  50.4641770
  37.4960640  24.2375710  43.6017860  37.5741060  24.3724480  42.6573580
  38.1102320  23.5291600  43.7945980  54.6970410  26.3839810  48.3496280
  54.8233470  26.1451690  47.4313460  54.7391790  25.5524350  48.8218360
  48.5587150  30.0867810  46.9191090  49.0731820  29.9975820  47.7213520
  47.7156230  30.4327510  47.2119000  54.5494420  18.4372270  49.3146020
  53.9338690  18.9451940  48.7861480  54.2290840  17.5370600  49.2571960
  37.5520160  25.2789880  46.1412320  37.7151200  24.8095240  45.3231690
  38.0172610  24.7713440  46.8061160  42.3238930  14.4095640  41.1772890
  41.8807080  15.1905180  40.8457410  42.8823920  14.7325530  41.8843830
  46.6108740  17.2764160  46.7808210  46.1488110  17.4847180  47.5928150
  46.2086850  16.4623510  46.4778880  51.6113250  18.4973110  47.9104870
  50.7606840  18.1978860  48.2313940  51.4515040  18.7415120  46.9988690
  48.7062960  19.9974860  50.0103660  49.0316370  19.1638610  49.6705890
  49.4943290  20.5203380  50.1581990  45.4397750  14.0306340  36.0578720
  44.8151930  14.0266210  36.7832030  45.3527870  13.1637300  35.6614690
  44.3614830  14.9542970  43.0362490  44.6587160  15.8605800  42.9554510
  44.9100390  14.4661750  42.4222060  42.1153150  19.5329210  38.9054140
  41.8894070  19.3166380  39.8100760  41.3345680  19.9657670  38.5600110
  49.3450910  19.5392580  37.5044790  48.7459800  20.2628380  37.3208410
  49.8930520  19.4769360  36.7221240  44.5552360  20.4314790  49.5714410
  44.4595960  19.4909520  49.4214810  45.3984340  20.6529860  49.1762480
  47.9515780  18.1756120  39.5348070  48.3445350  18.4928320  38.7216760
  48.3132630  17.2968000  39.6492590  39.6862900  16.8428460  47.7248190
  39.2926290  17.6903670  47.9320970  38.9981300  16.2054830  47.9156830
  46.2607950  16.9263430  50.7944930  45.5706270  16.7335630  51.4291020
  47.0040250  17.2098070  51.3269230  36.9879950  14.7656920  41.7578270
  36.6993000  15.3359780  42.4703250  37.7325710  14.2861370  42.1209500
  37.1750180  18.7077040  32.9680990  37.0924850  19.6507800  33.1095980
  36.8233240  18.5651950  32.0893340  48.5370920  20.7661870  43.6298850
  47.8052040  21.2748680  43.9788950  48.1395260  19.9491850  43.3287630
  44.9748310  17.4416070  42.0351340  44.9784370  17.0006020  41.1855880
  45.8699430  17.7633400  42.1423160  40.8250690  17.3242560  40.9945550
  40.4850740  17.8017790  41.7512600  40.0628010  16.8707680  40.6346650
  45.0368460  18.4428150  35.0258100  45.1581280  18.4014630  35.9743920
  44.6516970  19.3052300  34.8704830  48.9996830  16.2195550  43.0421790
  49.0169570  16.6704200  43.8863640  48.7512410  15.3201190  43.2555230
  44.0489960  20.7529290  34.4241400  43.4806860  20.3047540  33.7977310
  44.7578960  21.1122070  33.8906550  52.4267580  13.6327730  48.8808170
  52.7513350  12.9017390  49.4066150  52.4624090  13.3141370  47.9789160
  39.1259140  24.6541310  48.3008130  38.7413930  24.0134980  48.8991090
  39.4371330  25.3577430  48.8702860  45.2756280  21.5017850  43.7816750
  45.6426410  21.0276420  44.5278090  45.0861340  22.3759420  44.1225090
  38.1396770  16.2461540  39.9110220  37.8543690  15.8817210  40.7488840
  38.0775630  15.5142000  39.2973360  43.0655650  20.5426490  46.1000960
  42.7612720  21.4218470  46.3251320  44.0202110  20.6026280  46.1358400
  41.5937440  24.7487480  36.6967810  40.8199700  24.2085100  36.5366530
  42.3232070  24.2294090  36.3585570  52.3525420  23.7452840  42.4894200
  53.0724540  24.2408130  42.0990310  52.1507240  23.0670730  41.8448070
  47.8135360  15.1390800  36.6323590  46.9999970  14.6403970  36.5568900
  47.6197310  15.9789050  36.2159940  47.7344220  23.8161900  48.3763200
  47.6681530  22.8957570  48.1220790  47.1049360  23.9137340  49.0907840
  50.5283750  19.5110450  34.9285750  51.4163370  19.8227680  34.7537090
  50.4988840  18.6382700  34.5366330  46.5244340  25.6834140  35.6073920
  46.8660040  26.4276370  35.1117240  45.6957050  25.9965260  35.9698750
  39.1219380  21.3829230  47.2472320  38.7634320  22.0483080  47.8345660
  38.8273940  20.5512780  47.6184940  42.3232500  21.8413470  50.1311870
  42.0232640  21.9870650  49.2339690  43.0943740  21.2818760  50.0385260
  47.6660950  26.6382470  48.1267000  47.6805490  25.7063430  47.9085910
  46.9586050  26.7242230  48.7656770  52.7998020  20.8222290  34.3965610
  52.7161740  21.2536510  33.5462050  53.5192210  21.2820640  34.8292430
  53.8772160  23.2789810  47.4735580  53.1520350  23.8718590  47.2764970
  54.4047620  23.2713350  46.6748950  53.8285270  27.6764550  37.1247740
  53.1861430  27.0220170  37.3991460  53.4415930  28.0819640  36.3488410
  49.4071750  25.0049980  40.9719430  49.7595570  24.4078110  40.3120800
  48.5234080  24.6794210  41.1427680  44.7962240  22.7693700  37.9915200
  45.2525020  23.5798950  38.2175390  44.4450450  22.4516840  38.8233690
  47.0994850  28.2800040  45.2207500  47.7437070  28.4859420  45.8980920
  47.4624290  27.5188440  44.7678350  40.6974020  13.1131350  38.4637720
  40.5688650  13.1049250  39.4122640  39.8736040  13.4514440  38.1128730
  48.3726930  26.2832390  43.9384950  49.0149160  25.5825550  44.0517120
  48.8976280  27.0630830  43.7581840  52.2182650  26.5681010  33.6624090
  51.9920230  25.8511450  34.2548730  51.8278850  26.3193450  32.8245840
  50.1464550  27.0827290  47.1421010  50.4820790  27.6693980  47.8198930
  49.2264890  26.9520000  47.3718800  37.6967950  14.8722470  47.9244420
  36.9826470  15.0719390  48.5297030  38.1162990  14.0962040  48.2959220
  51.7998900  24.4852950  35.3238250  51.5120600  24.9465640  36.1116130
  52.5951070  24.0250720  35.5922470  37.9840540  28.8602730  48.9110950
  38.0931660  27.9197470  48.7706340  37.3321100  29.1257480  48.2624680
  45.9753130  27.1318620  50.3109070  45.6550000  26.4127860  50.8554760
  45.3011490  27.8073690  50.3845130  49.1906730  17.3644780  45.6745870
  49.5587550  16.5439990  46.0025440  48.3304930  17.4246670  46.0901520
  52.5568760  16.3201720  36.4833430  51.9281920  16.4247390  35.7691660
  52.0620680  16.5398500  37.2727310  44.5252790  18.5987670  37.8991310
  43.8168940  19.0674010  38.3404920  44.8097270  17.9409680  38.5336500
  46.1508720  20.0184370  45.8983840  46.6493970  20.4930190  46.5635690
  46.2931670  19.0947890  46.1053870  48.5568220  15.3238330  39.3387100
  48.4336000  15.3424460  38.3896610  49.5052780  15.3717270  39.4585500
  42.7287810  16.9072750  35.2742020  43.5778340  17.3442900  35.2082210
  42.3619080  17.2193010  36.1014080  53.3575580  16.2352330  46.7412230
  52.8549180  16.9757730  47.0806040  54.1732240  16.6236330  46.4249020
  51.6497590  21.4785510  40.1873590  50.7087730  21.4935740  40.3621280
  51.9641660  20.6921470  40.6333890  41.6279230  23.1605110  33.7477550
  42.3942500  23.0486470  34.3102980  41.7053920  22.4643080  33.0954320
  40.3225990  20.5930180  34.4310440  40.4029580  19.6457690  34.5427840
  41.2145740  20.9237060  34.5371100  53.6523170  28.6494360  41.8627850
  53.7770590  29.4725530  42.3351660  54.5188730  28.4385090  41.5152000
  41.1240700  30.7425570  41.5344980  41.8603180  30.1941030  41.8053550
  41.5081620  31.6081580  41.3950970  40.1298980  29.9271640  50.7230560
  40.9311710  30.2483690  51.1365960  39.6150800  29.5667220  51.4450470
  48.9663610  26.0351510  50.6705970  48.3601770  26.0583110  49.9301720
  48.6617720  25.3034550  51.2073220  50.3963980  29.7631800  49.2815380
  51.3485730  29.6789820  49.2315620  50.2492200  30.4273510  49.9549170
  37.8496790  22.4145100  49.6666610  38.3535810  21.8352380  50.2382840
  37.1104210  22.6985330  50.2042980  44.9034730  23.8216090  49.2002130
  44.1380400  24.3901090  49.1156800  45.0850690  23.5292300  48.3070360
  47.9923140  24.1979320  33.8254890  47.4433240  24.6448620  34.4697630
  48.6142400  23.6928570  34.3492560  52.0458080  25.5521420  49.7577150
  52.7867550  25.8897180  49.2544610  51.2830760  25.7213480  49.2046920
  39.8819870  20.5574690  50.5616680  39.9225210  20.2588560  51.4701910
  40.7365370  20.9582300  50.4024200  43.6598260  23.1570240  35.7220190
  44.0814680  22.9910110  36.5651580  43.7849100  22.3470470  35.2275330
  41.8225680  19.1366790  48.5291170  41.2922140  18.6457740  47.9014510
  42.4913750  19.5650990  47.9949100  46.1725900  22.1807850  32.9697290
  46.6931560  21.4656870  32.6038440  46.8194300  22.8193720  33.2697800
  50.7203740  23.6036250  48.2932360  51.1344760  23.7581330  49.1422780
  49.7854740  23.7291470  48.4558140  51.1925910  20.9432410  50.2971510
  51.7746680  20.1884730  50.2091990  51.3687680  21.4739850  49.5202990
  42.3097980  16.1029160  48.6088460  42.2154850  15.4849910  47.8839330
  41.7295370  16.8295450  48.3818370  45.0759420  14.6602400  45.6415850
  44.6276720  14.6826660  44.7961400  44.4424620  14.2621420  46.2386150
  45.4818970  23.5556730  46.2628290  45.9007080  24.3989460  46.0904530
  44.5627600  23.6928770  46.0335070  47.8182870  21.2872910  47.6466130
  47.9379080  20.6914050  48.3860970  48.6776870  21.3242600  47.2267430
  50.1570770  21.8410100  46.2228640  49.6305990  22.3652720  45.6193780
  50.5002110  22.4737490  46.8538370  42.5557160  19.2303470  32.6678350
  42.3546220  18.3670830  33.0291690  42.3849210  19.1436830  31.7299950
  43.3326390  29.8609740  47.3786020  42.7947480  30.5855800  47.0594720
  43.5860350  29.3840080  46.5883360  44.5851640  17.8294260  48.9041950
  45.1751330  17.5210110  49.5919770  43.7671880  17.3574010  49.0601850
  49.4045070  17.4460070  49.1374970  48.7160590  16.7841610  49.0724960
  50.1251090  16.9998340  49.5823430  50.0345470  14.0411700  35.1965230
  50.3147760  13.1979600  35.5524650  49.2611200  14.2734810  35.7103980
  41.3539960  16.3304090  32.6556230  41.6565860  16.3371520  31.7475380
  42.0934550  15.9801950  33.1523890  46.1888600  31.0960950  47.6372670
  46.1147300  31.9996090  47.9445040  45.2867440  30.7772850  47.6094740
  44.5724890  15.2738710  33.6412430  44.2246890  14.5962700  33.0614880
  44.7737660  14.8128220  34.4555820  38.0806100  29.2906130  43.6787920
  37.6437090  29.4706930  44.5112070  38.6483780  30.0480750  43.5369640
  53.7168280  28.7923130  47.9665230  53.1170270  28.8515690  47.2229150
  53.8462180  27.8528110  48.0962080  54.9569730  26.5340950  33.3034940
  54.1262690  26.6017600  33.7742170  55.1341560  27.4245070  33.0001800
  54.4126190  23.2788430  35.8069140  55.1745100  23.8485080  35.9128830
  54.4280560  22.7115630  36.5777450  37.9130530  21.8026360  40.0376800
  37.2579370  21.5338000  39.3936500  38.7508480  21.6930840  39.5878780
  55.4186160  24.1338530  40.6511070  55.7894990  23.3505850  40.2447040
  56.0588090  24.8227630  40.4728370  52.4019920  25.5175110  46.0641390
  51.5879760  25.9472270  46.3267180  52.8094120  26.1293520  45.4510440
  54.4645360  23.5722800  32.9641660  54.7394200  24.4801680  32.8360880
  54.2756100  23.5085330  33.9003650  50.8620970  16.5967650  34.2595290
  51.2805850  16.4098630  33.4191950  50.5557030  15.7446700  34.5698220
  54.3610700  21.5091790  37.9571090  53.9854300  20.7419720  37.5252380
  53.6313820  21.8914490  38.4446020  38.9506460  22.1878930  44.5780140
  39.3179500  22.1006330  45.4576160  38.3817280  21.4245480  44.4787000
  53.7510320  20.6563310  47.5910610  53.5196410  20.4276060  46.6908560
  54.0114870  21.5762860  47.5455500  38.5022460  19.0988020  48.4838560
  37.6078510  19.0654780  48.8232270  39.0420010  19.2974810  49.2489810
  52.1898390  15.8819740  50.3690310  53.0668570  15.8903140  50.7524310
  52.2019230  15.1450580  49.7582660  37.1268610  19.0125290  35.9802130
  36.2232690  19.2755490  35.8053790  37.6109230  19.2836460  35.2002090
  53.6361660  19.7349280  41.2578330  54.1599140  19.2411930  40.6268500
  54.2221080  19.8699640  42.0025900  53.8151380  19.8189150  44.7797880
  52.8654090  19.7852690  44.8942870  53.9964390  20.7289260  44.5447650
  39.6695820  18.0690830  33.8896510  40.3787520  17.6474050  33.4043790
  38.9535760  18.1366060  33.2579860  39.3169980  14.1230160  32.9299160
  40.0398110  14.6639100  33.2480380  39.5894500  13.8493580  32.0540700
  53.1261630  18.9922630  37.1970740  53.6220750  18.7593500  37.9819620
  52.9277700  18.1534470  36.7808380  39.0062170  13.3736350  42.8321780
  39.6538360  12.8233730  42.3916940  39.4264010  13.6279500  43.6537590
  54.5548790  17.6283580  39.7308420  54.4448070  17.4739620  40.6690690
  55.3156380  17.1004520  39.4883830  52.9014510  13.5677710  46.1891420
  53.5386730  14.1811850  46.5550610  53.0489400  13.6038370  45.2440650
  55.4439060  15.4591500  32.9714560  56.3688370  15.3272680  32.7632850
  55.4214850  15.5384320  33.9251010  55.5177550  16.2302160  35.5971270
  54.7229050  16.1647280  36.1264180  55.7220830  17.1652800  35.5856620
  38.7594170  13.5292020  45.5747100  38.4108990  13.9855840  46.3405280
  38.4281870  12.6349150  45.6569530  40.3658540  26.7011620  49.7400290
  40.3228170  26.3304530  50.6214750  40.4969550  27.6389190  49.8802110
  44.0664570  28.2571210  45.3410010  43.8255930  28.5245770  44.4540530
  45.0067210  28.4276940  45.3960870  46.2718990  14.7203900  49.0966520
  46.2107880  15.3125730  49.8461930  47.2119370  14.6129860  48.9516780
  48.9093550  14.3773960  48.7358810  49.5233960  14.6953250  48.0739890
  49.4543110  13.8922550  49.3554670  55.3268730  30.2765590  46.1420650
  54.8327010  30.6734460  45.4247780  54.7182020  29.6514800  46.5357930
  39.4314810  13.0568220  48.8497870  39.9797800  12.8756270  48.0863980
  39.4970120  12.2662330  49.3854180  40.2046570  29.6473870  46.8598070
  39.6106890  29.5158570  47.5988110  40.1970410  28.8112010  46.3940170
  49.6501590  12.9406100  45.0628100  48.7761430  13.2741210  44.8601030
  49.5412340  12.4679280  45.8879970  50.5573570  15.1476970  46.4469820
  50.2286930  14.3328730  46.0671550  51.5055870  15.1046780  46.3235510
  53.0108180  30.9189010  43.4207390  52.5511150  31.6704820  43.0465410
  52.3820640  30.1995480  43.3622190  39.8358800  27.0132250  45.8106110
  39.1092860  26.3937540  45.7432060  39.8967950  27.4072860  44.9404190
  43.4403900  29.2277250  42.5955520  43.9568920  28.6164610  42.0703780
  44.0901280  29.7306030  43.0866530  46.1799400  30.1185740  43.4224500
  46.4677210  29.8640040  42.5457510  46.6922620  29.5663100  44.0130070
  47.3976410  13.8575940  44.0021010  46.6148200  14.3321440  44.2817770
  47.1039340  12.9530770  43.8934190  51.9497480  14.5599040  42.0470100
  52.3905570  14.5044140  41.1991700  51.6805070  15.4757050  42.1180280
  53.8136050  14.1914280  40.0578920  53.7524450  13.2475500  39.9109940
  54.5928080  14.2994370  40.6032380  38.7416820  14.1623420  36.5234730
  39.4996180  14.2752300  35.9498760  38.2793990  14.9992620  36.4778160
  45.2830630  16.2762690  39.5137040  44.4705140  15.9019580  39.1732920
  45.7872270  15.5207770  39.8158230  49.7855610  12.9405140  40.7520110
  50.3884980  13.5125350  41.2268630  49.0448600  13.5044580  40.5294010
  52.9290210  13.3426700  36.0260390  53.1240840  14.2410150  36.2927820
  52.1420080  13.1113780  36.5193340  41.1141970  14.6887470  35.0636700
  41.6434730  13.9017270  34.9344650  41.7470290  15.3678660  35.2972230
  43.3079810  14.4262610  38.1182090  42.6782550  13.7249920  38.2852220
  42.7684950  15.1866740  37.9015250  46.2471760  31.0401840  50.7892700
  47.1739070  30.8046110  50.8328660  46.2322190  31.8673840  50.3078730
  43.4335370  13.7046590  50.5534580  43.1519640  14.2080190  49.7895400
  43.8155070  12.9068340  50.1876710  50.0350830  13.1200170  51.1315050
  49.9216280  13.4394780  52.0266570  50.8520570  13.5212680  50.8352330
  52.8149320  30.2671700  50.6133740  53.6074640  29.7720930  50.4059700
  53.1082470  30.9461840  51.2209350  48.9408980  21.1392640  21.4949790
  48.8603030  20.2247250  21.2241500  48.5273400  21.6359710  20.7889500
  47.0727020  22.9171660  23.3759060  46.2969120  22.4372100  23.6657630
  47.7239950  22.2377310  23.2015220  41.0892850  23.2291470  24.2534820
  40.2577730  22.9740180  24.6531330  41.6973830  23.3002240  24.9892740
  51.0934450  27.3231850  22.1558190  50.6315980  26.5519090  22.4845360
  51.9060000  27.3497920  22.6610640  39.4984800  18.1893360  18.0377210
  38.6101500  18.5309330  17.9357090  39.7825990  17.9893680  17.1458040
  37.4617810  20.7899010  23.9216910  38.0333920  20.0221210  23.9220550
  37.4619350  21.0887770  23.0123520  47.3197760  29.6089860  21.7762180
  46.7009200  30.0647360  21.2056620  48.1749540  29.7641320  21.3751880
  46.5136010  25.5928850  23.3829220  46.4444290  24.6518790  23.2218350
  47.2755870  25.6830260  23.9551790  38.7042680  16.1983370  25.7085840
  38.5245520  15.3009120  25.9888600  38.3022760  16.7455240  26.3832790
  47.5441180  18.3999230  23.6098150  47.9206000  17.5271110  23.4971820
  47.4460690  18.7357930  22.7188590  41.6746190  16.7724860  19.0715590
  41.7812940  17.6728590  19.3784350  40.7638550  16.7242830  18.7810240
  51.3265300  15.8949670  20.5426490  52.1474920  15.4046240  20.5851970
  51.3599380  16.4847330  21.2958330  39.3229350  18.6943870  24.3168180
  40.0039460  18.9582240  24.9355580  39.0077400  17.8544740  24.6506190
  43.5153920  19.7411230  23.4040770  44.0232140  20.2392200  24.0445790
  44.0467160  18.9646430  23.2280130  55.6164850  17.9116420  27.1070120
  54.9117020  18.2998130  26.5885230  55.8822770  18.6066710  27.7091050
  41.7990020  14.3809790  27.6704190  41.8008460  14.8982180  26.8650090
  40.9694330  13.9039970  27.6474120  48.1861110  24.4929100  19.1694090
  47.5678380  24.9578550  18.6056810  48.6984360  25.1856580  19.5863600
  43.0492870  24.0204970  25.8477690  42.7162250  24.6473890  26.4898760
  43.2259550  24.5466850  25.0679360  51.5626780  17.8350050  23.3154030
  50.8582350  18.1234940  23.8957140  51.9238940  18.6450160  22.9553590
  41.4805350  16.0919750  25.6774640  41.8222160  16.9361800  25.3828510
  40.5421160  16.2403490  25.7939980  37.5544310  25.1785630  16.5433720
  37.1772290  25.6672730  15.8118620  37.8117380  25.8510910  17.1740250
  53.1789560  27.4525180  25.5781510  52.4953080  28.1224290  25.5698180
  53.7183850  27.6505830  24.8126370  54.6313700  17.2804840  23.7063240
  53.6838610  17.3143820  23.8378670  54.9563690  18.0943790  24.0912600
  45.1633240  13.5802020  22.0019230  45.4708220  13.0248910  21.2854730
  44.2333940  13.7146480  21.8192220  50.7148300  29.2969310  24.2926690
  50.7275460  28.8931600  23.4248950  50.1623520  30.0716600  24.1888120
  52.0093720  26.0185530  19.3816860  51.8990050  25.0759860  19.5066280
  52.0061970  26.3801170  20.2679620  50.1133740  24.1999150  25.6209300
  50.5302530  23.9859260  24.7862760  50.8373560  24.4571940  26.1917920
  47.5514000  21.6450850  18.7379350  46.6243280  21.5788230  18.9667820
  47.7038820  22.5830980  18.6234590  47.5383080  17.9167850  15.7346510
  46.5986750  18.0781810  15.8198970  47.8566340  18.6353530  15.1882500
  54.0595840  22.5986370  25.7125540  53.2314470  22.6679460  25.2375670
  54.6546320  23.1840680  25.2441370  51.5811290  23.2071150  19.2414600
  50.9623710  22.8690700  18.5940900  51.5635740  22.5630910  19.9493790
  51.0237850  19.3855690  26.6580410  50.6109030  20.2109400  26.9120400
  50.2913800  18.8000730  26.4656770  43.1570640  22.1715590  21.5199080
  42.7527640  21.4592840  21.0244980  43.2433760  21.8268830  22.4087120
  43.6252340  25.8583150  23.6838290  43.3280630  25.2528620  23.0046070
  44.5752160  25.8960460  23.5727650  41.8699260  18.9458800  25.2998120
  42.4213850  19.0554140  24.5251370  42.3842770  19.3196400  26.0153350
  49.7575990  22.4457960  16.2487350  50.1969270  21.6080390  16.1025170
  50.4704410  23.0787360  16.3351490  41.5441990  22.4678160  28.9103460
  41.4049760  23.3400960  29.2790860  40.6623350  22.1250970  28.7651400
  47.8671370  27.3854030  20.2168590  48.3067280  28.1278360  19.8023980
  47.8058260  27.6280600  21.1407550  53.3393130  13.7000770  14.5628390
  53.0265790  13.7927600  15.4627460  54.1005600  14.2781800  14.5125820
  39.8575270  21.0660570  19.0205730  39.7372870  21.7922660  18.4087000
  39.5476160  20.2963480  18.5433640  55.2937160  29.1926960  32.4152780
  55.7696880  29.6709850  33.0941860  55.9144320  29.1244450  31.6898280
  38.7408270  25.9375900  21.2380550  38.3336350  26.0790490  20.3834150
  39.6321280  25.6536060  21.0351760  54.6970410  26.3839810  29.5752790
  54.8233470  26.1451690  28.6569970  54.7391790  25.5524350  30.0474870
  50.5341550  30.3723150  17.5731600  50.3742690  30.0826090  18.4713430
  50.3688260  29.5963280  17.0376830  43.0129930  30.1521680  19.3503220
  42.8372410  29.2357220  19.1371020  42.1585670  30.5108970  19.5901020
  50.2367680  27.8810710  16.1329600  49.5432840  27.8788000  15.4731880
  50.9790540  27.4570030  15.7023770  49.8017610  29.5073420  20.2078090
  50.2574560  28.7262800  20.5216710  50.1410130  30.2180240  20.7519270
  54.5494420  18.4372270  30.5402530  53.9338690  18.9451940  30.0117990
  54.2290840  17.5370600  30.4828470  42.3238930  14.4095640  22.4029400
  41.8807080  15.1905180  22.0713920  42.8823920  14.7325530  23.1100340
  46.6108740  17.2764160  28.0064720  46.1488110  17.4847180  28.8184660
  46.2086850  16.4623510  27.7035390  51.6113250  18.4973110  29.1361380
  50.7606840  18.1978860  29.4570450  51.4515040  18.7415120  28.2245200
  48.7062960  19.9974860  31.2360170  49.0316370  19.1638610  30.8962400
  49.4943290  20.5203380  31.3838500  45.4397750  14.0306340  17.2835230
  44.8151930  14.0266210  18.0088540  45.3527870  13.1637300  16.8871200
  44.3614830  14.9542970  24.2619000  44.6587160  15.8605800  24.1811020
  44.9100390  14.4661750  23.6478570  42.1153150  19.5329210  20.1310650
  41.8894070  19.3166380  21.0357270  41.3345680  19.9657670  19.7856620
  49.3450910  19.5392580  18.7301300  48.7459800  20.2628380  18.5464920
  49.8930520  19.4769360  17.9477750  44.5552360  20.4314790  30.7970920
  44.4595960  19.4909520  30.6471320  45.3984340  20.6529860  30.4018990
  47.9515780  18.1756120  20.7604580  48.3445350  18.4928320  19.9473270
  48.3132630  17.2968000  20.8749100  39.6862900  16.8428460  28.9504700
  39.2926290  17.6903670  29.1577480  38.9981300  16.2054830  29.1413340
  46.2607950  16.9263430  32.0201440  45.5706270  16.7335630  32.6547530
  47.0040250  17.2098070  32.5525740  36.9879950  14.7656920  22.9834780
  36.6993000  15.3359780  23.6959760  37.7325710  14.2861370  23.3466010
  37.1750180  18.7077040  14.1937500  37.0924850  19.6507800  14.3352490
  36.8233240  18.5651950  13.3149850  48.5370920  20.7661870  24.8555360
  47.8052040  21.2748680  25.2045460  48.1395260  19.9491850  24.5544140
  44.9748310  17.4416070  23.2607850  44.9784370  17.0006020  22.4112390
  45.8699430  17.7633400  23.3679670  40.8250690  17.3242560  22.2202060
  40.4850740  17.8017790  22.9769110  40.0628010  16.8707680  21.8603160
  45.0368460  18.4428150  16.2514610  45.1581280  18.4014630  17.2000430
  44.6516970  19.3052300  16.0961340  48.9996830  16.2195550  24.2678300
  49.0169570  16.6704200  25.1120150  48.7512410  15.3201190  24.4811740
  44.0489960  20.7529290  15.6497910  43.4806860  20.3047540  15.0233820
  44.7578960  21.1122070  15.1163060  52.4267580  13.6327730  30.1064680
  52.7513350  12.9017390  30.6322660  52.4624090  13.3141370  29.2045670
  39.1259140  24.6541310  29.5264640  38.7413930  24.0134980  30.1247600
  39.4371330  25.3577430  30.0959370  45.2756280  21.5017850  25.0073260
  45.6426410  21.0276420  25.7534600  45.0861340  22.3759420  25.3481600
  38.1396770  16.2461540  21.1366730  37.8543690  15.8817210  21.9745350
  38.0775630  15.5142000  20.5229870  43.0655650  20.5426490  27.3257470
  42.7612720  21.4218470  27.5507830  44.0202110  20.6026280  27.3614910
  41.5937440  24.7487480  17.9224320  40.8199700  24.2085100  17.7623040
  42.3232070  24.2294090  17.5842080  52.3525420  23.7452840  23.7150710
  53.0724540  24.2408130  23.3246820  52.1507240  23.0670730  23.0704580
  47.8135360  15.1390800  17.8580100  46.9999970  14.6403970  17.7825410
  47.6197310  15.9789050  17.4416450  47.7344220  23.8161900  29.6019710
  47.6681530  22.8957570  29.3477300  47.1049360  23.9137340  30.3164350
  50.5283750  19.5110450  16.1542260  51.4163370  19.8227680  15.9793600
  50.4988840  18.6382700  15.7622840  41.6374840  24.4167860  21.5603130
  42.1553510  23.6136120  21.5060020  41.1858860  24.3547000  22.4019960
  46.5244340  25.6834140  16.8330430  46.8660040  26.4276370  16.3373750
  45.6957050  25.9965260  17.1955260  39.1219380  21.3829230  28.4728830
  38.7634320  22.0483080  29.0602170  38.8273940  20.5512780  28.8441450
  42.3232500  21.8413470  31.3568380  42.0232640  21.9870650  30.4596200
  43.0943740  21.2818760  31.2641770  47.6660950  26.6382470  29.3523510
  47.6805490  25.7063430  29.1342420  46.9586050  26.7242230  29.9913280
  52.7998020  20.8222290  15.6222120  52.7161740  21.2536510  14.7718560
  53.5192210  21.2820640  16.0548940  53.8772160  23.2789810  28.6992090
  53.1520350  23.8718590  28.5021480  54.4047620  23.2713350  27.9005460
  53.8285270  27.6764550  18.3504250  53.1861430  27.0220170  18.6247970
  53.4415930  28.0819640  17.5744920  49.4071750  25.0049980  22.1975940
  49.7595570  24.4078110  21.5377310  48.5234080  24.6794210  22.3684190
  45.4935030  25.7647670  19.6046350  46.1806160  26.3116880  19.9853940
  44.7067450  26.3088400  19.6395960  37.6327430  21.3820490  15.0963430
  38.5022280  21.6645290  15.3799350  37.1417750  22.1956360  14.9812240
  44.7962240  22.7693700  19.2171710  45.2525020  23.5798950  19.4431900
  44.4450450  22.4516840  20.0490200  40.6974020  13.1131350  19.6894230
  40.5688650  13.1049250  20.6379150  39.8736040  13.4514440  19.3385240
  48.3726930  26.2832390  25.1641460  49.0149160  25.5825550  25.2773630
  48.8976280  27.0630830  24.9838350  52.2182650  26.5681010  14.8880600
  51.9920230  25.8511450  15.4805240  51.8278850  26.3193450  14.0502350
  50.1464550  27.0827290  28.3677520  50.4820790  27.6693980  29.0455440
  49.2264890  26.9520000  28.5975310  37.9998680  30.5947870  15.6625060
  38.3596320  31.1937210  15.0082330  37.8591020  31.1407760  16.4360090
  37.6967950  14.8722470  29.1500930  36.9826470  15.0719390  29.7553540
  38.1162990  14.0962040  29.5215730  51.7998900  24.4852950  16.5494760
  51.5120600  24.9465640  17.3372640  52.5951070  24.0250720  16.8178980
  44.0167300  27.9779070  16.4798730  44.0077400  28.7108760  15.8643240
  43.0965660  27.7310650  16.5725690  39.6173940  23.1993960  17.2245490
  39.0101890  23.9392860  17.2340790  40.0923290  23.2893320  16.3983690
  49.1906730  17.3644780  26.9002380  49.5587550  16.5439990  27.2281950
  48.3304930  17.4246670  27.3158030  52.5568760  16.3201720  17.7089940
  51.9281920  16.4247390  16.9948170  52.0620680  16.5398500  18.4983820
  47.0026900  28.0407310  15.1423920  47.1038880  27.8371300  14.2125900
  46.1028640  27.7865590  15.3471700  44.5252790  18.5987670  19.1247820
  43.8168940  19.0674010  19.5661430  44.8097270  17.9409680  19.7593010
  46.1508720  20.0184370  27.1240350  46.6493970  20.4930190  27.7892200
  46.2931670  19.0947890  27.3310380  48.5568220  15.3238330  20.5643610
  48.4336000  15.3424460  19.6153120  49.5052780  15.3717270  20.6842010
  45.6445010  30.5593630  19.8371590  45.8986510  30.5215020  18.9150960
  44.6957490  30.4326960  19.8299840  42.7287810  16.9072750  16.4998530
  43.5778340  17.3442900  16.4338720  42.3619080  17.2193010  17.3270590
  53.3575580  16.2352330  27.9668740  52.8549180  16.9757730  28.3062550
  54.1732240  16.6236330  27.6505530  51.6497590  21.4785510  21.4130100
  50.7087730  21.4935740  21.5877790  51.9641660  20.6921470  21.8590400
  41.6279230  23.1605110  14.9734060  42.3942500  23.0486470  15.5359490
  41.7053920  22.4643080  14.3210830  40.3225990  20.5930180  15.6566950
  40.4029580  19.6457690  15.7684350  41.2145740  20.9237060  15.7627610
  53.6523170  28.6494360  23.0884360  53.7770590  29.4725530  23.5608170
  54.5188730  28.4385090  22.7408510  41.1240700  30.7425570  22.7601490
  41.8603180  30.1941030  23.0310060  41.5081620  31.6081580  22.6207480
  38.0086180  26.8099140  18.6343000  37.0825960  27.0520280  18.6248410
  38.4742610  27.6373400  18.5127750  44.2343010  29.9155880  14.5827060
  45.0271620  30.2044710  14.1308850  43.7147360  29.4848050  13.9039540
  48.9663610  26.0351510  31.8962480  48.3601770  26.0583110  31.1558230
  48.6617720  25.3034550  32.4329730  53.2873180  29.1426010  16.0063800
  53.0014690  28.7291150  15.1917980  53.0892730  30.0713720  15.8864320
  44.7520410  25.1359290  14.4469410  44.6471050  24.5211640  15.1730790
  44.5844630  24.6125180  13.6632420  44.9034730  23.8216090  30.4258640
  44.1380400  24.3901090  30.3413310  45.0850690  23.5292300  29.5326870
  47.9923140  24.1979320  15.0511400  47.4433240  24.6448620  15.6954140
  48.6142400  23.6928570  15.5749070  52.0458080  25.5521420  30.9833660
  52.7867550  25.8897180  30.4801120  51.2830760  25.7213480  30.4303430
  39.8819870  20.5574690  31.7873190  39.9225210  20.2588560  32.6958420
  40.7365370  20.9582300  31.6280710  43.6598260  23.1570240  16.9476700
  44.0814680  22.9910110  17.7908090  43.7849100  22.3470470  16.4531840
  41.8225680  19.1366790  29.7547680  41.2922140  18.6457740  29.1271020
  42.4913750  19.5650990  29.2205610  46.1725900  22.1807850  14.1953800
  46.6931560  21.4656870  13.8294950  46.8194300  22.8193720  14.4954310
  50.7203740  23.6036250  29.5188870  51.1344760  23.7581330  30.3679290
  49.7854740  23.7291470  29.6814650  51.1925910  20.9432410  31.5228020
  51.7746680  20.1884730  31.4348500  51.3687680  21.4739850  30.7459500
  42.3097980  16.1029160  29.8344970  42.2154850  15.4849910  29.1095840
  41.7295370  16.8295450  29.6074880  45.0759420  14.6602400  26.8672360
  44.6276720  14.6826660  26.0217910  44.4424620  14.2621420  27.4642660
  45.4818970  23.5556730  27.4884800  45.9007080  24.3989460  27.3161040
  44.5627600  23.6928770  27.2591580  47.8182870  21.2872910  28.8722640
  47.9379080  20.6914050  29.6117480  48.6776870  21.3242600  28.4523940
  50.1570770  21.8410100  27.4485150  49.6305990  22.3652720  26.8450290
  50.5002110  22.4737490  28.0794880  42.5557160  19.2303470  13.8934860
  42.3546220  18.3670830  14.2548200  42.3849210  19.1436830  12.9556460
  44.5851640  17.8294260  30.1298460  45.1751330  17.5210110  30.8176280
  43.7671880  17.3574010  30.2858360  49.4045070  17.4460070  30.3631480
  48.7160590  16.7841610  30.2981470  50.1251090  16.9998340  30.8079940
  50.0345470  14.0411700  16.4221740  50.3147760  13.1979600  16.7781160
  49.2611200  14.2734810  16.9360490  41.3539960  16.3304090  13.8812740
  41.6565860  16.3371520  12.9731890  42.0934550  15.9801950  14.3780400
  44.5724890  15.2738710  14.8668940  44.2246890  14.5962700  14.2871390
  44.7737660  14.8128220  15.6812330  46.7373930  30.2619460  16.4855540
  47.6324720  30.6004430  16.5074300  46.7691560  29.5398870  15.8579820
  40.3770090  25.6346510  14.7142540  40.8144960  26.1776180  15.3700120
  40.8617820  24.8093460  14.7238880  37.5915890  28.4235540  22.1662800
  37.9218900  27.5556600  21.9341440  38.0206890  28.6294060  22.9967760
  42.1877810  26.7544550  19.8264770  41.8873350  26.6309520  20.7268680
  42.0815300  25.8953140  19.4180500  53.7168280  28.7923130  29.1921740
  53.1170270  28.8515690  28.4485660  53.8462180  27.8528110  29.3218590
  54.9569730  26.5340950  14.5291450  54.1262690  26.6017600  14.9998680
  55.1341560  27.4245070  14.2258310  54.4126190  23.2788430  17.0325650
  55.1745100  23.8485080  17.1385340  54.4280560  22.7115630  17.8033960
  37.9130530  21.8026360  21.2633310  37.2579370  21.5338000  20.6193010
  38.7508480  21.6930840  20.8135290  55.4186160  24.1338530  21.8767580
  55.7894990  23.3505850  21.4703550  56.0588090  24.8227630  21.6984880
  52.4019920  25.5175110  27.2897900  51.5879760  25.9472270  27.5523690
  52.8094120  26.1293520  26.6766950  54.4645360  23.5722800  14.1898170
  54.7394200  24.4801680  14.0617390  54.2756100  23.5085330  15.1260160
  50.8620970  16.5967650  15.4851800  51.2805850  16.4098630  14.6448460
  50.5557030  15.7446700  15.7954730  54.3610700  21.5091790  19.1827600
  53.9854300  20.7419720  18.7508890  53.6313820  21.8914490  19.6702530
  38.9506460  22.1878930  25.8036650  39.3179500  22.1006330  26.6832670
  38.3817280  21.4245480  25.7043510  53.7510320  20.6563310  28.8167120
  53.5196410  20.4276060  27.9165070  54.0114870  21.5762860  28.7712010
  38.5022460  19.0988020  29.7095070  37.6078510  19.0654780  30.0488780
  39.0420010  19.2974810  30.4746320  52.1898390  15.8819740  31.5946820
  53.0668570  15.8903140  31.9780820  52.2019230  15.1450580  30.9839170
  37.1268610  19.0125290  17.2058640  36.2232690  19.2755490  17.0310300
  37.6109230  19.2836460  16.4258600  53.6361660  19.7349280  22.4834840
  54.1599140  19.2411930  21.8525010  54.2221080  19.8699640  23.2282410
  53.8151380  19.8189150  26.0054390  52.8654090  19.7852690  26.1199380
  53.9964390  20.7289260  25.7704160  39.6695820  18.0690830  15.1153020
  40.3787520  17.6474050  14.6300300  38.9535760  18.1366060  14.4836370
  39.3169980  14.1230160  14.1555670  40.0398110  14.6639100  14.4736890
  39.5894500  13.8493580  13.2797210  53.1261630  18.9922630  18.4227250
  53.6220750  18.7593500  19.2076130  52.9277700  18.1534470  18.0064890
  39.0062170  13.3736350  24.0578290  39.6538360  12.8233730  23.6173450
  39.4264010  13.6279500  24.8794100  54.5548790  17.6283580  20.9564930
  54.4448070  17.4739620  21.8947200  55.3156380  17.1004520  20.7140340
  52.9014510  13.5677710  27.4147930  53.5386730  14.1811850  27.7807120
  53.0489400  13.6038370  26.4697160  55.4439060  15.4591500  14.1971070
  56.3688370  15.3272680  13.9889360  55.4214850  15.5384320  15.1507520
  55.5177550  16.2302160  16.8227780  54.7229050  16.1647280  17.3520690
  55.7220830  17.1652800  16.8113130  52.4595970  30.2693710  20.8166170
  53.0555040  29.9478280  20.1400590  52.7174120  29.7965530  21.6079440
  38.7594170  13.5292020  26.8003610  38.4108990  13.9855840  27.5661790
  38.4281870  12.6349150  26.8826040  46.2718990  14.7203900  30.3223030
  46.2107880  15.3125730  31.0718440  47.2119370  14.6129860  30.1773290
  48.9093550  14.3773960  29.9615320  49.5233960  14.6953250  29.2996400
  49.4543110  13.8922550  30.5811180  55.3268730  30.2765590  27.3677160
  54.8327010  30.6734460  26.6504290  54.7182020  29.6514800  27.7614440
  39.4314810  13.0568220  30.0754380  39.9797800  12.8756270  29.3120490
  39.4970120  12.2662330  30.6110690  49.6501590  12.9406100  26.2884610
  48.7761430  13.2741210  26.0857540  49.5412340  12.4679280  27.1136480
  50.5573570  15.1476970  27.6726330  50.2286930  14.3328730  27.2928060
  51.5055870  15.1046780  27.5492020  53.0108180  30.9189010  24.6463900
  52.5511150  31.6704820  24.2721920  52.3820640  30.1995480  24.5878700
  47.3976410  13.8575940  25.2277520  46.6148200  14.3321440  25.5074280
  47.1039340  12.9530770  25.1190700  51.9497480  14.5599040  23.2726610
  52.3905570  14.5044140  22.4248210  51.6805070  15.4757050  23.3436790
  53.8136050  14.1914280  21.2835430  53.7524450  13.2475500  21.1366450
  54.5928080  14.2994370  21.8288890  38.1188800  30.3306640  20.2459380
  37.9510840  29.6977320  20.9441270  37.2523310  30.5366040  19.8953570
  38.7416820  14.1623420  17.7491240  39.4996180  14.2752300  17.1755270
  38.2793990  14.9992620  17.7034670  45.2830630  16.2762690  20.7393550
  44.4705140  15.9019580  20.3989430  45.7872270  15.5207770  21.0414740
  49.7855610  12.9405140  21.9776620  50.3884980  13.5125350  22.4525140
  49.0448600  13.5044580  21.7550520  52.9290210  13.3426700  17.2516900
  53.1240840  14.2410150  17.5184330  52.1420080  13.1113780  17.7449850
  39.7251500  29.0239870  17.6909520  39.1999120  29.4047900  16.9871480
  39.6496080  29.6490640  18.4119230  41.1141970  14.6887470  16.2893210
  41.6434730  13.9017270  16.1601160  41.7470290  15.3678660  16.5228740
  43.3079810  14.4262610  19.3438600  42.6782550  13.7249920  19.5108730
  42.7684950  15.1866740  19.1271760  54.4816820  30.5827410  19.0123460
  54.6569010  29.8965150  18.3684380  53.7838390  31.1074460  18.6200130
  43.4335370  13.7046590  31.7791090  43.1519640  14.2080190  31.0151910
  43.8155070  12.9068340  31.4133220  42.3244470  30.9722250  16.5658770
  43.0563290  30.6881530  16.0182660  42.5838140  30.7335530  17.4558150
  41.4859260  27.0886980  16.5705100  40.8568140  27.5572080  17.1190930
  41.6007090  26.2436200  17.0051290  50.0350830  13.1200170  32.3571560
  49.9216280  13.4394780  33.2523080  50.8520570  13.5212680  32.0608840
  48.9408980  21.1392640   2.7206300  48.8603030  20.2247250   2.4498010
  48.5273400  21.6359710   2.0146010  47.0727020  22.9171660   4.6015570
  46.2969120  22.4372100   4.8914140  47.7239950  22.2377310   4.4271730
  41.0892850  23.2291470   5.4791330  40.2577730  22.9740180   5.8787840
  41.6973830  23.3002240   6.2149250  51.0934450  27.3231850   3.3814700
  50.6315980  26.5519090   3.7101870  51.9060000  27.3497920   3.8867150
  41.0694110  27.2631560   5.6749350  41.3722150  26.3729300   5.4959570
  41.8137700  27.8201780   5.4471600  37.4617810  20.7899010   5.1473420
  38.0333920  20.0221210   5.1477060  37.4619350  21.0887770   4.2380030
  47.3197760  29.6089860   3.0018690  46.7009200  30.0647360   2.4313130
  48.1749540  29.7641320   2.6008390  46.5136010  25.5928850   4.6085730
  46.4444290  24.6518790   4.4474860  47.2755870  25.6830260   5.1808300
  38.7042680  16.1983370   6.9342350  38.5245520  15.3009120   7.2145110
  38.3022760  16.7455240   7.6089300  47.5441180  18.3999230   4.8354660
  47.9206000  17.5271110   4.7228330  47.4460690  18.7357930   3.9445100
  51.3265300  15.8949670   1.7683000  52.1474920  15.4046240   1.8108480
  51.3599380  16.4847330   2.5214840  39.3229350  18.6943870   5.5424690
  40.0039460  18.9582240   6.1612090  39.0077400  17.8544740   5.8762700
  43.5153920  19.7411230   4.6297280  44.0232140  20.2392200   5.2702300
  44.0467160  18.9646430   4.4536640  55.6164850  17.9116420   8.3326630
  54.9117020  18.2998130   7.8141740  55.8822770  18.6066710   8.9347560
  41.7990020  14.3809790   8.8960700  41.8008460  14.8982180   8.0906600
  40.9694330  13.9039970   8.8730630  43.0492870  24.0204970   7.0734200
  42.7162250  24.6473890   7.7155270  43.2259550  24.5466850   6.2935870
  51.5626780  17.8350050   4.5410540  50.8582350  18.1234940   5.1213650
  51.9238940  18.6450160   4.1810100  41.4805350  16.0919750   6.9031150
  41.8222160  16.9361800   6.6085020  40.5421160  16.2403490   7.0196490
  42.2611970  25.9885770   8.8883380  42.8785970  26.6636850   8.6067830
  41.4005090  26.3973750   8.7970880  53.1789560  27.4525180   6.8038020
  52.4953080  28.1224290   6.7954690  53.7183850  27.6505830   6.0382880
  54.6313700  17.2804840   4.9319750  53.6838610  17.3143820   5.0635180
  54.9563690  18.0943790   5.3169110  45.1633240  13.5802020   3.2275740
  45.4708220  13.0248910   2.5111240  44.2333940  13.7146480   3.0448730
  50.7148300  29.2969310   5.5183200  50.7275460  28.8931600   4.6505460
  50.1623520  30.0716600   5.4144630  50.1133740  24.1999150   6.8465810
  50.5302530  23.9859260   6.0119270  50.8373560  24.4571940   7.4174430
  54.0595840  22.5986370   6.9382050  53.2314470  22.6679460   6.4632180
  54.6546320  23.1840680   6.4697880  51.0237850  19.3855690   7.8836920
  50.6109030  20.2109400   8.1376910  50.2913800  18.8000730   7.6913280
  43.1570640  22.1715590   2.7455590  42.7527640  21.4592840   2.2501490
  43.2433760  21.8268830   3.6343630  43.6252340  25.8583150   4.9094800
  43.3280630  25.2528620   4.2302580  44.5752160  25.8960460   4.7984160
  41.8699260  18.9458800   6.5254630  42.4213850  19.0554140   5.7507880
  42.3842770  19.3196400   7.2409860  51.7137950  29.4315020   8.5717900
  51.2368510  30.2387210   8.3790510  51.0299740  28.7793350   8.7244110
  42.7170770  25.5964840  11.5602600  41.8199300  25.8204810  11.8076000
  42.7423640  25.7199780  10.6114000  41.5441990  22.4678160  10.1359970
  41.4049760  23.3400960  10.5047370  40.6623350  22.1250970   9.9907910
  43.3422340  28.4099860  12.3445120  43.3137770  28.8142810  11.4773550
  43.1787310  27.4810220  12.1816720  55.2937160  29.1926960  13.6409290
  55.7696880  29.6709850  14.3198370  55.9144320  29.1244450  12.9154790
  37.4960640  24.2375710   6.0530880  37.5741060  24.3724480   5.1086600
  38.1102320  23.5291600   6.2459000  38.7408270  25.9375900   2.4637060
  38.3336350  26.0790490   1.6090660  39.6321280  25.6536060   2.2608270
  54.6970410  26.3839810  10.8009300  54.8233470  26.1451690   9.8826480
  54.7391790  25.5524350  11.2731380  48.5587150  30.0867810   9.3704110
  49.0731820  29.9975820  10.1726540  47.7156230  30.4327510   9.6632020
  54.5494420  18.4372270  11.7659040  53.9338690  18.9451940  11.2374500
  54.2290840  17.5370600  11.7084980  37.5520160  25.2789880   8.5925340
  37.7151200  24.8095240   7.7744710  38.0172610  24.7713440   9.2574180
  42.3238930  14.4095640   3.6285910  41.8807080  15.1905180   3.2970430
  42.8823920  14.7325530   4.3356850  46.6108740  17.2764160   9.2321230
  46.1488110  17.4847180  10.0441170  46.2086850  16.4623510   8.9291900
  51.6113250  18.4973110  10.3617890  50.7606840  18.1978860  10.6826960
  51.4515040  18.7415120   9.4501710  48.7062960  19.9974860  12.4616680
  49.0316370  19.1638610  12.1218910  49.4943290  20.5203380  12.6095010
  44.3614830  14.9542970   5.4875510  44.6587160  15.8605800   5.4067530
  44.9100390  14.4661750   4.8735080  44.5552360  20.4314790  12.0227430
  44.4595960  19.4909520  11.8727830  45.3984340  20.6529860  11.6275500
  39.6862900  16.8428460  10.1761210  39.2926290  17.6903670  10.3833990
  38.9981300  16.2054830  10.3669850  46.2607950  16.9263430  13.2457950
  45.5706270  16.7335630  13.8804040  47.0040250  17.2098070  13.7782250
  36.9879950  14.7656920   4.2091290  36.6993000  15.3359780   4.9216270
  37.7325710  14.2861370   4.5722520  48.5370920  20.7661870   6.0811870
  47.8052040  21.2748680   6.4301970  48.1395260  19.9491850   5.7800650
  44.9748310  17.4416070   4.4864360  44.9784370  17.0006020   3.6368900
  45.8699430  17.7633400   4.5936180  40.8250690  17.3242560   3.4458570
  40.4850740  17.8017790   4.2025620  40.0628010  16.8707680   3.0859670
  48.9996830  16.2195550   5.4934810  49.0169570  16.6704200   6.3376660
  48.7512410  15.3201190   5.7068250  52.4267580  13.6327730  11.3321190
  52.7513350  12.9017390  11.8579170  52.4624090  13.3141370  10.4302180
  39.1259140  24.6541310  10.7521150  38.7413930  24.0134980  11.3504110
  39.4371330  25.3577430  11.3215880  45.2756280  21.5017850   6.2329770
  45.6426410  21.0276420   6.9791110  45.0861340  22.3759420   6.5738110
  38.1396770  16.2461540   2.3623240  37.8543690  15.8817210   3.2001860
  38.0775630  15.5142000   1.7486380  43.0655650  20.5426490   8.5513980
  42.7612720  21.4218470   8.7764340  44.0202110  20.6026280   8.5871420
  52.3525420  23.7452840   4.9407220  53.0724540  24.2408130   4.5503330
  52.1507240  23.0670730   4.2961090  47.7344220  23.8161900  10.8276220
  47.6681530  22.8957570  10.5733810  47.1049360  23.9137340  11.5420860
  41.6374840  24.4167860   2.7859640  42.1553510  23.6136120   2.7316530
  41.1858860  24.3547000   3.6276470  39.1219380  21.3829230   9.6985340
  38.7634320  22.0483080  10.2858680  38.8273940  20.5512780  10.0697960
  42.3232500  21.8413470  12.5824890  42.0232640  21.9870650  11.6852710
  43.0943740  21.2818760  12.4898280  47.6660950  26.6382470  10.5780020
  47.6805490  25.7063430  10.3598930  46.9586050  26.7242230  11.2169790
  53.8772160  23.2789810   9.9248600  53.1520350  23.8718590   9.7277990
  54.4047620  23.2713350   9.1261970  49.4071750  25.0049980   3.4232450
  49.7595570  24.4078110   2.7633820  48.5234080  24.6794210   3.5940700
  47.0994850  28.2800040   7.6720520  47.7437070  28.4859420   8.3493940
  47.4624290  27.5188440   7.2191370  48.3726930  26.2832390   6.3897970
  49.0149160  25.5825550   6.5030140  48.8976280  27.0630830   6.2094860
  50.1464550  27.0827290   9.5934030  50.4820790  27.6693980  10.2711950
  49.2264890  26.9520000   9.8231820  37.6967950  14.8722470  10.3757440
  36.9826470  15.0719390  10.9810050  38.1162990  14.0962040  10.7472240
  37.9840540  28.8602730  11.3623970  38.0931660  27.9197470  11.2219360
  37.3321100  29.1257480  10.7137700  45.9753130  27.1318620  12.7622090
  45.6550000  26.4127860  13.3067780  45.3011490  27.8073690  12.8358150
  49.1906730  17.3644780   8.1258890  49.5587550  16.5439990   8.4538460
  48.3304930  17.4246670   8.5414540  46.1508720  20.0184370   8.3496860
  46.6493970  20.4930190   9.0148710  46.2931670  19.0947890   8.5566890
  53.3575580  16.2352330   9.1925250  52.8549180  16.9757730   9.5319060
  54.1732240  16.6236330   8.8762040  51.6497590  21.4785510   2.6386610
  50.7087730  21.4935740   2.8134300  51.9641660  20.6921470   3.0846910
  53.6523170  28.6494360   4.3140870  53.7770590  29.4725530   4.7864680
  54.5188730  28.4385090   3.9665020  41.1240700  30.7425570   3.9858000
  41.8603180  30.1941030   4.2566570  41.5081620  31.6081580   3.8463990
  40.1298980  29.9271640  13.1743580  40.9311710  30.2483690  13.5878980
  39.6150800  29.5667220  13.8963490  48.9663610  26.0351510  13.1218990
  48.3601770  26.0583110  12.3814740  48.6617720  25.3034550  13.6586240
  50.3963980  29.7631800  11.7328400  51.3485730  29.6789820  11.6828640
  50.2492200  30.4273510  12.4062190  37.8496790  22.4145100  12.1179630
  38.3535810  21.8352380  12.6895860  37.1104210  22.6985330  12.6556000
  44.9034730  23.8216090  11.6515150  44.1380400  24.3901090  11.5669820
  45.0850690  23.5292300  10.7583380  52.0458080  25.5521420  12.2090170
  52.7867550  25.8897180  11.7057630  51.2830760  25.7213480  11.6559940
  39.8819870  20.5574690  13.0129700  39.9225210  20.2588560  13.9214930
  40.7365370  20.9582300  12.8537220  41.8225680  19.1366790  10.9804190
  41.2922140  18.6457740  10.3527530  42.4913750  19.5650990  10.4462120
  50.7203740  23.6036250  10.7445380  51.1344760  23.7581330  11.5935800
  49.7854740  23.7291470  10.9071160  51.1925910  20.9432410  12.7484530
  51.7746680  20.1884730  12.6605010  51.3687680  21.4739850  11.9716010
  42.3097980  16.1029160  11.0601480  42.2154850  15.4849910  10.3352350
  41.7295370  16.8295450  10.8331390  45.0759420  14.6602400   8.0928870
  44.6276720  14.6826660   7.2474420  44.4424620  14.2621420   8.6899170
  45.4818970  23.5556730   8.7141310  45.9007080  24.3989460   8.5417550
  44.5627600  23.6928770   8.4848090  47.8182870  21.2872910  10.0979150
  47.9379080  20.6914050  10.8373990  48.6776870  21.3242600   9.6780450
  50.1570770  21.8410100   8.6741660  49.6305990  22.3652720   8.0706800
  50.5002110  22.4737490   9.3051390  43.3326390  29.8609740   9.8299040
  42.7947480  30.5855800   9.5107740  43.5860350  29.3840080   9.0396380
  44.5851640  17.8294260  11.3554970  45.1751330  17.5210110  12.0432790
  43.7671880  17.3574010  11.5114870  49.4045070  17.4460070  11.5887990
  48.7160590  16.7841610  11.5237980  50.1251090  16.9998340  12.0336450
  46.1888600  31.0960950  10.0885690  46.1147300  31.9996090  10.3958060
  45.2867440  30.7772850  10.0607760  37.5915890  28.4235540   3.3919310
  37.9218900  27.5556600   3.1597950  38.0206890  28.6294060   4.2224270
  38.0806100  29.2906130   6.1300940  37.6437090  29.4706930   6.9625090
  38.6483780  30.0480750   5.9882660  53.7168280  28.7923130  10.4178250
  53.1170270  28.8515690   9.6742170  53.8462180  27.8528110  10.5475100
  37.9130530  21.8026360   2.4889820  37.2579370  21.5338000   1.8449520
  38.7508480  21.6930840   2.0391800  55.4186160  24.1338530   3.1024090
  55.7894990  23.3505850   2.6960060  56.0588090  24.8227630   2.9241390
  52.4019920  25.5175110   8.5154410  51.5879760  25.9472270   8.7780200
  52.8094120  26.1293520   7.9023460  38.9506460  22.1878930   7.0293160
  39.3179500  22.1006330   7.9089180  38.3817280  21.4245480   6.9300020
  53.7510320  20.6563310  10.0423630  53.5196410  20.4276060   9.1421580
  54.0114870  21.5762860   9.9968520  38.5022460  19.0988020  10.9351580
  37.6078510  19.0654780  11.2745290  39.0420010  19.2974810  11.7002830
  52.1898390  15.8819740  12.8203330  53.0668570  15.8903140  13.2037330
  52.2019230  15.1450580  12.2095680  53.6361660  19.7349280   3.7091350
  54.1599140  19.2411930   3.0781520  54.2221080  19.8699640   4.4538920
  53.8151380  19.8189150   7.2310900  52.8654090  19.7852690   7.3455890
  53.9964390  20.7289260   6.9960670  39.0062170  13.3736350   5.2834800
  39.6538360  12.8233730   4.8429960  39.4264010  13.6279500   6.1050610
  54.5548790  17.6283580   2.1821440  54.4448070  17.4739620   3.1203710
  55.3156380  17.1004520   1.9396850  52.9014510  13.5677710   8.6404440
  53.5386730  14.1811850   9.0063630  53.0489400  13.6038370   7.6953670
  38.7594170  13.5292020   8.0260120  38.4108990  13.9855840   8.7918300
  38.4281870  12.6349150   8.1082550  40.3658540  26.7011620  12.1913310
  40.3228170  26.3304530  13.0727770  40.4969550  27.6389190  12.3315130
  44.0664570  28.2571210   7.7923030  43.8255930  28.5245770   6.9053550
  45.0067210  28.4276940   7.8473890  46.2718990  14.7203900  11.5479540
  46.2107880  15.3125730  12.2974950  47.2119370  14.6129860  11.4029800
  48.9093550  14.3773960  11.1871830  49.5233960  14.6953250  10.5252910
  49.4543110  13.8922550  11.8067690  55.3268730  30.2765590   8.5933670
  54.8327010  30.6734460   7.8760800  54.7182020  29.6514800   8.9870950
  39.4314810  13.0568220  11.3010890  39.9797800  12.8756270  10.5377000
  39.4970120  12.2662330  11.8367200  40.2046570  29.6473870   9.3111090
  39.6106890  29.5158570  10.0501130  40.1970410  28.8112010   8.8453190
  49.6501590  12.9406100   7.5141120  48.7761430  13.2741210   7.3114050
  49.5412340  12.4679280   8.3392990  50.5573570  15.1476970   8.8982840
  50.2286930  14.3328730   8.5184570  51.5055870  15.1046780   8.7748530
  53.0108180  30.9189010   5.8720410  52.5511150  31.6704820   5.4978430
  52.3820640  30.1995480   5.8135210  39.8358800  27.0132250   8.2619130
  39.1092860  26.3937540   8.1945080  39.8967950  27.4072860   7.3917210
  43.4403900  29.2277250   5.0468540  43.9568920  28.6164610   4.5216800
  44.0901280  29.7306030   5.5379550  46.1799400  30.1185740   5.8737520
  46.4677210  29.8640040   4.9970530  46.6922620  29.5663100   6.4643090
  47.3976410  13.8575940   6.4534030  46.6148200  14.3321440   6.7330790
  47.1039340  12.9530770   6.3447210  51.9497480  14.5599040   4.4983120
  52.3905570  14.5044140   3.6504720  51.6805070  15.4757050   4.5693300
  53.8136050  14.1914280   2.5091940  53.7524450  13.2475500   2.3622960
  54.5928080  14.2994370   3.0545400  45.2830630  16.2762690   1.9650060
  44.4705140  15.9019580   1.6245940  45.7872270  15.5207770   2.2671250
  49.7855610  12.9405140   3.2033130  50.3884980  13.5125350   3.6781650
  49.0448600  13.5044580   2.9807030  46.2471760  31.0401840  13.2405720
  47.1739070  30.8046110  13.2841680  46.2322190  31.8673840  12.7591750
  43.4335370  13.7046590  13.0047600  43.1519640  14.2080190  12.2408420
  43.8155070  12.9068340  12.6389730  50.0350830  13.1200170  13.5828070
  49.9216280  13.4394780  14.4779590  50.8520570  13.5212680  13.2865350
  52.8149320  30.2671700  13.0646760  53.6074640  29.7720930  12.8572720
  53.1082470  30.9461840  13.6722370  47.0727020   4.1428170  60.9246040
  46.2969120   3.6628610  61.2144610  47.7239950   3.4633820  60.7502200
  41.0892850   4.4547980  61.8021800  40.2577730   4.1996690  62.2018310
  41.6973830   4.5258750  62.5379720  51.0934450   8.5488360  59.7045170
  50.6315980   7.7775600  60.0332340  51.9060000   8.5754430  60.2097620
  41.0694110   8.4888070  61.9979820  41.3722150   7.5985810  61.8190040
  41.8137700   9.0458290  61.7702070  47.3197760  10.8346370  59.3249160
  46.7009200  11.2903870  58.7543600  48.1749540  10.9897830  58.9238860
  46.5136010   6.8185360  60.9316200  46.4444290   5.8775300  60.7705330
  47.2755870   6.9086770  61.5038770  48.1861110   5.7185610  56.7181070
  47.5678380   6.1835060  56.1543790  48.6984360   6.4113090  57.1350580
  37.5544310   6.4042140  54.0920700  37.1772290   6.8929240  53.3605600
  37.8117380   7.0767420  54.7227230  53.1789560   8.6781690  63.1268490
  52.4953080   9.3480800  63.1185160  53.7183850   8.8762340  62.3613350
  50.7148300  10.5225820  61.8413670  50.7275460  10.1188110  60.9735930
  50.1623520  11.2973110  61.7375100  52.0093720   7.2442040  56.9303840
  51.8990050   6.3016370  57.0553260  52.0061970   7.6057680  57.8166600
  47.5514000   2.8707360  56.2866330  46.6243280   2.8044740  56.5154800
  47.7038820   3.8087490  56.1721570  54.0595840   3.8242880  63.2612520
  53.2314470   3.8935970  62.7862650  54.6546320   4.4097190  62.7928350
  51.5811290   4.4327660  56.7901580  50.9623710   4.0947210  56.1427880
  51.5635740   3.7887420  57.4980770  43.1570640   3.3972100  59.0686060
  42.7527640   2.6849350  58.5731960  43.2433760   3.0525340  59.9574100
  43.6252340   7.0839660  61.2325270  43.3280630   6.4785130  60.5533050
  44.5752160   7.1216970  61.1214630  49.7575990   3.6714470  53.7974330
  50.1969270   2.8336900  53.6512150  50.4704410   4.3043870  53.8838470
  47.8671370   8.6110540  57.7655570  48.3067280   9.3534870  57.3510960
  47.8058260   8.8537110  58.6894530  39.8575270   2.2917080  56.5692710
  39.7372870   3.0179170  55.9573980  39.5476160   1.5219990  56.0920620
  37.4960640   5.4632220  62.3761350  37.5741060   5.5980990  61.4317070
  38.1102320   4.7548110  62.5689470  38.7408270   7.1632410  58.7867530
  38.3336350   7.3047000  57.9321130  39.6321280   6.8792570  58.5838740
  50.5341550  11.5979660  55.1218580  50.3742690  11.3082600  56.0200410
  50.3688260  10.8219790  54.5863810  43.0129930  11.3778190  56.8990200
  42.8372410  10.4613730  56.6858000  42.1585670  11.7365480  57.1388000
  50.2367680   9.1067220  53.6816580  49.5432840   9.1044510  53.0218860
  50.9790540   8.6826540  53.2510750  49.8017610  10.7329930  57.7565070
  50.2574560   9.9519310  58.0703690  50.1410130  11.4436750  58.3006250
  44.0489960   1.9785800  53.1984890  43.4806860   1.5304050  52.5720800
  44.7578960   2.3378580  52.6650040  45.2756280   2.7274360  62.5560240
  45.6426410   2.2532930  63.3021580  45.0861340   3.6015930  62.8968580
  41.5937440   5.9743990  55.4711300  40.8199700   5.4341610  55.3110020
  42.3232070   5.4550600  55.1329060  52.3525420   4.9709350  61.2637690
  53.0724540   5.4664640  60.8733800  52.1507240   4.2927240  60.6191560
  41.6374840   5.6424370  59.1090110  42.1553510   4.8392630  59.0547000
  41.1858860   5.5803510  59.9506940  46.5244340   6.9090650  54.3817410
  46.8660040   7.6532880  53.8860730  45.6957050   7.2221770  54.7442240
  52.7998020   2.0478800  53.1709100  52.7161740   2.4793020  52.3205540
  53.5192210   2.5077150  53.6035920  53.8285270   8.9021060  55.8991230
  53.1861430   8.2476680  56.1734950  53.4415930   9.3076150  55.1231900
  49.4071750   6.2306490  59.7462920  49.7595570   5.6334620  59.0864290
  48.5234080   5.9050720  59.9171170  45.4935030   6.9904180  57.1533330
  46.1806160   7.5373390  57.5340920  44.7067450   7.5344910  57.1882940
  37.6327430   2.6077000  52.6450410  38.5022280   2.8901800  52.9286330
  37.1417750   3.4212870  52.5299220  44.7962240   3.9950210  56.7658690
  45.2525020   4.8055460  56.9918880  44.4450450   3.6773350  57.5977180
  48.3726930   7.5088900  62.7128440  49.0149160   6.8082060  62.8260610
  48.8976280   8.2887340  62.5325330  52.2182650   7.7937520  52.4367580
  51.9920230   7.0767960  53.0292220  51.8278850   7.5449960  51.5989330
  37.9998680  11.8204380  53.2112040  38.3596320  12.4193720  52.5569310
  37.8591020  12.3664270  53.9847070  51.7998900   5.7109460  54.0981740
  51.5120600   6.1722150  54.8859620  52.5951070   5.2507230  54.3665960
  44.0167300   9.2035580  54.0285710  44.0077400   9.9365270  53.4130220
  43.0965660   8.9567160  54.1212670  39.6173940   4.4250470  54.7732470
  39.0101890   5.1649370  54.7827770  40.0923290   4.5149830  53.9470670
  47.0026900   9.2663820  52.6910900  47.1038880   9.0627810  51.7612880
  46.1028640   9.0122100  52.8958680  45.6445010  11.7850140  57.3858570
  45.8986510  11.7471530  56.4637940  44.6957490  11.6583470  57.3786820
  51.6497590   2.7042020  58.9617080  50.7087730   2.7192250  59.1364770
  51.9641660   1.9177980  59.4077380  41.6279230   4.3861620  52.5221040
  42.3942500   4.2742980  53.0846470  41.7053920   3.6899590  51.8697810
  53.6523170   9.8750870  60.6371340  53.7770590  10.6982040  61.1095150
  54.5188730   9.6641600  60.2895490  41.1240700  11.9682080  60.3088470
  41.8603180  11.4197540  60.5797040  41.5081620  12.8338090  60.1694460
  38.0086180   8.0355650  56.1829980  37.0825960   8.2776790  56.1735390
  38.4742610   8.8629910  56.0614730  44.2343010  11.1412390  52.1314040
  45.0271620  11.4301220  51.6795830  43.7147360  10.7104560  51.4526520
  53.2873180  10.3682520  53.5550780  53.0014690   9.9547660  52.7404960
  53.0892730  11.2970230  53.4351300  44.7520410   6.3615800  51.9956390
  44.6471050   5.7468150  52.7217770  44.5844630   5.8381690  51.2119400
  47.9923140   5.4235830  52.5998380  47.4433240   5.8705130  53.2441120
  48.6142400   4.9185080  53.1236050  43.6598260   4.3826750  54.4963680
  44.0814680   4.2166620  55.3395070  43.7849100   3.5726980  54.0018820
  46.1725900   3.4064360  51.7440780  46.6931560   2.6913380  51.3781930
  46.8194300   4.0450230  52.0441290  46.7373930  11.4875970  54.0342520
  47.6324720  11.8260940  54.0561280  46.7691560  10.7655380  53.4066800
  40.3770090   6.8603020  52.2629520  40.8144960   7.4032690  52.9187100
  40.8617820   6.0349970  52.2725860  37.5915890   9.6492050  59.7149780
  37.9218900   8.7813110  59.4828420  38.0206890   9.8550570  60.5454740
  42.1877810   7.9801060  57.3751750  41.8873350   7.8566030  58.2755660
  42.0815300   7.1209650  56.9667480  38.0806100  10.5162640  62.4531410
  37.6437090  10.6963440  63.2855560  38.6483780  11.2737260  62.3113130
  54.9569730   7.7597460  52.0778430  54.1262690   7.8274110  52.5485660
  55.1341560   8.6501580  51.7745290  54.4126190   4.5044940  54.5812630
  55.1745100   5.0741590  54.6872320  54.4280560   3.9372140  55.3520940
  37.9130530   3.0282870  58.8120290  37.2579370   2.7594510  58.1679990
  38.7508480   2.9187350  58.3622270  55.4186160   5.3595040  59.4254560
  55.7894990   4.5762360  59.0190530  56.0588090   6.0484140  59.2471860
  54.4645360   4.7979310  51.7385150  54.7394200   5.7058190  51.6104370
  54.2756100   4.7341840  52.6747140  54.3610700   2.7348300  56.7314580
  53.9854300   1.9676230  56.2995870  53.6313820   3.1171000  57.2189510
  52.4595970  11.4950220  58.3653150  53.0555040  11.1734790  57.6887570
  52.7174120  11.0222040  59.1566420  53.0108180  12.1445520  62.1950880
  52.5511150  12.8961330  61.8208900  52.3820640  11.4251990  62.1365680
  43.4403900  10.4533760  61.3699010  43.9568920   9.8421120  60.8447270
  44.0901280  10.9562540  61.8610020  46.1799400  11.3442250  62.1967990
  46.4677210  11.0896550  61.3201000  46.6922620  10.7919610  62.7873560
  38.1188800  11.5563150  57.7946360  37.9510840  10.9233830  58.4928250
  37.2523310  11.7622550  57.4440550  39.7251500  10.2496380  55.2396500
  39.1999120  10.6304410  54.5358460  39.6496080  10.8747150  55.9606210
  54.4816820  11.8083920  56.5610440  54.6569010  11.1221660  55.9171360
  53.7838390  12.3330970  56.1687110  42.3244470  12.1978760  54.1145750
  43.0563290  11.9138040  53.5669640  42.5838140  11.9592040  55.0045130
  41.4859260   8.3143490  54.1192080  40.8568140   8.7828590  54.6677910
  41.6007090   7.4692710  54.5538270  47.0727020   4.1428170  42.1502550
  46.2969120   3.6628610  42.4401120  47.7239950   3.4633820  41.9758710
  41.0892850   4.4547980  43.0278310  40.2577730   4.1996690  43.4274820
  41.6973830   4.5258750  43.7636230  51.0934450   8.5488360  40.9301680
  50.6315980   7.7775600  41.2588850  51.9060000   8.5754430  41.4354130
  41.0694110   8.4888070  43.2236330  41.3722150   7.5985810  43.0446550
  41.8137700   9.0458290  42.9958580  47.3197760  10.8346370  40.5505670
  46.7009200  11.2903870  39.9800110  48.1749540  10.9897830  40.1495370
  46.5136010   6.8185360  42.1572710  46.4444290   5.8775300  41.9961840
  47.2755870   6.9086770  42.7295280  48.1861110   5.7185610  37.9437580
  47.5678380   6.1835060  37.3800300  48.6984360   6.4113090  38.3607090
  43.0492870   5.2461480  44.6221180  42.7162250   5.8730400  45.2642250
  43.2259550   5.7723360  43.8422850  42.2611970   7.2142280  46.4370360
  42.8785970   7.8893360  46.1554810  41.4005090   7.6230260  46.3457860
  37.5544310   6.4042140  35.3177210  37.1772290   6.8929240  34.5862110
  37.8117380   7.0767420  35.9483740  53.1789560   8.6781690  44.3525000
  52.4953080   9.3480800  44.3441670  53.7183850   8.8762340  43.5869860
  50.7148300  10.5225820  43.0670180  50.7275460  10.1188110  42.1992440
  50.1623520  11.2973110  42.9631610  52.0093720   7.2442040  38.1560350
  51.8990050   6.3016370  38.2809770  52.0061970   7.6057680  39.0423110
  50.1133740   5.4255660  44.3952790  50.5302530   5.2115770  43.5606250
  50.8373560   5.6828450  44.9661410  47.5514000   2.8707360  37.5122840
  46.6243280   2.8044740  37.7411310  47.7038820   3.8087490  37.3978080
  54.0595840   3.8242880  44.4869030  53.2314470   3.8935970  44.0119160
  54.6546320   4.4097190  44.0184860  51.5811290   4.4327660  38.0158090
  50.9623710   4.0947210  37.3684390  51.5635740   3.7887420  38.7237280
  43.1570640   3.3972100  40.2942570  42.7527640   2.6849350  39.7988470
  43.2433760   3.0525340  41.1830610  43.6252340   7.0839660  42.4581780
  43.3280630   6.4785130  41.7789560  44.5752160   7.1216970  42.3471140
  51.7137950  10.6571530  46.1204880  51.2368510  11.4643720  45.9277490
  51.0299740  10.0049860  46.2731090  42.7170770   6.8221350  49.1089580
  41.8199300   7.0461320  49.3562980  42.7423640   6.9456290  48.1600980
  49.7575990   3.6714470  35.0230840  50.1969270   2.8336900  34.8768660
  50.4704410   4.3043870  35.1094980  41.5441990   3.6934670  47.6846950
  41.4049760   4.5657470  48.0534350  40.6623350   3.3507480  47.5394890
  47.8671370   8.6110540  38.9912080  48.3067280   9.3534870  38.5767470
  47.8058260   8.8537110  39.9151040  43.3422340   9.6356370  49.8932100
  43.3137770  10.0399320  49.0260530  43.1787310   8.7066730  49.7303700
  39.8575270   2.2917080  37.7949220  39.7372870   3.0179170  37.1830490
  39.5476160   1.5219990  37.3177130  55.2937160  10.4183470  51.1896270
  55.7696880  10.8966360  51.8685350  55.9144320  10.3500960  50.4641770
  37.4960640   5.4632220  43.6017860  37.5741060   5.5980990  42.6573580
  38.1102320   4.7548110  43.7945980  38.7408270   7.1632410  40.0124040
  38.3336350   7.3047000  39.1577640  39.6321280   6.8792570  39.8095250
  54.6970410   7.6096320  48.3496280  54.8233470   7.3708200  47.4313460
  54.7391790   6.7780860  48.8218360  48.5587150  11.3124320  46.9191090
  49.0731820  11.2232330  47.7213520  47.7156230  11.6584020  47.2119000
  50.5341550  11.5979660  36.3475090  50.3742690  11.3082600  37.2456920
  50.3688260  10.8219790  35.8120320  43.0129930  11.3778190  38.1246710
  42.8372410  10.4613730  37.9114510  42.1585670  11.7365480  38.3644510
  50.2367680   9.1067220  34.9073090  49.5432840   9.1044510  34.2475370
  50.9790540   8.6826540  34.4767260  49.8017610  10.7329930  38.9821580
  50.2574560   9.9519310  39.2960200  50.1410130  11.4436750  39.5262760
  37.5520160   6.5046390  46.1412320  37.7151200   6.0351750  45.3231690
  38.0172610   5.9969950  46.8061160  44.0489960   1.9785800  34.4241400
  43.4806860   1.5304050  33.7977310  44.7578960   2.3378580  33.8906550
  39.1259140   5.8797820  48.3008130  38.7413930   5.2391490  48.8991090
  39.4371330   6.5833940  48.8702860  45.2756280   2.7274360  43.7816750
  45.6426410   2.2532930  44.5278090  45.0861340   3.6015930  44.1225090
  43.0655650   1.7683000  46.1000960  42.7612720   2.6474980  46.3251320
  44.0202110   1.8282790  46.1358400  41.5937440   5.9743990  36.6967810
  40.8199700   5.4341610  36.5366530  42.3232070   5.4550600  36.3585570
  52.3525420   4.9709350  42.4894200  53.0724540   5.4664640  42.0990310
  52.1507240   4.2927240  41.8448070  47.7344220   5.0418410  48.3763200
  47.6681530   4.1214080  48.1220790  47.1049360   5.1393850  49.0907840
  41.6374840   5.6424370  40.3346620  42.1553510   4.8392630  40.2803510
  41.1858860   5.5803510  41.1763450  46.5244340   6.9090650  35.6073920
  46.8660040   7.6532880  35.1117240  45.6957050   7.2221770  35.9698750
  39.1219380   2.6085740  47.2472320  38.7634320   3.2739590  47.8345660
  38.8273940   1.7769290  47.6184940  42.3232500   3.0669980  50.1311870
  42.0232640   3.2127160  49.2339690  43.0943740   2.5075270  50.0385260
  47.6660950   7.8638980  48.1267000  47.6805490   6.9319940  47.9085910
  46.9586050   7.9498740  48.7656770  52.7998020   2.0478800  34.3965610
  52.7161740   2.4793020  33.5462050  53.5192210   2.5077150  34.8292430
  53.8772160   4.5046320  47.4735580  53.1520350   5.0975100  47.2764970
  54.4047620   4.4969860  46.6748950  53.8285270   8.9021060  37.1247740
  53.1861430   8.2476680  37.3991460  53.4415930   9.3076150  36.3488410
  49.4071750   6.2306490  40.9719430  49.7595570   5.6334620  40.3120800
  48.5234080   5.9050720  41.1427680  45.4935030   6.9904180  38.3789840
  46.1806160   7.5373390  38.7597430  44.7067450   7.5344910  38.4139450
  37.6327430   2.6077000  33.8706920  38.5022280   2.8901800  34.1542840
  37.1417750   3.4212870  33.7555730  44.7962240   3.9950210  37.9915200
  45.2525020   4.8055460  38.2175390  44.4450450   3.6773350  38.8233690
  47.0994850   9.5056550  45.2207500  47.7437070   9.7115930  45.8980920
  47.4624290   8.7444950  44.7678350  48.3726930   7.5088900  43.9384950
  49.0149160   6.8082060  44.0517120  48.8976280   8.2887340  43.7581840
  52.2182650   7.7937520  33.6624090  51.9920230   7.0767960  34.2548730
  51.8278850   7.5449960  32.8245840  50.1464550   8.3083800  47.1421010
  50.4820790   8.8950490  47.8198930  49.2264890   8.1776510  47.3718800
  37.9998680  11.8204380  34.4368550  38.3596320  12.4193720  33.7825820
  37.8591020  12.3664270  35.2103580  51.7998900   5.7109460  35.3238250
  51.5120600   6.1722150  36.1116130  52.5951070   5.2507230  35.5922470
  37.9840540  10.0859240  48.9110950  38.0931660   9.1453980  48.7706340
  37.3321100  10.3513990  48.2624680  45.9753130   8.3575130  50.3109070
  45.6550000   7.6384370  50.8554760  45.3011490   9.0330200  50.3845130
  44.0167300   9.2035580  35.2542220  44.0077400   9.9365270  34.6386730
  43.0965660   8.9567160  35.3469180  39.6173940   4.4250470  35.9988980
  39.0101890   5.1649370  36.0084280  40.0923290   4.5149830  35.1727180
  47.0026900   9.2663820  33.9167410  47.1038880   9.0627810  32.9869390
  46.1028640   9.0122100  34.1215190  45.6445010  11.7850140  38.6115080
  45.8986510  11.7471530  37.6894450  44.6957490  11.6583470  38.6043330
  51.6497590   2.7042020  40.1873590  50.7087730   2.7192250  40.3621280
  51.9641660   1.9177980  40.6333890  41.6279230   4.3861620  33.7477550
  42.3942500   4.2742980  34.3102980  41.7053920   3.6899590  33.0954320
  53.6523170   9.8750870  41.8627850  53.7770590  10.6982040  42.3351660
  54.5188730   9.6641600  41.5152000  41.1240700  11.9682080  41.5344980
  41.8603180  11.4197540  41.8053550  41.5081620  12.8338090  41.3950970
  38.0086180   8.0355650  37.4086490  37.0825960   8.2776790  37.3991900
  38.4742610   8.8629910  37.2871240  40.1298980  11.1528150  50.7230560
  40.9311710  11.4740200  51.1365960  39.6150800  10.7923730  51.4450470
  44.2343010  11.1412390  33.3570550  45.0271620  11.4301220  32.9052340
  43.7147360  10.7104560  32.6783030  48.9663610   7.2608020  50.6705970
  48.3601770   7.2839620  49.9301720  48.6617720   6.5291060  51.2073220
  50.3963980  10.9888310  49.2815380  51.3485730  10.9046330  49.2315620
  50.2492200  11.6530020  49.9549170  53.2873180  10.3682520  34.7807290
  53.0014690   9.9547660  33.9661470  53.0892730  11.2970230  34.6607810
  37.8496790   3.6401610  49.6666610  38.3535810   3.0608890  50.2382840
  37.1104210   3.9241840  50.2042980  44.7520410   6.3615800  33.2212900
  44.6471050   5.7468150  33.9474280  44.5844630   5.8381690  32.4375910
  44.9034730   5.0472600  49.2002130  44.1380400   5.6157600  49.1156800
  45.0850690   4.7548810  48.3070360  47.9923140   5.4235830  33.8254890
  47.4433240   5.8705130  34.4697630  48.6142400   4.9185080  34.3492560
  52.0458080   6.7777930  49.7577150  52.7867550   7.1153690  49.2544610
  51.2830760   6.9469990  49.2046920  39.8819870   1.7831200  50.5616680
  39.9225210   1.4845070  51.4701910  40.7365370   2.1838810  50.4024200
  43.6598260   4.3826750  35.7220190  44.0814680   4.2166620  36.5651580
  43.7849100   3.5726980  35.2275330  46.1725900   3.4064360  32.9697290
  46.6931560   2.6913380  32.6038440  46.8194300   4.0450230  33.2697800
  50.7203740   4.8292760  48.2932360  51.1344760   4.9837840  49.1422780
  49.7854740   4.9547980  48.4558140  45.4818970   4.7813240  46.2628290
  45.9007080   5.6245970  46.0904530  44.5627600   4.9185280  46.0335070
  47.8182870   2.5129420  47.6466130  47.9379080   1.9170560  48.3860970
  48.6776870   2.5499110  47.2267430  50.1570770   3.0666610  46.2228640
  49.6305990   3.5909230  45.6193780  50.5002110   3.6994000  46.8538370
  43.3326390  11.0866250  47.3786020  42.7947480  11.8112310  47.0594720
  43.5860350  10.6096590  46.5883360  46.1888600  12.3217460  47.6372670
  46.1147300  13.2252600  47.9445040  45.2867440  12.0029360  47.6094740
  46.7373930  11.4875970  35.2599030  47.6324720  11.8260940  35.2817790
  46.7691560  10.7655380  34.6323310  40.3770090   6.8603020  33.4886030
  40.8144960   7.4032690  34.1443610  40.8617820   6.0349970  33.4982370
  37.5915890   9.6492050  40.9406290  37.9218900   8.7813110  40.7084930
  38.0206890   9.8550570  41.7711250  42.1877810   7.9801060  38.6008260
  41.8873350   7.8566030  39.5012170  42.0815300   7.1209650  38.1923990
  38.0806100  10.5162640  43.6787920  37.6437090  10.6963440  44.5112070
  38.6483780  11.2737260  43.5369640  53.7168280  10.0179640  47.9665230
  53.1170270  10.0772200  47.2229150  53.8462180   9.0784620  48.0962080
  54.9569730   7.7597460  33.3034940  54.1262690   7.8274110  33.7742170
  55.1341560   8.6501580  33.0001800  54.4126190   4.5044940  35.8069140
  55.1745100   5.0741590  35.9128830  54.4280560   3.9372140  36.5777450
  37.9130530   3.0282870  40.0376800  37.2579370   2.7594510  39.3936500
  38.7508480   2.9187350  39.5878780  55.4186160   5.3595040  40.6511070
  55.7894990   4.5762360  40.2447040  56.0588090   6.0484140  40.4728370
  52.4019920   6.7431620  46.0641390  51.5879760   7.1728780  46.3267180
  52.8094120   7.3550030  45.4510440  54.4645360   4.7979310  32.9641660
  54.7394200   5.7058190  32.8360880  54.2756100   4.7341840  33.9003650
  54.3610700   2.7348300  37.9571090  53.9854300   1.9676230  37.5252380
  53.6313820   3.1171000  38.4446020  38.9506460   3.4135440  44.5780140
  39.3179500   3.3262840  45.4576160  38.3817280   2.6501990  44.4787000
  53.7510320   1.8819820  47.5910610  53.5196410   1.6532570  46.6908560
  54.0114870   2.8019370  47.5455500  52.4595970  11.4950220  39.5909660
  53.0555040  11.1734790  38.9144080  52.7174120  11.0222040  40.3822930
  40.3658540   7.9268130  49.7400290  40.3228170   7.5561040  50.6214750
  40.4969550   8.8645700  49.8802110  44.0664570   9.4827720  45.3410010
  43.8255930   9.7502280  44.4540530  45.0067210   9.6533450  45.3960870
  55.3268730  11.5022100  46.1420650  54.8327010  11.8990970  45.4247780
  54.7182020  10.8771310  46.5357930  40.2046570  10.8730380  46.8598070
  39.6106890  10.7415080  47.5988110  40.1970410  10.0368520  46.3940170
  53.0108180  12.1445520  43.4207390  52.5511150  12.8961330  43.0465410
  52.3820640  11.4251990  43.3622190  39.8358800   8.2388760  45.8106110
  39.1092860   7.6194050  45.7432060  39.8967950   8.6329370  44.9404190
  43.4403900  10.4533760  42.5955520  43.9568920   9.8421120  42.0703780
  44.0901280  10.9562540  43.0866530  46.1799400  11.3442250  43.4224500
  46.4677210  11.0896550  42.5457510  46.6922620  10.7919610  44.0130070
  38.1188800  11.5563150  39.0202870  37.9510840  10.9233830  39.7184760
  37.2523310  11.7622550  38.6697060  39.7251500  10.2496380  36.4653010
  39.1999120  10.6304410  35.7614970  39.6496080  10.8747150  37.1862720
  46.2471760  12.2658350  50.7892700  47.1739070  12.0302620  50.8328660
  46.2322190  13.0930350  50.3078730  54.4816820  11.8083920  37.7866950
  54.6569010  11.1221660  37.1427870  53.7838390  12.3330970  37.3943620
  42.3244470  12.1978760  35.3402260  43.0563290  11.9138040  34.7926150
  42.5838140  11.9592040  36.2301640  41.4859260   8.3143490  35.3448590
  40.8568140   8.7828590  35.8934420  41.6007090   7.4692710  35.7794780
  52.8149320  11.4928210  50.6133740  53.6074640  10.9977440  50.4059700
  53.1082470  12.1718350  51.2209350  47.0727020   4.1428170  23.3759060
  46.2969120   3.6628610  23.6657630  47.7239950   3.4633820  23.2015220
  41.0892850   4.4547980  24.2534820  40.2577730   4.1996690  24.6531330
  41.6973830   4.5258750  24.9892740  51.0934450   8.5488360  22.1558190
  50.6315980   7.7775600  22.4845360  51.9060000   8.5754430  22.6610640
  41.0694110   8.4888070  24.4492840  41.3722150   7.5985810  24.2703060
  41.8137700   9.0458290  24.2215090  47.3197760  10.8346370  21.7762180
  46.7009200  11.2903870  21.2056620  48.1749540  10.9897830  21.3751880
  46.5136010   6.8185360  23.3829220  46.4444290   5.8775300  23.2218350
  47.2755870   6.9086770  23.9551790  48.1861110   5.7185610  19.1694090
  47.5678380   6.1835060  18.6056810  48.6984360   6.4113090  19.5863600
  43.0492870   5.2461480  25.8477690  42.7162250   5.8730400  26.4898760
  43.2259550   5.7723360  25.0679360  42.2611970   7.2142280  27.6626870
  42.8785970   7.8893360  27.3811320  41.4005090   7.6230260  27.5714370
  37.5544310   6.4042140  16.5433720  37.1772290   6.8929240  15.8118620
  37.8117380   7.0767420  17.1740250  53.1789560   8.6781690  25.5781510
  52.4953080   9.3480800  25.5698180  53.7183850   8.8762340  24.8126370
  50.7148300  10.5225820  24.2926690  50.7275460  10.1188110  23.4248950
  50.1623520  11.2973110  24.1888120  52.0093720   7.2442040  19.3816860
  51.8990050   6.3016370  19.5066280  52.0061970   7.6057680  20.2679620
  50.1133740   5.4255660  25.6209300  50.5302530   5.2115770  24.7862760
  50.8373560   5.6828450  26.1917920  47.5514000   2.8707360  18.7379350
  46.6243280   2.8044740  18.9667820  47.7038820   3.8087490  18.6234590
  54.0595840   3.8242880  25.7125540  53.2314470   3.8935970  25.2375670
  54.6546320   4.4097190  25.2441370  51.5811290   4.4327660  19.2414600
  50.9623710   4.0947210  18.5940900  51.5635740   3.7887420  19.9493790
  43.1570640   3.3972100  21.5199080  42.7527640   2.6849350  21.0244980
  43.2433760   3.0525340  22.4087120  43.6252340   7.0839660  23.6838290
  43.3280630   6.4785130  23.0046070  44.5752160   7.1216970  23.5727650
  51.7137950  10.6571530  27.3461390  51.2368510  11.4643720  27.1534000
  51.0299740  10.0049860  27.4987600  42.7170770   6.8221350  30.3346090
  41.8199300   7.0461320  30.5819490  42.7423640   6.9456290  29.3857490
  49.7575990   3.6714470  16.2487350  50.1969270   2.8336900  16.1025170
  50.4704410   4.3043870  16.3351490  41.5441990   3.6934670  28.9103460
  41.4049760   4.5657470  29.2790860  40.6623350   3.3507480  28.7651400
  47.8671370   8.6110540  20.2168590  48.3067280   9.3534870  19.8023980
  47.8058260   8.8537110  21.1407550  43.3422340   9.6356370  31.1188610
  43.3137770  10.0399320  30.2517040  43.1787310   8.7066730  30.9560210
  39.8575270   2.2917080  19.0205730  39.7372870   3.0179170  18.4087000
  39.5476160   1.5219990  18.5433640  55.2937160  10.4183470  32.4152780
  55.7696880  10.8966360  33.0941860  55.9144320  10.3500960  31.6898280
  37.4960640   5.4632220  24.8274370  37.5741060   5.5980990  23.8830090
  38.1102320   4.7548110  25.0202490  38.7408270   7.1632410  21.2380550
  38.3336350   7.3047000  20.3834150  39.6321280   6.8792570  21.0351760
  54.6970410   7.6096320  29.5752790  54.8233470   7.3708200  28.6569970
  54.7391790   6.7780860  30.0474870  48.5587150  11.3124320  28.1447600
  49.0731820  11.2232330  28.9470030  47.7156230  11.6584020  28.4375510
  50.5341550  11.5979660  17.5731600  50.3742690  11.3082600  18.4713430
  50.3688260  10.8219790  17.0376830  43.0129930  11.3778190  19.3503220
  42.8372410  10.4613730  19.1371020  42.1585670  11.7365480  19.5901020
  50.2367680   9.1067220  16.1329600  49.5432840   9.1044510  15.4731880
  50.9790540   8.6826540  15.7023770  49.8017610  10.7329930  20.2078090
  50.2574560   9.9519310  20.5216710  50.1410130  11.4436750  20.7519270
  37.5520160   6.5046390  27.3668830  37.7151200   6.0351750  26.5488200
  38.0172610   5.9969950  28.0317670  44.0489960   1.9785800  15.6497910
  43.4806860   1.5304050  15.0233820  44.7578960   2.3378580  15.1163060
  39.1259140   5.8797820  29.5264640  38.7413930   5.2391490  30.1247600
  39.4371330   6.5833940  30.0959370  45.2756280   2.7274360  25.0073260
  45.6426410   2.2532930  25.7534600  45.0861340   3.6015930  25.3481600
  43.0655650   1.7683000  27.3257470  42.7612720   2.6474980  27.5507830
  44.0202110   1.8282790  27.3614910  41.5937440   5.9743990  17.9224320
  40.8199700   5.4341610  17.7623040  42.3232070   5.4550600  17.5842080
  52.3525420   4.9709350  23.7150710  53.0724540   5.4664640  23.3246820
  52.1507240   4.2927240  23.0704580  47.7344220   5.0418410  29.6019710
  47.6681530   4.1214080  29.3477300  47.1049360   5.1393850  30.3164350
  41.6374840   5.6424370  21.5603130  42.1553510   4.8392630  21.5060020
  41.1858860   5.5803510  22.4019960  46.5244340   6.9090650  16.8330430
  46.8660040   7.6532880  16.3373750  45.6957050   7.2221770  17.1955260
  39.1219380   2.6085740  28.4728830  38.7634320   3.2739590  29.0602170
  38.8273940   1.7769290  28.8441450  42.3232500   3.0669980  31.3568380
  42.0232640   3.2127160  30.4596200  43.0943740   2.5075270  31.2641770
  47.6660950   7.8638980  29.3523510  47.6805490   6.9319940  29.1342420
  46.9586050   7.9498740  29.9913280  52.7998020   2.0478800  15.6222120
  52.7161740   2.4793020  14.7718560  53.5192210   2.5077150  16.0548940
  53.8772160   4.5046320  28.6992090  53.1520350   5.0975100  28.5021480
  54.4047620   4.4969860  27.9005460  53.8285270   8.9021060  18.3504250
  53.1861430   8.2476680  18.6247970  53.4415930   9.3076150  17.5744920
  49.4071750   6.2306490  22.1975940  49.7595570   5.6334620  21.5377310
  48.5234080   5.9050720  22.3684190  45.4935030   6.9904180  19.6046350
  46.1806160   7.5373390  19.9853940  44.7067450   7.5344910  19.6395960
  37.6327430   2.6077000  15.0963430  38.5022280   2.8901800  15.3799350
  37.1417750   3.4212870  14.9812240  44.7962240   3.9950210  19.2171710
  45.2525020   4.8055460  19.4431900  44.4450450   3.6773350  20.0490200
  47.0994850   9.5056550  26.4464010  47.7437070   9.7115930  27.1237430
  47.4624290   8.7444950  25.9934860  48.3726930   7.5088900  25.1641460
  49.0149160   6.8082060  25.2773630  48.8976280   8.2887340  24.9838350
  52.2182650   7.7937520  14.8880600  51.9920230   7.0767960  15.4805240
  51.8278850   7.5449960  14.0502350  50.1464550   8.3083800  28.3677520
  50.4820790   8.8950490  29.0455440  49.2264890   8.1776510  28.5975310
  37.9998680  11.8204380  15.6625060  38.3596320  12.4193720  15.0082330
  37.8591020  12.3664270  16.4360090  51.7998900   5.7109460  16.5494760
  51.5120600   6.1722150  17.3372640  52.5951070   5.2507230  16.8178980
  37.9840540  10.0859240  30.1367460  38.0931660   9.1453980  29.9962850
  37.3321100  10.3513990  29.4881190  45.9753130   8.3575130  31.5365580
  45.6550000   7.6384370  32.0811270  45.3011490   9.0330200  31.6101640
  44.0167300   9.2035580  16.4798730  44.0077400   9.9365270  15.8643240
  43.0965660   8.9567160  16.5725690  39.6173940   4.4250470  17.2245490
  39.0101890   5.1649370  17.2340790  40.0923290   4.5149830  16.3983690
  47.0026900   9.2663820  15.1423920  47.1038880   9.0627810  14.2125900
  46.1028640   9.0122100  15.3471700  45.6445010  11.7850140  19.8371590
  45.8986510  11.7471530  18.9150960  44.6957490  11.6583470  19.8299840
  51.6497590   2.7042020  21.4130100  50.7087730   2.7192250  21.5877790
  51.9641660   1.9177980  21.8590400  41.6279230   4.3861620  14.9734060
  42.3942500   4.2742980  15.5359490  41.7053920   3.6899590  14.3210830
  53.6523170   9.8750870  23.0884360  53.7770590  10.6982040  23.5608170
  54.5188730   9.6641600  22.7408510  41.1240700  11.9682080  22.7601490
  41.8603180  11.4197540  23.0310060  41.5081620  12.8338090  22.6207480
  38.0086180   8.0355650  18.6343000  37.0825960   8.2776790  18.6248410
  38.4742610   8.8629910  18.5127750  40.1298980  11.1528150  31.9487070
  40.9311710  11.4740200  32.3622470  39.6150800  10.7923730  32.6706980
  44.2343010  11.1412390  14.5827060  45.0271620  11.4301220  14.1308850
  43.7147360  10.7104560  13.9039540  48.9663610   7.2608020  31.8962480
  48.3601770   7.2839620  31.1558230  48.6617720   6.5291060  32.4329730
  50.3963980  10.9888310  30.5071890  51.3485730  10.9046330  30.4572130
  50.2492200  11.6530020  31.1805680  53.2873180  10.3682520  16.0063800
  53.0014690   9.9547660  15.1917980  53.0892730  11.2970230  15.8864320
  37.8496790   3.6401610  30.8923120  38.3535810   3.0608890  31.4639350
  37.1104210   3.9241840  31.4299490  44.7520410   6.3615800  14.4469410
  44.6471050   5.7468150  15.1730790  44.5844630   5.8381690  13.6632420
  44.9034730   5.0472600  30.4258640  44.1380400   5.6157600  30.3413310
  45.0850690   4.7548810  29.5326870  47.9923140   5.4235830  15.0511400
  47.4433240   5.8705130  15.6954140  48.6142400   4.9185080  15.5749070
  52.0458080   6.7777930  30.9833660  52.7867550   7.1153690  30.4801120
  51.2830760   6.9469990  30.4303430  39.8819870   1.7831200  31.7873190
  39.9225210   1.4845070  32.6958420  40.7365370   2.1838810  31.6280710
  43.6598260   4.3826750  16.9476700  44.0814680   4.2166620  17.7908090
  43.7849100   3.5726980  16.4531840  46.1725900   3.4064360  14.1953800
  46.6931560   2.6913380  13.8294950  46.8194300   4.0450230  14.4954310
  50.7203740   4.8292760  29.5188870  51.1344760   4.9837840  30.3679290
  49.7854740   4.9547980  29.6814650  45.4818970   4.7813240  27.4884800
  45.9007080   5.6245970  27.3161040  44.5627600   4.9185280  27.2591580
  47.8182870   2.5129420  28.8722640  47.9379080   1.9170560  29.6117480
  48.6776870   2.5499110  28.4523940  50.1570770   3.0666610  27.4485150
  49.6305990   3.5909230  26.8450290  50.5002110   3.6994000  28.0794880
  43.3326390  11.0866250  28.6042530  42.7947480  11.8112310  28.2851230
  43.5860350  10.6096590  27.8139870  46.1888600  12.3217460  28.8629180
  46.1147300  13.2252600  29.1701550  45.2867440  12.0029360  28.8351250
  46.7373930  11.4875970  16.4855540  47.6324720  11.8260940  16.5074300
  46.7691560  10.7655380  15.8579820  40.3770090   6.8603020  14.7142540
  40.8144960   7.4032690  15.3700120  40.8617820   6.0349970  14.7238880
  37.5915890   9.6492050  22.1662800  37.9218900   8.7813110  21.9341440
  38.0206890   9.8550570  22.9967760  42.1877810   7.9801060  19.8264770
  41.8873350   7.8566030  20.7268680  42.0815300   7.1209650  19.4180500
  38.0806100  10.5162640  24.9044430  37.6437090  10.6963440  25.7368580
  38.6483780  11.2737260  24.7626150  53.7168280  10.0179640  29.1921740
  53.1170270  10.0772200  28.4485660  53.8462180   9.0784620  29.3218590
  54.9569730   7.7597460  14.5291450  54.1262690   7.8274110  14.9998680
  55.1341560   8.6501580  14.2258310  54.4126190   4.5044940  17.0325650
  55.1745100   5.0741590  17.1385340  54.4280560   3.9372140  17.8033960
  37.9130530   3.0282870  21.2633310  37.2579370   2.7594510  20.6193010
  38.7508480   2.9187350  20.8135290  55.4186160   5.3595040  21.8767580
  55.7894990   4.5762360  21.4703550  56.0588090   6.0484140  21.6984880
  52.4019920   6.7431620  27.2897900  51.5879760   7.1728780  27.5523690
  52.8094120   7.3550030  26.6766950  54.4645360   4.7979310  14.1898170
  54.7394200   5.7058190  14.0617390  54.2756100   4.7341840  15.1260160
  54.3610700   2.7348300  19.1827600  53.9854300   1.9676230  18.7508890
  53.6313820   3.1171000  19.6702530  38.9506460   3.4135440  25.8036650
  39.3179500   3.3262840  26.6832670  38.3817280   2.6501990  25.7043510
  53.7510320   1.8819820  28.8167120  53.5196410   1.6532570  27.9165070
  54.0114870   2.8019370  28.7712010  52.4595970  11.4950220  20.8166170
  53.0555040  11.1734790  20.1400590  52.7174120  11.0222040  21.6079440
  40.3658540   7.9268130  30.9656800  40.3228170   7.5561040  31.8471260
  40.4969550   8.8645700  31.1058620  44.0664570   9.4827720  26.5666520
  43.8255930   9.7502280  25.6797040  45.0067210   9.6533450  26.6217380
  55.3268730  11.5022100  27.3677160  54.8327010  11.8990970  26.6504290
  54.7182020  10.8771310  27.7614440  40.2046570  10.8730380  28.0854580
  39.6106890  10.7415080  28.8244620  40.1970410  10.0368520  27.6196680
  53.0108180  12.1445520  24.6463900  52.5511150  12.8961330  24.2721920
  52.3820640  11.4251990  24.5878700  39.8358800   8.2388760  27.0362620
  39.1092860   7.6194050  26.9688570  39.8967950   8.6329370  26.1660700
  43.4403900  10.4533760  23.8212030  43.9568920   9.8421120  23.2960290
  44.0901280  10.9562540  24.3123040  46.1799400  11.3442250  24.6481010
  46.4677210  11.0896550  23.7714020  46.6922620  10.7919610  25.2386580
  38.1188800  11.5563150  20.2459380  37.9510840  10.9233830  20.9441270
  37.2523310  11.7622550  19.8953570  39.7251500  10.2496380  17.6909520
  39.1999120  10.6304410  16.9871480  39.6496080  10.8747150  18.4119230
  46.2471760  12.2658350  32.0149210  47.1739070  12.0302620  32.0585170
  46.2322190  13.0930350  31.5335240  54.4816820  11.8083920  19.0123460
  54.6569010  11.1221660  18.3684380  53.7838390  12.3330970  18.6200130
  42.3244470  12.1978760  16.5658770  43.0563290  11.9138040  16.0182660
  42.5838140  11.9592040  17.4558150  41.4859260   8.3143490  16.5705100
  40.8568140   8.7828590  17.1190930  41.6007090   7.4692710  17.0051290
  52.8149320  11.4928210  31.8390250  53.6074640  10.9977440  31.6316210
  53.1082470  12.1718350  32.4465860  47.0727020   4.1428170   4.6015570
  46.2969120   3.6628610   4.8914140  47.7239950   3.4633820   4.4271730
  41.0892850   4.4547980   5.4791330  40.2577730   4.1996690   5.8787840
  41.6973830   4.5258750   6.2149250  51.0934450   8.5488360   3.3814700
  50.6315980   7.7775600   3.7101870  51.9060000   8.5754430   3.8867150
  41.0694110   8.4888070   5.6749350  41.3722150   7.5985810   5.4959570
  41.8137700   9.0458290   5.4471600  47.3197760  10.8346370   3.0018690
  46.7009200  11.2903870   2.4313130  48.1749540  10.9897830   2.6008390
  46.5136010   6.8185360   4.6085730  46.4444290   5.8775300   4.4474860
  47.2755870   6.9086770   5.1808300  43.0492870   5.2461480   7.0734200
  42.7162250   5.8730400   7.7155270  43.2259550   5.7723360   6.2935870
  42.2611970   7.2142280   8.8883380  42.8785970   7.8893360   8.6067830
  41.4005090   7.6230260   8.7970880  53.1789560   8.6781690   6.8038020
  52.4953080   9.3480800   6.7954690  53.7183850   8.8762340   6.0382880
  50.7148300  10.5225820   5.5183200  50.7275460  10.1188110   4.6505460
  50.1623520  11.2973110   5.4144630  50.1133740   5.4255660   6.8465810
  50.5302530   5.2115770   6.0119270  50.8373560   5.6828450   7.4174430
  54.0595840   3.8242880   6.9382050  53.2314470   3.8935970   6.4632180
  54.6546320   4.4097190   6.4697880  43.1570640   3.3972100   2.7455590
  42.7527640   2.6849350   2.2501490  43.2433760   3.0525340   3.6343630
  43.6252340   7.0839660   4.9094800  43.3280630   6.4785130   4.2302580
  44.5752160   7.1216970   4.7984160  51.7137950  10.6571530   8.5717900
  51.2368510  11.4643720   8.3790510  51.0299740  10.0049860   8.7244110
  42.7170770   6.8221350  11.5602600  41.8199300   7.0461320  11.8076000
  42.7423640   6.9456290  10.6114000  41.5441990   3.6934670  10.1359970
  41.4049760   4.5657470  10.5047370  40.6623350   3.3507480   9.9907910
  43.3422340   9.6356370  12.3445120  43.3137770  10.0399320  11.4773550
  43.1787310   8.7066730  12.1816720  55.2937160  10.4183470  13.6409290
  55.7696880  10.8966360  14.3198370  55.9144320  10.3500960  12.9154790
  37.4960640   5.4632220   6.0530880  37.5741060   5.5980990   5.1086600
  38.1102320   4.7548110   6.2459000  38.7408270   7.1632410   2.4637060
  38.3336350   7.3047000   1.6090660  39.6321280   6.8792570   2.2608270
  54.6970410   7.6096320  10.8009300  54.8233470   7.3708200   9.8826480
  54.7391790   6.7780860  11.2731380  48.5587150  11.3124320   9.3704110
  49.0731820  11.2232330  10.1726540  47.7156230  11.6584020   9.6632020
  37.5520160   6.5046390   8.5925340  37.7151200   6.0351750   7.7744710
  38.0172610   5.9969950   9.2574180  39.1259140   5.8797820  10.7521150
  38.7413930   5.2391490  11.3504110  39.4371330   6.5833940  11.3215880
  45.2756280   2.7274360   6.2329770  45.6426410   2.2532930   6.9791110
  45.0861340   3.6015930   6.5738110  43.0655650   1.7683000   8.5513980
  42.7612720   2.6474980   8.7764340  44.0202110   1.8282790   8.5871420
  52.3525420   4.9709350   4.9407220  53.0724540   5.4664640   4.5503330
  52.1507240   4.2927240   4.2961090  47.7344220   5.0418410  10.8276220
  47.6681530   4.1214080  10.5733810  47.1049360   5.1393850  11.5420860
  41.6374840   5.6424370   2.7859640  42.1553510   4.8392630   2.7316530
  41.1858860   5.5803510   3.6276470  39.1219380   2.6085740   9.6985340
  38.7634320   3.2739590  10.2858680  38.8273940   1.7769290  10.0697960
  42.3232500   3.0669980  12.5824890  42.0232640   3.2127160  11.6852710
  43.0943740   2.5075270  12.4898280  47.6660950   7.8638980  10.5780020
  47.6805490   6.9319940  10.3598930  46.9586050   7.9498740  11.2169790
  53.8772160   4.5046320   9.9248600  53.1520350   5.0975100   9.7277990
  54.4047620   4.4969860   9.1261970  49.4071750   6.2306490   3.4232450
  49.7595570   5.6334620   2.7633820  48.5234080   5.9050720   3.5940700
  47.0994850   9.5056550   7.6720520  47.7437070   9.7115930   8.3493940
  47.4624290   8.7444950   7.2191370  48.3726930   7.5088900   6.3897970
  49.0149160   6.8082060   6.5030140  48.8976280   8.2887340   6.2094860
  50.1464550   8.3083800   9.5934030  50.4820790   8.8950490  10.2711950
  49.2264890   8.1776510   9.8231820  37.9840540  10.0859240  11.3623970
  38.0931660   9.1453980  11.2219360  37.3321100  10.3513990  10.7137700
  45.9753130   8.3575130  12.7622090  45.6550000   7.6384370  13.3067780
  45.3011490   9.0330200  12.8358150  51.6497590   2.7042020   2.6386610
  50.7087730   2.7192250   2.8134300  51.9641660   1.9177980   3.0846910
  53.6523170   9.8750870   4.3140870  53.7770590  10.6982040   4.7864680
  54.5188730   9.6641600   3.9665020  41.1240700  11.9682080   3.9858000
  41.8603180  11.4197540   4.2566570  41.5081620  12.8338090   3.8463990
  40.1298980  11.1528150  13.1743580  40.9311710  11.4740200  13.5878980
  39.6150800  10.7923730  13.8963490  48.9663610   7.2608020  13.1218990
  48.3601770   7.2839620  12.3814740  48.6617720   6.5291060  13.6586240
  50.3963980  10.9888310  11.7328400  51.3485730  10.9046330  11.6828640
  50.2492200  11.6530020  12.4062190  37.8496790   3.6401610  12.1179630
  38.3535810   3.0608890  12.6895860  37.1104210   3.9241840  12.6556000
  44.9034730   5.0472600  11.6515150  44.1380400   5.6157600  11.5669820
  45.0850690   4.7548810  10.7583380  52.0458080   6.7777930  12.2090170
  52.7867550   7.1153690  11.7057630  51.2830760   6.9469990  11.6559940
  39.8819870   1.7831200  13.0129700  39.9225210   1.4845070  13.9214930
  40.7365370   2.1838810  12.8537220  50.7203740   4.8292760  10.7445380
  51.1344760   4.9837840  11.5935800  49.7854740   4.9547980  10.9071160
  45.4818970   4.7813240   8.7141310  45.9007080   5.6245970   8.5417550
  44.5627600   4.9185280   8.4848090  47.8182870   2.5129420  10.0979150
  47.9379080   1.9170560  10.8373990  48.6776870   2.5499110   9.6780450
  50.1570770   3.0666610   8.6741660  49.6305990   3.5909230   8.0706800
  50.5002110   3.6994000   9.3051390  43.3326390  11.0866250   9.8299040
  42.7947480  11.8112310   9.5107740  43.5860350  10.6096590   9.0396380
  46.1888600  12.3217460  10.0885690  46.1147300  13.2252600  10.3958060
  45.2867440  12.0029360  10.0607760  37.5915890   9.6492050   3.3919310
  37.9218900   8.7813110   3.1597950  38.0206890   9.8550570   4.2224270
  38.0806100  10.5162640   6.1300940  37.6437090  10.6963440   6.9625090
  38.6483780  11.2737260   5.9882660  53.7168280  10.0179640  10.4178250
  53.1170270  10.0772200   9.6742170  53.8462180   9.0784620  10.5475100
  37.9130530   3.0282870   2.4889820  37.2579370   2.7594510   1.8449520
  38.7508480   2.9187350   2.0391800  55.4186160   5.3595040   3.1024090
  55.7894990   4.5762360   2.6960060  56.0588090   6.0484140   2.9241390
  52.4019920   6.7431620   8.5154410  51.5879760   7.1728780   8.7780200
  52.8094120   7.3550030   7.9023460  38.9506460   3.4135440   7.0293160
  39.3179500   3.3262840   7.9089180  38.3817280   2.6501990   6.9300020
  53.7510320   1.8819820  10.0423630  53.5196410   1.6532570   9.1421580
  54.0114870   2.8019370   9.9968520  40.3658540   7.9268130  12.1913310
  40.3228170   7.5561040  13.0727770  40.4969550   8.8645700  12.3315130
  44.0664570   9.4827720   7.7923030  43.8255930   9.7502280   6.9053550
  45.0067210   9.6533450   7.8473890  55.3268730  11.5022100   8.5933670
  54.8327010  11.8990970   7.8760800  54.7182020  10.8771310   8.9870950
  40.2046570  10.8730380   9.3111090  39.6106890  10.7415080  10.0501130
  40.1970410  10.0368520   8.8453190  53.0108180  12.1445520   5.8720410
  52.5511150  12.8961330   5.4978430  52.3820640  11.4251990   5.8135210
  39.8358800   8.2388760   8.2619130  39.1092860   7.6194050   8.1945080
  39.8967950   8.6329370   7.3917210  43.4403900  10.4533760   5.0468540
  43.9568920   9.8421120   4.5216800  44.0901280  10.9562540   5.5379550
  46.1799400  11.3442250   5.8737520  46.4677210  11.0896550   4.9970530
  46.6922620  10.7919610   6.4643090  46.2471760  12.2658350  13.2405720
  47.1739070  12.0302620  13.2841680  46.2322190  13.0930350  12.7591750
  52.8149320  11.4928210  13.0646760  53.6074640  10.9977440  12.8572720
  53.1082470  12.1718350  13.6722370  30.1665490  96.2366600  59.0436770
  30.0859540  95.3221210  58.7728480  29.7529910  96.7333670  58.3376480
  28.2983530  98.0145620  60.9246040  27.5225630  97.5346060  61.2144610
  28.9496460  97.3351270  60.7502200  22.3149360  98.3265430  61.8021800
  21.4834240  98.0714140  62.2018310  22.9230340  98.3976200  62.5379720
  20.7241310  93.2867320  55.5864190  19.8358010  93.6283290  55.4844070
  21.0082500  93.0867640  54.6945020  18.6874320  95.8872970  61.4703890
  19.2590430  95.1195170  61.4707530  18.6875860  96.1861730  60.5610500
  28.7697690  93.4973190  61.1585130  29.1462510  92.6245070  61.0458800
  28.6717200  93.8331890  60.2675570  22.9002700  91.8698820  56.6202570
  23.0069450  92.7702550  56.9271330  21.9895060  91.8216790  56.3297220
  32.5521810  90.9923630  58.0913470  33.3731430  90.5020200  58.1338950
  32.5855890  91.5821290  58.8445310  20.5485860  93.7917830  61.8655160
  21.2295970  94.0556200  62.4842560  20.2333910  92.9518700  62.1993170
  24.7410430  94.8385190  60.9527750  25.2488650  95.3366160  61.5932770
  25.2723670  94.0620390  60.7767110  32.7883290  92.9324010  60.8641010
  32.0838860  93.2208900  61.4444120  33.1495450  93.7424120  60.5040570
  22.7061860  91.1893710  63.2261620  23.0478670  92.0335760  62.9315490
  21.7677670  91.3377450  63.3426960  35.8570210  92.3778800  61.2550220
  34.9095120  92.4117780  61.3865650  36.1820200  93.1917750  61.6399580
  26.3889750  88.6775980  59.5506210  26.6964730  88.1222870  58.8341710
  25.4590450  88.8120440  59.3679200  28.7770510  96.7424810  56.2866330
  27.8499790  96.6762190  56.5154800  28.9295330  97.6804940  56.1721570
  28.7639590  93.0141810  53.2833490  27.8243260  93.1755770  53.3685950
  29.0822850  93.7327490  52.7369480  35.2852350  97.6960330  63.2612520
  34.4570980  97.7653420  62.7862650  35.8802830  98.2814640  62.7928350
  32.8067800  98.3045110  56.7901580  32.1880220  97.9664660  56.1427880
  32.7892250  97.6604870  57.4980770  24.3827150  97.2689550  59.0686060
  23.9784150  96.5566800  58.5731960  24.4690270  96.9242790  59.9574100
  30.9832500  97.5431920  53.7974330  31.4225780  96.7054350  53.6512150
  31.6960920  98.1761320  53.8838470  34.5649640  88.7974730  52.1115370
  34.2522300  88.8901560  53.0114440  35.3262110  89.3755760  52.0612800
  21.0831780  96.1634530  56.5692710  20.9629380  96.8896620  55.9573980
  20.7732670  95.3937440  56.0920620  23.5495440  89.5069600  59.9516380
  23.1063590  90.2879140  59.6200900  24.1080430  89.8299490  60.6587320
  26.6654260  89.1280300  54.8322210  26.0408440  89.1240170  55.5575520
  26.5784380  88.2611260  54.4358180  25.5871340  90.0516930  61.8105980
  25.8843670  90.9579760  61.7298000  26.1356900  89.5635710  61.1965550
  23.3409660  94.6303170  57.6797630  23.1150580  94.4140340  58.5844250
  22.5602190  95.0631630  57.3343600  30.5707420  94.6366540  56.2788280
  29.9716310  95.3602340  56.0951900  31.1187030  94.5743320  55.4964730
  29.1772290  93.2730080  58.3091560  29.5701860  93.5902280  57.4960250
  29.5389140  92.3941960  58.4236080  18.2136460  89.8630880  60.5321760
  17.9249510  90.4333740  61.2446740  18.9582220  89.3835330  60.8952990
  18.4006690  93.8051000  51.7424480  18.3181360  94.7481760  51.8839470
  18.0489750  93.6625910  50.8636830  29.7627430  95.8635830  62.4042340
  29.0308550  96.3722640  62.7532440  29.3651770  95.0465810  62.1031120
  26.2004820  92.5390030  60.8094830  26.2040880  92.0979980  59.9599370
  27.0955940  92.8607360  60.9166650  22.0507200  92.4216520  59.7689040
  21.7107250  92.8991750  60.5256090  21.2884520  91.9681640  59.4090140
  26.2624970  93.5402110  53.8001590  26.3837790  93.4988590  54.7487410
  25.8773480  94.4026260  53.6448320  30.2253340  91.3169510  61.8165280
  30.2426080  91.7678160  62.6607130  29.9768920  90.4175150  62.0298720
  25.2746470  95.8503250  53.1984890  24.7063370  95.4021500  52.5720800
  25.9835470  96.2096030  52.6650040  26.5012790  96.5991810  62.5560240
  26.8682920  96.1250380  63.3021580  26.3117850  97.4733380  62.8968580
  19.3653280  91.3435500  58.6853710  19.0800200  90.9791170  59.5232330
  19.3032140  90.6115960  58.0716850  29.0391870  90.2364760  55.4067080
  28.2256480  89.7377930  55.3312390  28.8453820  91.0763010  54.9903430
  31.7540260  94.6084410  53.7029240  32.6419880  94.9201640  53.5280580
  31.7245350  93.7356660  53.3109820  34.0254530  95.9196250  53.1709100
  33.9418250  96.3510470  52.3205540  34.7448720  96.3794600  53.6035920
  18.8583940  96.4794450  52.6450410  19.7278790  96.7619250  52.9286330
  18.3674260  97.2930320  52.5299220  26.0218750  97.8667660  56.7658690
  26.4781530  98.6772910  56.9918880  25.6706960  97.5490800  57.5977180
  21.9230530  88.2105310  57.2381210  21.7945160  88.2023210  58.1866130
  21.0992550  88.5488400  56.8872220  33.7825270  91.4175680  55.2576920
  33.1538430  91.5221350  54.5435150  33.2877190  91.6372460  56.0470800
  25.7509300  93.6961630  56.6734800  25.0425450  94.1647970  57.1148410
  26.0353780  93.0383640  57.3079990  29.7824730  90.4212290  58.1130590
  29.6592510  90.4398420  57.1640100  30.7309290  90.4691230  58.2328990
  23.9544320  92.0046710  54.0485510  24.8034850  92.4416860  53.9825700
  23.5875590  92.3166970  54.8757570  32.8754100  96.5759470  58.9617080
  31.9344240  96.5909700  59.1364770  33.1898170  95.7895430  59.4077380
  22.8535740  98.2579070  52.5221040  23.6199010  98.1460430  53.0846470
  22.9310430  97.5617040  51.8697810  21.5482500  95.6904140  53.2053930
  21.6286090  94.7431650  53.3171330  22.4402250  96.0211020  53.3114590
  24.8854770  98.2544200  54.4963680  25.3071190  98.0884070  55.3395070
  25.0105610  97.4444430  54.0018820  27.3982410  97.2781810  51.7440780
  27.9188070  96.5630830  51.3781930  28.0450810  97.9167680  52.0441290
  23.7813670  94.3277430  51.4421840  23.5802730  93.4644790  51.8035180
  23.6105720  94.2410790  50.5043440  31.2601980  89.1385660  53.9708720
  31.5404270  88.2953560  54.3268140  30.4867710  89.3708770  54.4847470
  22.5796470  91.4278050  51.4299720  22.8822370  91.4345480  50.5218870
  23.3191060  91.0775910  51.9267380  25.7981400  90.3712670  52.4155920
  25.4503400  89.6936660  51.8358370  25.9994170  89.9102180  53.2299310
  19.1387040  96.9000320  58.8120290  18.4835880  96.6311960  58.1679990
  19.9764990  96.7904800  58.3622270  32.0877480  91.6941610  53.0338780
  32.5062360  91.5072590  52.1935440  31.7813540  90.8420660  53.3441710
  35.5867210  96.6065750  56.7314580  35.2110810  95.8393680  56.2995870
  34.8570330  96.9888450  57.2189510  18.3525120  94.1099250  54.7545620
  17.4489200  94.3729450  54.5797280  18.8365740  94.3810420  53.9745580
  34.8618170  94.8323240  60.0321820  35.3855650  94.3385890  59.4011990
  35.4477590  94.9673600  60.7769390  20.8952330  93.1664790  52.6640000
  21.6044030  92.7448010  52.1787280  20.1792270  93.2340020  52.0323350
  20.5426490  89.2204120  51.7042650  21.2654620  89.7613060  52.0223870
  20.8151010  88.9467540  50.8284190  34.3518140  94.0896590  55.9714230
  34.8477260  93.8567460  56.7563110  34.1534210  93.2508430  55.5551870
  20.2318680  88.4710310  61.6065270  20.8794870  87.9207690  61.1660430
  20.6520520  88.7253460  62.4281080  35.7805300  92.7257540  58.5051910
  35.6704580  92.5713580  59.4434180  36.5412890  92.1978480  58.2627320
  36.6695570  90.5565460  51.7458050  37.5944880  90.4246640  51.5376340
  36.6471360  90.6358280  52.6994500  36.7434060  91.3276120  54.3714760
  35.9485560  91.2621240  54.9007670  36.9477340  92.2626760  54.3600110
  28.6232920  88.9549900  62.7764500  27.8404710  89.4295400  63.0561260
  28.3295850  88.0504730  62.6677680  33.1753990  89.6573000  60.8213590
  33.6162080  89.6018100  59.9735190  32.9061580  90.5731010  60.8923770
  35.0392560  89.2888240  58.8322410  34.9780960  88.3449460  58.6853430
  35.8184590  89.3968330  59.3775870  19.9673330  89.2597380  55.2978220
  20.7252690  89.3726260  54.7242250  19.5050500  90.0966580  55.2521650
  26.5087140  91.3736650  58.2880530  25.6961650  90.9993540  57.9476410
  27.0128780  90.6181730  58.5901720  31.0112120  88.0379100  59.5263600
  31.6141490  88.6099310  60.0012120  30.2705110  88.6018540  59.3037500
  34.1546720  88.4400660  54.8003880  34.3497350  89.3384110  55.0671310
  33.3676590  88.2087740  55.2936830  22.3398480  89.7861430  53.8380190
  22.8691240  88.9991230  53.7088140  22.9726800  90.4652620  54.0715720
  24.5336320  89.5236570  56.8925580  23.9039060  88.8223880  57.0595710
  23.9941460  90.2840700  56.6758740  30.1665490  96.2366600  40.2693280
  30.0859540  95.3221210  39.9984990  29.7529910  96.7333670  39.5632990
  28.2983530  98.0145620  42.1502550  27.5225630  97.5346060  42.4401120
  28.9496460  97.3351270  41.9758710  22.3149360  98.3265430  43.0278310
  21.4834240  98.0714140  43.4274820  22.9230340  98.3976200  43.7636230
  20.7241310  93.2867320  36.8120700  19.8358010  93.6283290  36.7100580
  21.0082500  93.0867640  35.9201530  18.6874320  95.8872970  42.6960400
  19.2590430  95.1195170  42.6964040  18.6875860  96.1861730  41.7867010
  19.9299190  91.2957330  44.4829330  19.7502030  90.3983080  44.7632090
  19.5279270  91.8429200  45.1576280  28.7697690  93.4973190  42.3841640
  29.1462510  92.6245070  42.2715310  28.6717200  93.8331890  41.4932080
  22.9002700  91.8698820  37.8459080  23.0069450  92.7702550  38.1527840
  21.9895060  91.8216790  37.5553730  32.5521810  90.9923630  39.3169980
  33.3731430  90.5020200  39.3595460  32.5855890  91.5821290  40.0701820
  20.5485860  93.7917830  43.0911670  21.2295970  94.0556200  43.7099070
  20.2333910  92.9518700  43.4249680  24.7410430  94.8385190  42.1784260
  25.2488650  95.3366160  42.8189280  25.2723670  94.0620390  42.0023620
  36.8421360  93.0090380  45.8813610  36.1373530  93.3972090  45.3628720
  37.1079280  93.7040670  46.4834540  23.0246530  89.4783750  46.4447680
  23.0264970  89.9956140  45.6393580  22.1950840  89.0013930  46.4217610
  32.7883290  92.9324010  42.0897520  32.0838860  93.2208900  42.6700630
  33.1495450  93.7424120  41.7297080  22.7061860  91.1893710  44.4518130
  23.0478670  92.0335760  44.1572000  21.7677670  91.3377450  44.5683470
  35.8570210  92.3778800  42.4806730  34.9095120  92.4117780  42.6122160
  36.1820200  93.1917750  42.8656090  26.3889750  88.6775980  40.7762720
  26.6964730  88.1222870  40.0598220  25.4590450  88.8120440  40.5935710
  28.7770510  96.7424810  37.5122840  27.8499790  96.6762190  37.7411310
  28.9295330  97.6804940  37.3978080  28.7639590  93.0141810  34.5090000
  27.8243260  93.1755770  34.5942460  29.0822850  93.7327490  33.9625990
  35.2852350  97.6960330  44.4869030  34.4570980  97.7653420  44.0119160
  35.8802830  98.2814640  44.0184860  32.8067800  98.3045110  38.0158090
  32.1880220  97.9664660  37.3684390  32.7892250  97.6604870  38.7237280
  32.2494360  94.4829650  45.4323900  31.8365540  95.3083360  45.6863890
  31.5170310  93.8974690  45.2400260  24.3827150  97.2689550  40.2942570
  23.9784150  96.5566800  39.7988470  24.4690270  96.9242790  41.1830610
  23.0955770  94.0432760  44.0741610  23.6470360  94.1528100  43.2994860
  23.6099280  94.4170360  44.7896840  30.9832500  97.5431920  35.0230840
  31.4225780  96.7054350  34.8768660  31.6960920  98.1761320  35.1094980
  22.7698500  97.5652120  47.6846950  22.6306270  98.4374920  48.0534350
  21.8879860  97.2224930  47.5394890  34.5649640  88.7974730  33.3371880
  34.2522300  88.8901560  34.2370950  35.3262110  89.3755760  33.2869310
  21.0831780  96.1634530  37.7949220  20.9629380  96.8896620  37.1830490
  20.7732670  95.3937440  37.3177130  35.7750930  93.5346230  49.3146020
  35.1595200  94.0425900  48.7861480  35.4547350  92.6344560  49.2571960
  23.5495440  89.5069600  41.1772890  23.1063590  90.2879140  40.8457410
  24.1080430  89.8299490  41.8843830  27.8365250  92.3738120  46.7808210
  27.3744620  92.5821140  47.5928150  27.4343360  91.5597470  46.4778880
  32.8369760  93.5947070  47.9104870  31.9863350  93.2952820  48.2313940
  32.6771550  93.8389080  46.9988690  29.9319470  95.0948820  50.0103660
  30.2572880  94.2612570  49.6705890  30.7199800  95.6177340  50.1581990
  26.6654260  89.1280300  36.0578720  26.0408440  89.1240170  36.7832030
  26.5784380  88.2611260  35.6614690  25.5871340  90.0516930  43.0362490
  25.8843670  90.9579760  42.9554510  26.1356900  89.5635710  42.4222060
  23.3409660  94.6303170  38.9054140  23.1150580  94.4140340  39.8100760
  22.5602190  95.0631630  38.5600110  30.5707420  94.6366540  37.5044790
  29.9716310  95.3602340  37.3208410  31.1187030  94.5743320  36.7221240
  25.7808870  95.5288750  49.5714410  25.6852470  94.5883480  49.4214810
  26.6240850  95.7503820  49.1762480  29.1772290  93.2730080  39.5348070
  29.5701860  93.5902280  38.7216760  29.5389140  92.3941960  39.6492590
  20.9119410  91.9402420  47.7248190  20.5182800  92.7877630  47.9320970
  20.2237810  91.3028790  47.9156830  27.4864460  92.0237390  50.7944930
  26.7962780  91.8309590  51.4291020  28.2296760  92.3072030  51.3269230
  18.2136460  89.8630880  41.7578270  17.9249510  90.4333740  42.4703250
  18.9582220  89.3835330  42.1209500  18.4006690  93.8051000  32.9680990
  18.3181360  94.7481760  33.1095980  18.0489750  93.6625910  32.0893340
  29.7627430  95.8635830  43.6298850  29.0308550  96.3722640  43.9788950
  29.3651770  95.0465810  43.3287630  26.2004820  92.5390030  42.0351340
  26.2040880  92.0979980  41.1855880  27.0955940  92.8607360  42.1423160
  22.0507200  92.4216520  40.9945550  21.7107250  92.8991750  41.7512600
  21.2884520  91.9681640  40.6346650  26.2624970  93.5402110  35.0258100
  26.3837790  93.4988590  35.9743920  25.8773480  94.4026260  34.8704830
  30.2253340  91.3169510  43.0421790  30.2426080  91.7678160  43.8863640
  29.9768920  90.4175150  43.2555230  25.2746470  95.8503250  34.4241400
  24.7063370  95.4021500  33.7977310  25.9835470  96.2096030  33.8906550
  33.6524090  88.7301690  48.8808170  33.9769860  87.9991350  49.4066150
  33.6880600  88.4115330  47.9789160  26.5012790  96.5991810  43.7816750
  26.8682920  96.1250380  44.5278090  26.3117850  97.4733380  44.1225090
  19.3653280  91.3435500  39.9110220  19.0800200  90.9791170  40.7488840
  19.3032140  90.6115960  39.2973360  24.2912160  95.6400450  46.1000960
  23.9869230  96.5192430  46.3251320  25.2458620  95.7000240  46.1358400
  29.0391870  90.2364760  36.6323590  28.2256480  89.7377930  36.5568900
  28.8453820  91.0763010  36.2159940  31.7540260  94.6084410  34.9285750
  32.6419880  94.9201640  34.7537090  31.7245350  93.7356660  34.5366330
  20.3475890  96.4803190  47.2472320  19.9890830  97.1457040  47.8345660
  20.0530450  95.6486740  47.6184940  23.5489010  96.9387430  50.1311870
  23.2489150  97.0844610  49.2339690  24.3200250  96.3792720  50.0385260
  34.0254530  95.9196250  34.3965610  33.9418250  96.3510470  33.5462050
  34.7448720  96.3794600  34.8292430  18.8583940  96.4794450  33.8706920
  19.7278790  96.7619250  34.1542840  18.3674260  97.2930320  33.7555730
  26.0218750  97.8667660  37.9915200  26.4781530  98.6772910  38.2175390
  25.6706960  97.5490800  38.8233690  21.9230530  88.2105310  38.4637720
  21.7945160  88.2023210  39.4122640  21.0992550  88.5488400  38.1128730
  18.9224460  89.9696430  47.9244420  18.2082980  90.1693350  48.5297030
  19.3419500  89.1936000  48.2959220  30.4163240  92.4618740  45.6745870
  30.7844060  91.6413950  46.0025440  29.5561440  92.5220630  46.0901520
  33.7825270  91.4175680  36.4833430  33.1538430  91.5221350  35.7691660
  33.2877190  91.6372460  37.2727310  25.7509300  93.6961630  37.8991310
  25.0425450  94.1647970  38.3404920  26.0353780  93.0383640  38.5336500
  27.3765230  95.1158330  45.8983840  27.8750480  95.5904150  46.5635690
  27.5188180  94.1921850  46.1053870  29.7824730  90.4212290  39.3387100
  29.6592510  90.4398420  38.3896610  30.7309290  90.4691230  39.4585500
  23.9544320  92.0046710  35.2742020  24.8034850  92.4416860  35.2082210
  23.5875590  92.3166970  36.1014080  34.5832090  91.3326290  46.7412230
  34.0805690  92.0731690  47.0806040  35.3988750  91.7210290  46.4249020
  32.8754100  96.5759470  40.1873590  31.9344240  96.5909700  40.3621280
  33.1898170  95.7895430  40.6333890  22.8535740  98.2579070  33.7477550
  23.6199010  98.1460430  34.3102980  22.9310430  97.5617040  33.0954320
  21.5482500  95.6904140  34.4310440  21.6286090  94.7431650  34.5427840
  22.4402250  96.0211020  34.5371100  19.0753300  97.5119060  49.6666610
  19.5792320  96.9326340  50.2382840  18.3360720  97.7959290  50.2042980
  21.1076380  95.6548650  50.5616680  21.1481720  95.3562520  51.4701910
  21.9621880  96.0556260  50.4024200  24.8854770  98.2544200  35.7220190
  25.3071190  98.0884070  36.5651580  25.0105610  97.4444430  35.2275330
  23.0482190  94.2340750  48.5291170  22.5178650  93.7431700  47.9014510
  23.7170260  94.6624950  47.9949100  27.3982410  97.2781810  32.9697290
  27.9188070  96.5630830  32.6038440  28.0450810  97.9167680  33.2697800
  32.4182420  96.0406370  50.2971510  33.0003190  95.2858690  50.2091990
  32.5944190  96.5713810  49.5202990  23.5354490  91.2003120  48.6088460
  23.4411360  90.5823870  47.8839330  22.9551880  91.9269410  48.3818370
  26.3015930  89.7576360  45.6415850  25.8533230  89.7800620  44.7961400
  25.6681130  89.3595380  46.2386150  29.0439380  96.3846870  47.6466130
  29.1635590  95.7888010  48.3860970  29.9033380  96.4216560  47.2267430
  31.3827280  96.9384060  46.2228640  30.8562500  97.4626680  45.6193780
  31.7258620  97.5711450  46.8538370  23.7813670  94.3277430  32.6678350
  23.5802730  93.4644790  33.0291690  23.6105720  94.2410790  31.7299950
  25.8108150  92.9268220  48.9041950  26.4007840  92.6184070  49.5919770
  24.9928390  92.4547970  49.0601850  30.6301580  92.5434030  49.1374970
  29.9417100  91.8815570  49.0724960  31.3507600  92.0972300  49.5823430
  31.2601980  89.1385660  35.1965230  31.5404270  88.2953560  35.5524650
  30.4867710  89.3708770  35.7103980  22.5796470  91.4278050  32.6556230
  22.8822370  91.4345480  31.7475380  23.3191060  91.0775910  33.1523890
  25.7981400  90.3712670  33.6412430  25.4503400  89.6936660  33.0614880
  25.9994170  89.9102180  34.4555820  19.1387040  96.9000320  40.0376800
  18.4835880  96.6311960  39.3936500  19.9764990  96.7904800  39.5878780
  32.0877480  91.6941610  34.2595290  32.5062360  91.5072590  33.4191950
  31.7813540  90.8420660  34.5698220  35.5867210  96.6065750  37.9571090
  35.2110810  95.8393680  37.5252380  34.8570330  96.9888450  38.4446020
  20.1762970  97.2852890  44.5780140  20.5436010  97.1980290  45.4576160
  19.6073790  96.5219440  44.4787000  34.9766830  95.7537270  47.5910610
  34.7452920  95.5250020  46.6908560  35.2371380  96.6736820  47.5455500
  19.7278970  94.1961980  48.4838560  18.8335020  94.1628740  48.8232270
  20.2676520  94.3948770  49.2489810  33.4154900  90.9793700  50.3690310
  34.2925080  90.9877100  50.7524310  33.4275740  90.2424540  49.7582660
  18.3525120  94.1099250  35.9802130  17.4489200  94.3729450  35.8053790
  18.8365740  94.3810420  35.2002090  34.8618170  94.8323240  41.2578330
  35.3855650  94.3385890  40.6268500  35.4477590  94.9673600  42.0025900
  35.0407890  94.9163110  44.7797880  34.0910600  94.8826650  44.8942870
  35.2220900  95.8263220  44.5447650  20.8952330  93.1664790  33.8896510
  21.6044030  92.7448010  33.4043790  20.1792270  93.2340020  33.2579860
  20.5426490  89.2204120  32.9299160  21.2654620  89.7613060  33.2480380
  20.8151010  88.9467540  32.0540700  34.3518140  94.0896590  37.1970740
  34.8477260  93.8567460  37.9819620  34.1534210  93.2508430  36.7808380
  20.2318680  88.4710310  42.8321780  20.8794870  87.9207690  42.3916940
  20.6520520  88.7253460  43.6537590  35.7805300  92.7257540  39.7308420
  35.6704580  92.5713580  40.6690690  36.5412890  92.1978480  39.4883830
  34.1271020  88.6651670  46.1891420  34.7643240  89.2785810  46.5550610
  34.2745910  88.7012330  45.2440650  36.6695570  90.5565460  32.9714560
  37.5944880  90.4246640  32.7632850  36.6471360  90.6358280  33.9251010
  36.7434060  91.3276120  35.5971270  35.9485560  91.2621240  36.1264180
  36.9477340  92.2626760  35.5856620  19.9850680  88.6265980  45.5747100
  19.6365500  89.0829800  46.3405280  19.6538380  87.7323110  45.6569530
  27.4975500  89.8177860  49.0966520  27.4364390  90.4099690  49.8461930
  28.4375880  89.7103820  48.9516780  30.1350060  89.4747920  48.7358810
  30.7490470  89.7927210  48.0739890  30.6799620  88.9896510  49.3554670
  20.6571320  88.1542180  48.8497870  21.2054310  87.9730230  48.0863980
  20.7226630  87.3636290  49.3854180  30.8758100  88.0380060  45.0628100
  30.0017940  88.3715170  44.8601030  30.7668850  87.5653240  45.8879970
  31.7830080  90.2450930  46.4469820  31.4543440  89.4302690  46.0671550
  32.7312380  90.2020740  46.3235510  28.6232920  88.9549900  44.0021010
  27.8404710  89.4295400  44.2817770  28.3295850  88.0504730  43.8934190
  33.1753990  89.6573000  42.0470100  33.6162080  89.6018100  41.1991700
  32.9061580  90.5731010  42.1180280  35.0392560  89.2888240  40.0578920
  34.9780960  88.3449460  39.9109940  35.8184590  89.3968330  40.6032380
  19.9673330  89.2597380  36.5234730  20.7252690  89.3726260  35.9498760
  19.5050500  90.0966580  36.4778160  26.5087140  91.3736650  39.5137040
  25.6961650  90.9993540  39.1732920  27.0128780  90.6181730  39.8158230
  31.0112120  88.0379100  40.7520110  31.6141490  88.6099310  41.2268630
  30.2705110  88.6018540  40.5294010  34.1546720  88.4400660  36.0260390
  34.3497350  89.3384110  36.2927820  33.3676590  88.2087740  36.5193340
  22.3398480  89.7861430  35.0636700  22.8691240  88.9991230  34.9344650
  22.9726800  90.4652620  35.2972230  24.5336320  89.5236570  38.1182090
  23.9039060  88.8223880  38.2852220  23.9941460  90.2840700  37.9015250
  24.6591880  88.8020550  50.5534580  24.3776150  89.3054150  49.7895400
  25.0411580  88.0042300  50.1876710  31.2607340  88.2174130  51.1315050
  31.1472790  88.5368740  52.0266570  32.0777080  88.6186640  50.8352330
  30.1665490  96.2366600  21.4949790  30.0859540  95.3221210  21.2241500
  29.7529910  96.7333670  20.7889500  28.2983530  98.0145620  23.3759060
  27.5225630  97.5346060  23.6657630  28.9496460  97.3351270  23.2015220
  22.3149360  98.3265430  24.2534820  21.4834240  98.0714140  24.6531330
  22.9230340  98.3976200  24.9892740  20.7241310  93.2867320  18.0377210
  19.8358010  93.6283290  17.9357090  21.0082500  93.0867640  17.1458040
  18.6874320  95.8872970  23.9216910  19.2590430  95.1195170  23.9220550
  18.6875860  96.1861730  23.0123520  19.9299190  91.2957330  25.7085840
  19.7502030  90.3983080  25.9888600  19.5279270  91.8429200  26.3832790
  28.7697690  93.4973190  23.6098150  29.1462510  92.6245070  23.4971820
  28.6717200  93.8331890  22.7188590  22.9002700  91.8698820  19.0715590
  23.0069450  92.7702550  19.3784350  21.9895060  91.8216790  18.7810240
  32.5521810  90.9923630  20.5426490  33.3731430  90.5020200  20.5851970
  32.5855890  91.5821290  21.2958330  20.5485860  93.7917830  24.3168180
  21.2295970  94.0556200  24.9355580  20.2333910  92.9518700  24.6506190
  24.7410430  94.8385190  23.4040770  25.2488650  95.3366160  24.0445790
  25.2723670  94.0620390  23.2280130  36.8421360  93.0090380  27.1070120
  36.1373530  93.3972090  26.5885230  37.1079280  93.7040670  27.7091050
  23.0246530  89.4783750  27.6704190  23.0264970  89.9956140  26.8650090
  22.1950840  89.0013930  27.6474120  32.7883290  92.9324010  23.3154030
  32.0838860  93.2208900  23.8957140  33.1495450  93.7424120  22.9553590
  22.7061860  91.1893710  25.6774640  23.0478670  92.0335760  25.3828510
  21.7677670  91.3377450  25.7939980  35.8570210  92.3778800  23.7063240
  34.9095120  92.4117780  23.8378670  36.1820200  93.1917750  24.0912600
  26.3889750  88.6775980  22.0019230  26.6964730  88.1222870  21.2854730
  25.4590450  88.8120440  21.8192220  28.7770510  96.7424810  18.7379350
  27.8499790  96.6762190  18.9667820  28.9295330  97.6804940  18.6234590
  28.7639590  93.0141810  15.7346510  27.8243260  93.1755770  15.8198970
  29.0822850  93.7327490  15.1882500  35.2852350  97.6960330  25.7125540
  34.4570980  97.7653420  25.2375670  35.8802830  98.2814640  25.2441370
  32.8067800  98.3045110  19.2414600  32.1880220  97.9664660  18.5940900
  32.7892250  97.6604870  19.9493790  32.2494360  94.4829650  26.6580410
  31.8365540  95.3083360  26.9120400  31.5170310  93.8974690  26.4656770
  24.3827150  97.2689550  21.5199080  23.9784150  96.5566800  21.0244980
  24.4690270  96.9242790  22.4087120  23.0955770  94.0432760  25.2998120
  23.6470360  94.1528100  24.5251370  23.6099280  94.4170360  26.0153350
  30.9832500  97.5431920  16.2487350  31.4225780  96.7054350  16.1025170
  31.6960920  98.1761320  16.3351490  22.7698500  97.5652120  28.9103460
  22.6306270  98.4374920  29.2790860  21.8879860  97.2224930  28.7651400
  34.5649640  88.7974730  14.5628390  34.2522300  88.8901560  15.4627460
  35.3262110  89.3755760  14.5125820  21.0831780  96.1634530  19.0205730
  20.9629380  96.8896620  18.4087000  20.7732670  95.3937440  18.5433640
  35.7750930  93.5346230  30.5402530  35.1595200  94.0425900  30.0117990
  35.4547350  92.6344560  30.4828470  23.5495440  89.5069600  22.4029400
  23.1063590  90.2879140  22.0713920  24.1080430  89.8299490  23.1100340
  27.8365250  92.3738120  28.0064720  27.3744620  92.5821140  28.8184660
  27.4343360  91.5597470  27.7035390  32.8369760  93.5947070  29.1361380
  31.9863350  93.2952820  29.4570450  32.6771550  93.8389080  28.2245200
  29.9319470  95.0948820  31.2360170  30.2572880  94.2612570  30.8962400
  30.7199800  95.6177340  31.3838500  26.6654260  89.1280300  17.2835230
  26.0408440  89.1240170  18.0088540  26.5784380  88.2611260  16.8871200
  25.5871340  90.0516930  24.2619000  25.8843670  90.9579760  24.1811020
  26.1356900  89.5635710  23.6478570  23.3409660  94.6303170  20.1310650
  23.1150580  94.4140340  21.0357270  22.5602190  95.0631630  19.7856620
  30.5707420  94.6366540  18.7301300  29.9716310  95.3602340  18.5464920
  31.1187030  94.5743320  17.9477750  25.7808870  95.5288750  30.7970920
  25.6852470  94.5883480  30.6471320  26.6240850  95.7503820  30.4018990
  29.1772290  93.2730080  20.7604580  29.5701860  93.5902280  19.9473270
  29.5389140  92.3941960  20.8749100  20.9119410  91.9402420  28.9504700
  20.5182800  92.7877630  29.1577480  20.2237810  91.3028790  29.1413340
  27.4864460  92.0237390  32.0201440  26.7962780  91.8309590  32.6547530
  28.2296760  92.3072030  32.5525740  18.2136460  89.8630880  22.9834780
  17.9249510  90.4333740  23.6959760  18.9582220  89.3835330  23.3466010
  18.4006690  93.8051000  14.1937500  18.3181360  94.7481760  14.3352490
  18.0489750  93.6625910  13.3149850  29.7627430  95.8635830  24.8555360
  29.0308550  96.3722640  25.2045460  29.3651770  95.0465810  24.5544140
  26.2004820  92.5390030  23.2607850  26.2040880  92.0979980  22.4112390
  27.0955940  92.8607360  23.3679670  22.0507200  92.4216520  22.2202060
  21.7107250  92.8991750  22.9769110  21.2884520  91.9681640  21.8603160
  26.2624970  93.5402110  16.2514610  26.3837790  93.4988590  17.2000430
  25.8773480  94.4026260  16.0961340  30.2253340  91.3169510  24.2678300
  30.2426080  91.7678160  25.1120150  29.9768920  90.4175150  24.4811740
  25.2746470  95.8503250  15.6497910  24.7063370  95.4021500  15.0233820
  25.9835470  96.2096030  15.1163060  33.6524090  88.7301690  30.1064680
  33.9769860  87.9991350  30.6322660  33.6880600  88.4115330  29.2045670
  26.5012790  96.5991810  25.0073260  26.8682920  96.1250380  25.7534600
  26.3117850  97.4733380  25.3481600  19.3653280  91.3435500  21.1366730
  19.0800200  90.9791170  21.9745350  19.3032140  90.6115960  20.5229870
  24.2912160  95.6400450  27.3257470  23.9869230  96.5192430  27.5507830
  25.2458620  95.7000240  27.3614910  29.0391870  90.2364760  17.8580100
  28.2256480  89.7377930  17.7825410  28.8453820  91.0763010  17.4416450
  31.7540260  94.6084410  16.1542260  32.6419880  94.9201640  15.9793600
  31.7245350  93.7356660  15.7622840  20.3475890  96.4803190  28.4728830
  19.9890830  97.1457040  29.0602170  20.0530450  95.6486740  28.8441450
  23.5489010  96.9387430  31.3568380  23.2489150  97.0844610  30.4596200
  24.3200250  96.3792720  31.2641770  34.0254530  95.9196250  15.6222120
  33.9418250  96.3510470  14.7718560  34.7448720  96.3794600  16.0548940
  18.8583940  96.4794450  15.0963430  19.7278790  96.7619250  15.3799350
  18.3674260  97.2930320  14.9812240  26.0218750  97.8667660  19.2171710
  26.4781530  98.6772910  19.4431900  25.6706960  97.5490800  20.0490200
  21.9230530  88.2105310  19.6894230  21.7945160  88.2023210  20.6379150
  21.0992550  88.5488400  19.3385240  18.9224460  89.9696430  29.1500930
  18.2082980  90.1693350  29.7553540  19.3419500  89.1936000  29.5215730
  30.4163240  92.4618740  26.9002380  30.7844060  91.6413950  27.2281950
  29.5561440  92.5220630  27.3158030  33.7825270  91.4175680  17.7089940
  33.1538430  91.5221350  16.9948170  33.2877190  91.6372460  18.4983820
  25.7509300  93.6961630  19.1247820  25.0425450  94.1647970  19.5661430
  26.0353780  93.0383640  19.7593010  27.3765230  95.1158330  27.1240350
  27.8750480  95.5904150  27.7892200  27.5188180  94.1921850  27.3310380
  29.7824730  90.4212290  20.5643610  29.6592510  90.4398420  19.6153120
  30.7309290  90.4691230  20.6842010  23.9544320  92.0046710  16.4998530
  24.8034850  92.4416860  16.4338720  23.5875590  92.3166970  17.3270590
  34.5832090  91.3326290  27.9668740  34.0805690  92.0731690  28.3062550
  35.3988750  91.7210290  27.6505530  32.8754100  96.5759470  21.4130100
  31.9344240  96.5909700  21.5877790  33.1898170  95.7895430  21.8590400
  22.8535740  98.2579070  14.9734060  23.6199010  98.1460430  15.5359490
  22.9310430  97.5617040  14.3210830  21.5482500  95.6904140  15.6566950
  21.6286090  94.7431650  15.7684350  22.4402250  96.0211020  15.7627610
  19.0753300  97.5119060  30.8923120  19.5792320  96.9326340  31.4639350
  18.3360720  97.7959290  31.4299490  21.1076380  95.6548650  31.7873190
  21.1481720  95.3562520  32.6958420  21.9621880  96.0556260  31.6280710
  24.8854770  98.2544200  16.9476700  25.3071190  98.0884070  17.7908090
  25.0105610  97.4444430  16.4531840  23.0482190  94.2340750  29.7547680
  22.5178650  93.7431700  29.1271020  23.7170260  94.6624950  29.2205610
  27.3982410  97.2781810  14.1953800  27.9188070  96.5630830  13.8294950
  28.0450810  97.9167680  14.4954310  32.4182420  96.0406370  31.5228020
  33.0003190  95.2858690  31.4348500  32.5944190  96.5713810  30.7459500
  23.5354490  91.2003120  29.8344970  23.4411360  90.5823870  29.1095840
  22.9551880  91.9269410  29.6074880  26.3015930  89.7576360  26.8672360
  25.8533230  89.7800620  26.0217910  25.6681130  89.3595380  27.4642660
  29.0439380  96.3846870  28.8722640  29.1635590  95.7888010  29.6117480
  29.9033380  96.4216560  28.4523940  31.3827280  96.9384060  27.4485150
  30.8562500  97.4626680  26.8450290  31.7258620  97.5711450  28.0794880
  23.7813670  94.3277430  13.8934860  23.5802730  93.4644790  14.2548200
  23.6105720  94.2410790  12.9556460  25.8108150  92.9268220  30.1298460
  26.4007840  92.6184070  30.8176280  24.9928390  92.4547970  30.2858360
  30.6301580  92.5434030  30.3631480  29.9417100  91.8815570  30.2981470
  31.3507600  92.0972300  30.8079940  31.2601980  89.1385660  16.4221740
  31.5404270  88.2953560  16.7781160  30.4867710  89.3708770  16.9360490
  22.5796470  91.4278050  13.8812740  22.8822370  91.4345480  12.9731890
  23.3191060  91.0775910  14.3780400  25.7981400  90.3712670  14.8668940
  25.4503400  89.6936660  14.2871390  25.9994170  89.9102180  15.6812330
  19.1387040  96.9000320  21.2633310  18.4835880  96.6311960  20.6193010
  19.9764990  96.7904800  20.8135290  32.0877480  91.6941610  15.4851800
  32.5062360  91.5072590  14.6448460  31.7813540  90.8420660  15.7954730
  35.5867210  96.6065750  19.1827600  35.2110810  95.8393680  18.7508890
  34.8570330  96.9888450  19.6702530  20.1762970  97.2852890  25.8036650
  20.5436010  97.1980290  26.6832670  19.6073790  96.5219440  25.7043510
  34.9766830  95.7537270  28.8167120  34.7452920  95.5250020  27.9165070
  35.2371380  96.6736820  28.7712010  19.7278970  94.1961980  29.7095070
  18.8335020  94.1628740  30.0488780  20.2676520  94.3948770  30.4746320
  33.4154900  90.9793700  31.5946820  34.2925080  90.9877100  31.9780820
  33.4275740  90.2424540  30.9839170  18.3525120  94.1099250  17.2058640
  17.4489200  94.3729450  17.0310300  18.8365740  94.3810420  16.4258600
  34.8618170  94.8323240  22.4834840  35.3855650  94.3385890  21.8525010
  35.4477590  94.9673600  23.2282410  35.0407890  94.9163110  26.0054390
  34.0910600  94.8826650  26.1199380  35.2220900  95.8263220  25.7704160
  20.8952330  93.1664790  15.1153020  21.6044030  92.7448010  14.6300300
  20.1792270  93.2340020  14.4836370  20.5426490  89.2204120  14.1555670
  21.2654620  89.7613060  14.4736890  20.8151010  88.9467540  13.2797210
  34.3518140  94.0896590  18.4227250  34.8477260  93.8567460  19.2076130
  34.1534210  93.2508430  18.0064890  20.2318680  88.4710310  24.0578290
  20.8794870  87.9207690  23.6173450  20.6520520  88.7253460  24.8794100
  35.7805300  92.7257540  20.9564930  35.6704580  92.5713580  21.8947200
  36.5412890  92.1978480  20.7140340  34.1271020  88.6651670  27.4147930
  34.7643240  89.2785810  27.7807120  34.2745910  88.7012330  26.4697160
  36.6695570  90.5565460  14.1971070  37.5944880  90.4246640  13.9889360
  36.6471360  90.6358280  15.1507520  36.7434060  91.3276120  16.8227780
  35.9485560  91.2621240  17.3520690  36.9477340  92.2626760  16.8113130
  19.9850680  88.6265980  26.8003610  19.6365500  89.0829800  27.5661790
  19.6538380  87.7323110  26.8826040  27.4975500  89.8177860  30.3223030
  27.4364390  90.4099690  31.0718440  28.4375880  89.7103820  30.1773290
  30.1350060  89.4747920  29.9615320  30.7490470  89.7927210  29.2996400
  30.6799620  88.9896510  30.5811180  20.6571320  88.1542180  30.0754380
  21.2054310  87.9730230  29.3120490  20.7226630  87.3636290  30.6110690
  30.8758100  88.0380060  26.2884610  30.0017940  88.3715170  26.0857540
  30.7668850  87.5653240  27.1136480  31.7830080  90.2450930  27.6726330
  31.4543440  89.4302690  27.2928060  32.7312380  90.2020740  27.5492020
  28.6232920  88.9549900  25.2277520  27.8404710  89.4295400  25.5074280
  28.3295850  88.0504730  25.1190700  33.1753990  89.6573000  23.2726610
  33.6162080  89.6018100  22.4248210  32.9061580  90.5731010  23.3436790
  35.0392560  89.2888240  21.2835430  34.9780960  88.3449460  21.1366450
  35.8184590  89.3968330  21.8288890  19.9673330  89.2597380  17.7491240
  20.7252690  89.3726260  17.1755270  19.5050500  90.0966580  17.7034670
  26.5087140  91.3736650  20.7393550  25.6961650  90.9993540  20.3989430
  27.0128780  90.6181730  21.0414740  31.0112120  88.0379100  21.9776620
  31.6141490  88.6099310  22.4525140  30.2705110  88.6018540  21.7550520
  34.1546720  88.4400660  17.2516900  34.3497350  89.3384110  17.5184330
  33.3676590  88.2087740  17.7449850  22.3398480  89.7861430  16.2893210
  22.8691240  88.9991230  16.1601160  22.9726800  90.4652620  16.5228740
  24.5336320  89.5236570  19.3438600  23.9039060  88.8223880  19.5108730
  23.9941460  90.2840700  19.1271760  24.6591880  88.8020550  31.7791090
  24.3776150  89.3054150  31.0151910  25.0411580  88.0042300  31.4133220
  31.2607340  88.2174130  32.3571560  31.1472790  88.5368740  33.2523080
  32.0777080  88.6186640  32.0608840  30.1665490  96.2366600   2.7206300
  30.0859540  95.3221210   2.4498010  29.7529910  96.7333670   2.0146010
  28.2983530  98.0145620   4.6015570  27.5225630  97.5346060   4.8914140
  28.9496460  97.3351270   4.4271730  22.3149360  98.3265430   5.4791330
  21.4834240  98.0714140   5.8787840  22.9230340  98.3976200   6.2149250
  18.6874320  95.8872970   5.1473420  19.2590430  95.1195170   5.1477060
  18.6875860  96.1861730   4.2380030  19.9299190  91.2957330   6.9342350
  19.7502030  90.3983080   7.2145110  19.5279270  91.8429200   7.6089300
  28.7697690  93.4973190   4.8354660  29.1462510  92.6245070   4.7228330
  28.6717200  93.8331890   3.9445100  32.5521810  90.9923630   1.7683000
  33.3731430  90.5020200   1.8108480  32.5855890  91.5821290   2.5214840
  20.5485860  93.7917830   5.5424690  21.2295970  94.0556200   6.1612090
  20.2333910  92.9518700   5.8762700  24.7410430  94.8385190   4.6297280
  25.2488650  95.3366160   5.2702300  25.2723670  94.0620390   4.4536640
  36.8421360  93.0090380   8.3326630  36.1373530  93.3972090   7.8141740
  37.1079280  93.7040670   8.9347560  23.0246530  89.4783750   8.8960700
  23.0264970  89.9956140   8.0906600  22.1950840  89.0013930   8.8730630
  32.7883290  92.9324010   4.5410540  32.0838860  93.2208900   5.1213650
  33.1495450  93.7424120   4.1810100  22.7061860  91.1893710   6.9031150
  23.0478670  92.0335760   6.6085020  21.7677670  91.3377450   7.0196490
  35.8570210  92.3778800   4.9319750  34.9095120  92.4117780   5.0635180
  36.1820200  93.1917750   5.3169110  26.3889750  88.6775980   3.2275740
  26.6964730  88.1222870   2.5111240  25.4590450  88.8120440   3.0448730
  35.2852350  97.6960330   6.9382050  34.4570980  97.7653420   6.4632180
  35.8802830  98.2814640   6.4697880  32.2494360  94.4829650   7.8836920
  31.8365540  95.3083360   8.1376910  31.5170310  93.8974690   7.6913280
  24.3827150  97.2689550   2.7455590  23.9784150  96.5566800   2.2501490
  24.4690270  96.9242790   3.6343630  23.0955770  94.0432760   6.5254630
  23.6470360  94.1528100   5.7507880  23.6099280  94.4170360   7.2409860
  22.7698500  97.5652120  10.1359970  22.6306270  98.4374920  10.5047370
  21.8879860  97.2224930   9.9907910  35.7750930  93.5346230  11.7659040
  35.1595200  94.0425900  11.2374500  35.4547350  92.6344560  11.7084980
  23.5495440  89.5069600   3.6285910  23.1063590  90.2879140   3.2970430
  24.1080430  89.8299490   4.3356850  27.8365250  92.3738120   9.2321230
  27.3744620  92.5821140  10.0441170  27.4343360  91.5597470   8.9291900
  32.8369760  93.5947070  10.3617890  31.9863350  93.2952820  10.6826960
  32.6771550  93.8389080   9.4501710  29.9319470  95.0948820  12.4616680
  30.2572880  94.2612570  12.1218910  30.7199800  95.6177340  12.6095010
  25.5871340  90.0516930   5.4875510  25.8843670  90.9579760   5.4067530
  26.1356900  89.5635710   4.8735080  25.7808870  95.5288750  12.0227430
  25.6852470  94.5883480  11.8727830  26.6240850  95.7503820  11.6275500
  20.9119410  91.9402420  10.1761210  20.5182800  92.7877630  10.3833990
  20.2237810  91.3028790  10.3669850  27.4864460  92.0237390  13.2457950
  26.7962780  91.8309590  13.8804040  28.2296760  92.3072030  13.7782250
  18.2136460  89.8630880   4.2091290  17.9249510  90.4333740   4.9216270
  18.9582220  89.3835330   4.5722520  29.7627430  95.8635830   6.0811870
  29.0308550  96.3722640   6.4301970  29.3651770  95.0465810   5.7800650
  26.2004820  92.5390030   4.4864360  26.2040880  92.0979980   3.6368900
  27.0955940  92.8607360   4.5936180  22.0507200  92.4216520   3.4458570
  21.7107250  92.8991750   4.2025620  21.2884520  91.9681640   3.0859670
  30.2253340  91.3169510   5.4934810  30.2426080  91.7678160   6.3376660
  29.9768920  90.4175150   5.7068250  33.6524090  88.7301690  11.3321190
  33.9769860  87.9991350  11.8579170  33.6880600  88.4115330  10.4302180
  26.5012790  96.5991810   6.2329770  26.8682920  96.1250380   6.9791110
  26.3117850  97.4733380   6.5738110  19.3653280  91.3435500   2.3623240
  19.0800200  90.9791170   3.2001860  19.3032140  90.6115960   1.7486380
  24.2912160  95.6400450   8.5513980  23.9869230  96.5192430   8.7764340
  25.2458620  95.7000240   8.5871420  20.3475890  96.4803190   9.6985340
  19.9890830  97.1457040  10.2858680  20.0530450  95.6486740  10.0697960
  23.5489010  96.9387430  12.5824890  23.2489150  97.0844610  11.6852710
  24.3200250  96.3792720  12.4898280  18.9224460  89.9696430  10.3757440
  18.2082980  90.1693350  10.9810050  19.3419500  89.1936000  10.7472240
  30.4163240  92.4618740   8.1258890  30.7844060  91.6413950   8.4538460
  29.5561440  92.5220630   8.5414540  27.3765230  95.1158330   8.3496860
  27.8750480  95.5904150   9.0148710  27.5188180  94.1921850   8.5566890
  34.5832090  91.3326290   9.1925250  34.0805690  92.0731690   9.5319060
  35.3988750  91.7210290   8.8762040  32.8754100  96.5759470   2.6386610
  31.9344240  96.5909700   2.8134300  33.1898170  95.7895430   3.0846910
  19.0753300  97.5119060  12.1179630  19.5792320  96.9326340  12.6895860
  18.3360720  97.7959290  12.6556000  21.1076380  95.6548650  13.0129700
  21.1481720  95.3562520  13.9214930  21.9621880  96.0556260  12.8537220
  23.0482190  94.2340750  10.9804190  22.5178650  93.7431700  10.3527530
  23.7170260  94.6624950  10.4462120  32.4182420  96.0406370  12.7484530
  33.0003190  95.2858690  12.6605010  32.5944190  96.5713810  11.9716010
  23.5354490  91.2003120  11.0601480  23.4411360  90.5823870  10.3352350
  22.9551880  91.9269410  10.8331390  26.3015930  89.7576360   8.0928870
  25.8533230  89.7800620   7.2474420  25.6681130  89.3595380   8.6899170
  29.0439380  96.3846870  10.0979150  29.1635590  95.7888010  10.8373990
  29.9033380  96.4216560   9.6780450  31.3827280  96.9384060   8.6741660
  30.8562500  97.4626680   8.0706800  31.7258620  97.5711450   9.3051390
  25.8108150  92.9268220  11.3554970  26.4007840  92.6184070  12.0432790
  24.9928390  92.4547970  11.5114870  30.6301580  92.5434030  11.5887990
  29.9417100  91.8815570  11.5237980  31.3507600  92.0972300  12.0336450
  19.1387040  96.9000320   2.4889820  18.4835880  96.6311960   1.8449520
  19.9764990  96.7904800   2.0391800  20.1762970  97.2852890   7.0293160
  20.5436010  97.1980290   7.9089180  19.6073790  96.5219440   6.9300020
  34.9766830  95.7537270  10.0423630  34.7452920  95.5250020   9.1421580
  35.2371380  96.6736820   9.9968520  19.7278970  94.1961980  10.9351580
  18.8335020  94.1628740  11.2745290  20.2676520  94.3948770  11.7002830
  33.4154900  90.9793700  12.8203330  34.2925080  90.9877100  13.2037330
  33.4275740  90.2424540  12.2095680  34.8618170  94.8323240   3.7091350
  35.3855650  94.3385890   3.0781520  35.4477590  94.9673600   4.4538920
  35.0407890  94.9163110   7.2310900  34.0910600  94.8826650   7.3455890
  35.2220900  95.8263220   6.9960670  20.2318680  88.4710310   5.2834800
  20.8794870  87.9207690   4.8429960  20.6520520  88.7253460   6.1050610
  35.7805300  92.7257540   2.1821440  35.6704580  92.5713580   3.1203710
  36.5412890  92.1978480   1.9396850  34.1271020  88.6651670   8.6404440
  34.7643240  89.2785810   9.0063630  34.2745910  88.7012330   7.6953670
  19.9850680  88.6265980   8.0260120  19.6365500  89.0829800   8.7918300
  19.6538380  87.7323110   8.1082550  27.4975500  89.8177860  11.5479540
  27.4364390  90.4099690  12.2974950  28.4375880  89.7103820  11.4029800
  30.1350060  89.4747920  11.1871830  30.7490470  89.7927210  10.5252910
  30.6799620  88.9896510  11.8067690  20.6571320  88.1542180  11.3010890
  21.2054310  87.9730230  10.5377000  20.7226630  87.3636290  11.8367200
  30.8758100  88.0380060   7.5141120  30.0017940  88.3715170   7.3114050
  30.7668850  87.5653240   8.3392990  31.7830080  90.2450930   8.8982840
  31.4543440  89.4302690   8.5184570  32.7312380  90.2020740   8.7748530
  28.6232920  88.9549900   6.4534030  27.8404710  89.4295400   6.7330790
  28.3295850  88.0504730   6.3447210  33.1753990  89.6573000   4.4983120
  33.6162080  89.6018100   3.6504720  32.9061580  90.5731010   4.5693300
  35.0392560  89.2888240   2.5091940  34.9780960  88.3449460   2.3622960
  35.8184590  89.3968330   3.0545400  26.5087140  91.3736650   1.9650060
  25.6961650  90.9993540   1.6245940  27.0128780  90.6181730   2.2671250
  31.0112120  88.0379100   3.2033130  31.6141490  88.6099310   3.6781650
  30.2705110  88.6018540   2.9807030  24.6591880  88.8020550  13.0047600
  24.3776150  89.3054150  12.2408420  25.0411580  88.0042300  12.6389730
  31.2607340  88.2174130  13.5828070  31.1472790  88.5368740  14.4779590
  32.0777080  88.6186640  13.2865350  30.1665490  77.4623110  59.0436770
  30.0859540  76.5477720  58.7728480  29.7529910  77.9590180  58.3376480
  28.2983530  79.2402130  60.9246040  27.5225630  78.7602570  61.2144610
  28.9496460  78.5607780  60.7502200  22.3149360  79.5521940  61.8021800
  21.4834240  79.2970650  62.2018310  22.9230340  79.6232710  62.5379720
  32.3190960  83.6462320  59.7045170  31.8572490  82.8749560  60.0332340
  33.1316510  83.6728390  60.2097620  22.2950620  83.5862030  61.9979820
  22.5978660  82.6959770  61.8190040  23.0394210  84.1432250  61.7702070
  20.7241310  74.5123830  55.5864190  19.8358010  74.8539800  55.4844070
  21.0082500  74.3124150  54.6945020  18.6874320  77.1129480  61.4703890
  19.2590430  76.3451680  61.4707530  18.6875860  77.4118240  60.5610500
  28.5454270  85.9320330  59.3249160  27.9265710  86.3877830  58.7543600
  29.4006050  86.0871790  58.9238860  27.7392520  81.9159320  60.9316200
  27.6700800  80.9749260  60.7705330  28.5012380  82.0060730  61.5038770
  28.7697690  74.7229700  61.1585130  29.1462510  73.8501580  61.0458800
  28.6717200  75.0588400  60.2675570  22.9002700  73.0955330  56.6202570
  23.0069450  73.9959060  56.9271330  21.9895060  73.0473300  56.3297220
  32.5521810  72.2180140  58.0913470  33.3731430  71.7276710  58.1338950
  32.5855890  72.8077800  58.8445310  20.5485860  75.0174340  61.8655160
  21.2295970  75.2812710  62.4842560  20.2333910  74.1775210  62.1993170
  24.7410430  76.0641700  60.9527750  25.2488650  76.5622670  61.5932770
  25.2723670  75.2876900  60.7767110  29.4117620  80.8159570  56.7181070
  28.7934890  81.2809020  56.1543790  29.9240870  81.5087050  57.1350580
  32.7883290  74.1580520  60.8641010  32.0838860  74.4465410  61.4444120
  33.1495450  74.9680630  60.5040570  22.7061860  72.4150220  63.2261620
  23.0478670  73.2592270  62.9315490  21.7677670  72.5633960  63.3426960
  18.7800820  81.5016100  54.0920700  18.4028800  81.9903200  53.3605600
  19.0373890  82.1741380  54.7227230  34.4046070  83.7755650  63.1268490
  33.7209590  84.4454760  63.1185160  34.9440360  83.9736300  62.3613350
  35.8570210  73.6035310  61.2550220  34.9095120  73.6374290  61.3865650
  36.1820200  74.4174260  61.6399580  26.3889750  69.9032490  59.5506210
  26.6964730  69.3479380  58.8341710  25.4590450  70.0376950  59.3679200
  31.9404810  85.6199780  61.8413670  31.9531970  85.2162070  60.9735930
  31.3880030  86.3947070  61.7375100  33.2350230  82.3416000  56.9303840
  33.1246560  81.3990330  57.0553260  33.2318480  82.7031640  57.8166600
  28.7770510  77.9681320  56.2866330  27.8499790  77.9018700  56.5154800
  28.9295330  78.9061450  56.1721570  28.7639590  74.2398320  53.2833490
  27.8243260  74.4012280  53.3685950  29.0822850  74.9584000  52.7369480
  35.2852350  78.9216840  63.2612520  34.4570980  78.9909930  62.7862650
  35.8802830  79.5071150  62.7928350  32.8067800  79.5301620  56.7901580
  32.1880220  79.1921170  56.1427880  32.7892250  78.8861380  57.4980770
  24.3827150  78.4946060  59.0686060  23.9784150  77.7823310  58.5731960
  24.4690270  78.1499300  59.9574100  24.8508850  82.1813620  61.2325270
  24.5537140  81.5759090  60.5533050  25.8008670  82.2190930  61.1214630
  30.9832500  78.7688430  53.7974330  31.4225780  77.9310860  53.6512150
  31.6960920  79.4017830  53.8838470  29.0927880  83.7084500  57.7655570
  29.5323790  84.4508830  57.3510960  29.0314770  83.9511070  58.6894530
  34.5649640  70.0231240  52.1115370  34.2522300  70.1158070  53.0114440
  35.3262110  70.6012270  52.0612800  21.0831780  77.3891040  56.5692710
  20.9629380  78.1153130  55.9573980  20.7732670  76.6193950  56.0920620
  18.7217150  80.5606180  62.3761350  18.7997570  80.6954950  61.4317070
  19.3358830  79.8522070  62.5689470  19.9664780  82.2606370  58.7867530
  19.5592860  82.4020960  57.9321130  20.8577790  81.9766530  58.5838740
  31.7598060  86.6953620  55.1218580  31.5999200  86.4056560  56.0200410
  31.5944770  85.9193750  54.5863810  24.2386440  86.4752150  56.8990200
  24.0628920  85.5587690  56.6858000  23.3842180  86.8339440  57.1388000
  31.4624190  84.2041180  53.6816580  30.7689350  84.2018470  53.0218860
  32.2047050  83.7800500  53.2510750  31.0274120  85.8303890  57.7565070
  31.4831070  85.0493270  58.0703690  31.3666640  86.5410710  58.3006250
  23.5495440  70.7326110  59.9516380  23.1063590  71.5135650  59.6200900
  24.1080430  71.0556000  60.6587320  26.6654260  70.3536810  54.8322210
  26.0408440  70.3496680  55.5575520  26.5784380  69.4867770  54.4358180
  25.5871340  71.2773440  61.8105980  25.8843670  72.1836270  61.7298000
  26.1356900  70.7892220  61.1965550  23.3409660  75.8559680  57.6797630
  23.1150580  75.6396850  58.5844250  22.5602190  76.2888140  57.3343600
  30.5707420  75.8623050  56.2788280  29.9716310  76.5858850  56.0951900
  31.1187030  75.7999830  55.4964730  29.1772290  74.4986590  58.3091560
  29.5701860  74.8158790  57.4960250  29.5389140  73.6198470  58.4236080
  18.2136460  71.0887390  60.5321760  17.9249510  71.6590250  61.2446740
  18.9582220  70.6091840  60.8952990  18.4006690  75.0307510  51.7424480
  18.3181360  75.9738270  51.8839470  18.0489750  74.8882420  50.8636830
  29.7627430  77.0892340  62.4042340  29.0308550  77.5979150  62.7532440
  29.3651770  76.2722320  62.1031120  26.2004820  73.7646540  60.8094830
  26.2040880  73.3236490  59.9599370  27.0955940  74.0863870  60.9166650
  22.0507200  73.6473030  59.7689040  21.7107250  74.1248260  60.5256090
  21.2884520  73.1938150  59.4090140  26.2624970  74.7658620  53.8001590
  26.3837790  74.7245100  54.7487410  25.8773480  75.6282770  53.6448320
  30.2253340  72.5426020  61.8165280  30.2426080  72.9934670  62.6607130
  29.9768920  71.6431660  62.0298720  25.2746470  77.0759760  53.1984890
  24.7063370  76.6278010  52.5720800  25.9835470  77.4352540  52.6650040
  26.5012790  77.8248320  62.5560240  26.8682920  77.3506890  63.3021580
  26.3117850  78.6989890  62.8968580  19.3653280  72.5692010  58.6853710
  19.0800200  72.2047680  59.5232330  19.3032140  71.8372470  58.0716850
  22.8193950  81.0717950  55.4711300  22.0456210  80.5315570  55.3110020
  23.5488580  80.5524560  55.1329060  33.5781930  80.0683310  61.2637690
  34.2981050  80.5638600  60.8733800  33.3763750  79.3901200  60.6191560
  29.0391870  71.4621270  55.4067080  28.2256480  70.9634440  55.3312390
  28.8453820  72.3019520  54.9903430  31.7540260  75.8340920  53.7029240
  32.6419880  76.1458150  53.5280580  31.7245350  74.9613170  53.3109820
  22.8631350  80.7398330  59.1090110  23.3810020  79.9366590  59.0547000
  22.4115370  80.6777470  59.9506940  27.7500850  82.0064610  54.3817410
  28.0916550  82.7506840  53.8860730  26.9213560  82.3195730  54.7442240
  34.0254530  77.1452760  53.1709100  33.9418250  77.5766980  52.3205540
  34.7448720  77.6051110  53.6035920  35.0541780  83.9995020  55.8991230
  34.4117940  83.3450640  56.1734950  34.6672440  84.4050110  55.1231900
  30.6328260  81.3280450  59.7462920  30.9852080  80.7308580  59.0864290
  29.7490590  81.0024680  59.9171170  26.7191540  82.0878140  57.1533330
  27.4062670  82.6347350  57.5340920  25.9323960  82.6318870  57.1882940
  18.8583940  77.7050960  52.6450410  19.7278790  77.9875760  52.9286330
  18.3674260  78.5186830  52.5299220  26.0218750  79.0924170  56.7658690
  26.4781530  79.9029420  56.9918880  25.6706960  78.7747310  57.5977180
  21.9230530  69.4361820  57.2381210  21.7945160  69.4279720  58.1866130
  21.0992550  69.7744910  56.8872220  29.5983440  82.6062860  62.7128440
  30.2405670  81.9056020  62.8260610  30.1232790  83.3861300  62.5325330
  33.4439160  82.8911480  52.4367580  33.2176740  82.1741920  53.0292220
  33.0535360  82.6423920  51.5989330  19.2255190  86.9178340  53.2112040
  19.5852830  87.5167680  52.5569310  19.0847530  87.4638230  53.9847070
  33.0255410  80.8083420  54.0981740  32.7377110  81.2696110  54.8859620
  33.8207580  80.3481190  54.3665960  25.2423810  84.3009540  54.0285710
  25.2333910  85.0339230  53.4130220  24.3222170  84.0541120  54.1212670
  20.8430450  79.5224430  54.7732470  20.2358400  80.2623330  54.7827770
  21.3179800  79.6123790  53.9470670  33.7825270  72.6432190  55.2576920
  33.1538430  72.7477860  54.5435150  33.2877190  72.8628970  56.0470800
  28.2283410  84.3637780  52.6910900  28.3295390  84.1601770  51.7612880
  27.3285150  84.1096060  52.8958680  25.7509300  74.9218140  56.6734800
  25.0425450  75.3904480  57.1148410  26.0353780  74.2640150  57.3079990
  29.7824730  71.6468800  58.1130590  29.6592510  71.6654930  57.1640100
  30.7309290  71.6947740  58.2328990  26.8701520  86.8824100  57.3858570
  27.1243020  86.8445490  56.4637940  25.9214000  86.7557430  57.3786820
  23.9544320  73.2303220  54.0485510  24.8034850  73.6673370  53.9825700
  23.5875590  73.5423480  54.8757570  32.8754100  77.8015980  58.9617080
  31.9344240  77.8166210  59.1364770  33.1898170  77.0151940  59.4077380
  22.8535740  79.4835580  52.5221040  23.6199010  79.3716940  53.0846470
  22.9310430  78.7873550  51.8697810  21.5482500  76.9160650  53.2053930
  21.6286090  75.9688160  53.3171330  22.4402250  77.2467530  53.3114590
  34.8779680  84.9724830  60.6371340  35.0027100  85.7956000  61.1095150
  35.7445240  84.7615560  60.2895490  22.3497210  87.0656040  60.3088470
  23.0859690  86.5171500  60.5797040  22.7338130  87.9312050  60.1694460
  19.2342690  83.1329610  56.1829980  18.3082470  83.3750750  56.1735390
  19.6999120  83.9603870  56.0614730  25.4599520  86.2386350  52.1314040
  26.2528130  86.5275180  51.6795830  24.9403870  85.8078520  51.4526520
  34.5129690  85.4656480  53.5550780  34.2271200  85.0521620  52.7404960
  34.3149240  86.3944190  53.4351300  25.9776920  81.4589760  51.9956390
  25.8727560  80.8442110  52.7217770  25.8101140  80.9355650  51.2119400
  29.2179650  80.5209790  52.5998380  28.6689750  80.9679090  53.2441120
  29.8398910  80.0159040  53.1236050  24.8854770  79.4800710  54.4963680
  25.3071190  79.3140580  55.3395070  25.0105610  78.6700940  54.0018820
  27.3982410  78.5038320  51.7440780  27.9188070  77.7887340  51.3781930
  28.0450810  79.1424190  52.0441290  23.7813670  75.5533940  51.4421840
  23.5802730  74.6901300  51.8035180  23.6105720  75.4667300  50.5043440
  31.2601980  70.3642170  53.9708720  31.5404270  69.5210070  54.3268140
  30.4867710  70.5965280  54.4847470  22.5796470  72.6534560  51.4299720
  22.8822370  72.6601990  50.5218870  23.3191060  72.3032420  51.9267380
  25.7981400  71.5969180  52.4155920  25.4503400  70.9193170  51.8358370
  25.9994170  71.1358690  53.2299310  27.9630440  86.5849930  54.0342520
  28.8581230  86.9234900  54.0561280  27.9948070  85.8629340  53.4066800
  21.6026600  81.9576980  52.2629520  22.0401470  82.5006650  52.9187100
  22.0874330  81.1323930  52.2725860  18.8172400  84.7466010  59.7149780
  19.1475410  83.8787070  59.4828420  19.2463400  84.9524530  60.5454740
  23.4134320  83.0775020  57.3751750  23.1129860  82.9539990  58.2755660
  23.3071810  82.2183610  56.9667480  19.3062610  85.6136600  62.4531410
  18.8693600  85.7937400  63.2855560  19.8740290  86.3711220  62.3113130
  36.1826240  82.8571420  52.0778430  35.3519200  82.9248070  52.5485660
  36.3598070  83.7475540  51.7745290  35.6382700  79.6018900  54.5812630
  36.4001610  80.1715550  54.6872320  35.6537070  79.0346100  55.3520940
  19.1387040  78.1256830  58.8120290  18.4835880  77.8568470  58.1679990
  19.9764990  78.0161310  58.3622270  36.6442670  80.4569000  59.4254560
  37.0151500  79.6736320  59.0190530  37.2844600  81.1458100  59.2471860
  35.6901870  79.8953270  51.7385150  35.9650710  80.8032150  51.6104370
  35.5012610  79.8315800  52.6747140  32.0877480  72.9198120  53.0338780
  32.5062360  72.7329100  52.1935440  31.7813540  72.0677170  53.3441710
  35.5867210  77.8322260  56.7314580  35.2110810  77.0650190  56.2995870
  34.8570330  78.2144960  57.2189510  18.3525120  75.3355760  54.7545620
  17.4489200  75.5985960  54.5797280  18.8365740  75.6066930  53.9745580
  34.8618170  76.0579750  60.0321820  35.3855650  75.5642400  59.4011990
  35.4477590  76.1930110  60.7769390  20.8952330  74.3921300  52.6640000
  21.6044030  73.9704520  52.1787280  20.1792270  74.4596530  52.0323350
  20.5426490  70.4460630  51.7042650  21.2654620  70.9869570  52.0223870
  20.8151010  70.1724050  50.8284190  34.3518140  75.3153100  55.9714230
  34.8477260  75.0823970  56.7563110  34.1534210  74.4764940  55.5551870
  20.2318680  69.6966820  61.6065270  20.8794870  69.1464200  61.1660430
  20.6520520  69.9509970  62.4281080  35.7805300  73.9514050  58.5051910
  35.6704580  73.7970090  59.4434180  36.5412890  73.4234990  58.2627320
  36.6695570  71.7821970  51.7458050  37.5944880  71.6503150  51.5376340
  36.6471360  71.8614790  52.6994500  36.7434060  72.5532630  54.3714760
  35.9485560  72.4877750  54.9007670  36.9477340  73.4883270  54.3600110
  33.6852480  86.5924180  58.3653150  34.2811550  86.2708750  57.6887570
  33.9430630  86.1196000  59.1566420  34.2364690  87.2419480  62.1950880
  33.7767660  87.9935290  61.8208900  33.6077150  86.5225950  62.1365680
  24.6660410  85.5507720  61.3699010  25.1825430  84.9395080  60.8447270
  25.3157790  86.0536500  61.8610020  27.4055910  86.4416210  62.1967990
  27.6933720  86.1870510  61.3201000  27.9179130  85.8893570  62.7873560
  28.6232920  70.1806410  62.7764500  27.8404710  70.6551910  63.0561260
  28.3295850  69.2761240  62.6677680  33.1753990  70.8829510  60.8213590
  33.6162080  70.8274610  59.9735190  32.9061580  71.7987520  60.8923770
  35.0392560  70.5144750  58.8322410  34.9780960  69.5705970  58.6853430
  35.8184590  70.6224840  59.3775870  19.3445310  86.6537110  57.7946360
  19.1767350  86.0207790  58.4928250  18.4779820  86.8596510  57.4440550
  19.9673330  70.4853890  55.2978220  20.7252690  70.5982770  54.7242250
  19.5050500  71.3223090  55.2521650  26.5087140  72.5993160  58.2880530
  25.6961650  72.2250050  57.9476410  27.0128780  71.8438240  58.5901720
  31.0112120  69.2635610  59.5263600  31.6141490  69.8355820  60.0012120
  30.2705110  69.8275050  59.3037500  34.1546720  69.6657170  54.8003880
  34.3497350  70.5640620  55.0671310  33.3676590  69.4344250  55.2936830
  20.9508010  85.3470340  55.2396500  20.4255630  85.7278370  54.5358460
  20.8752590  85.9721110  55.9606210  22.3398480  71.0117940  53.8380190
  22.8691240  70.2247740  53.7088140  22.9726800  71.6909130  54.0715720
  24.5336320  70.7493080  56.8925580  23.9039060  70.0480390  57.0595710
  23.9941460  71.5097210  56.6758740  35.7073330  86.9057880  56.5610440
  35.8825520  86.2195620  55.9171360  35.0094900  87.4304930  56.1687110
  23.5500980  87.2952720  54.1145750  24.2819800  87.0112000  53.5669640
  23.8094650  87.0566000  55.0045130  22.7115770  83.4117450  54.1192080
  22.0824650  83.8802550  54.6677910  22.8263600  82.5666670  54.5538270
  30.1665490  77.4623110  40.2693280  30.0859540  76.5477720  39.9984990
  29.7529910  77.9590180  39.5632990  28.2983530  79.2402130  42.1502550
  27.5225630  78.7602570  42.4401120  28.9496460  78.5607780  41.9758710
  22.3149360  79.5521940  43.0278310  21.4834240  79.2970650  43.4274820
  22.9230340  79.6232710  43.7636230  32.3190960  83.6462320  40.9301680
  31.8572490  82.8749560  41.2588850  33.1316510  83.6728390  41.4354130
  22.2950620  83.5862030  43.2236330  22.5978660  82.6959770  43.0446550
  23.0394210  84.1432250  42.9958580  20.7241310  74.5123830  36.8120700
  19.8358010  74.8539800  36.7100580  21.0082500  74.3124150  35.9201530
  18.6874320  77.1129480  42.6960400  19.2590430  76.3451680  42.6964040
  18.6875860  77.4118240  41.7867010  28.5454270  85.9320330  40.5505670
  27.9265710  86.3877830  39.9800110  29.4006050  86.0871790  40.1495370
  27.7392520  81.9159320  42.1572710  27.6700800  80.9749260  41.9961840
  28.5012380  82.0060730  42.7295280  19.9299190  72.5213840  44.4829330
  19.7502030  71.6239590  44.7632090  19.5279270  73.0685710  45.1576280
  28.7697690  74.7229700  42.3841640  29.1462510  73.8501580  42.2715310
  28.6717200  75.0588400  41.4932080  22.9002700  73.0955330  37.8459080
  23.0069450  73.9959060  38.1527840  21.9895060  73.0473300  37.5553730
  32.5521810  72.2180140  39.3169980  33.3731430  71.7276710  39.3595460
  32.5855890  72.8077800  40.0701820  20.5485860  75.0174340  43.0911670
  21.2295970  75.2812710  43.7099070  20.2333910  74.1775210  43.4249680
  24.7410430  76.0641700  42.1784260  25.2488650  76.5622670  42.8189280
  25.2723670  75.2876900  42.0023620  36.8421360  74.2346890  45.8813610
  36.1373530  74.6228600  45.3628720  37.1079280  74.9297180  46.4834540
  23.0246530  70.7040260  46.4447680  23.0264970  71.2212650  45.6393580
  22.1950840  70.2270440  46.4217610  29.4117620  80.8159570  37.9437580
  28.7934890  81.2809020  37.3800300  29.9240870  81.5087050  38.3607090
  24.2749380  80.3435440  44.6221180  23.9418760  80.9704360  45.2642250
  24.4516060  80.8697320  43.8422850  32.7883290  74.1580520  42.0897520
  32.0838860  74.4465410  42.6700630  33.1495450  74.9680630  41.7297080
  22.7061860  72.4150220  44.4518130  23.0478670  73.2592270  44.1572000
  21.7677670  72.5633960  44.5683470  23.4868480  82.3116240  46.4370360
  24.1042480  82.9867320  46.1554810  22.6261600  82.7204220  46.3457860
  18.7800820  81.5016100  35.3177210  18.4028800  81.9903200  34.5862110
  19.0373890  82.1741380  35.9483740  34.4046070  83.7755650  44.3525000
  33.7209590  84.4454760  44.3441670  34.9440360  83.9736300  43.5869860
  35.8570210  73.6035310  42.4806730  34.9095120  73.6374290  42.6122160
  36.1820200  74.4174260  42.8656090  26.3889750  69.9032490  40.7762720
  26.6964730  69.3479380  40.0598220  25.4590450  70.0376950  40.5935710
  31.9404810  85.6199780  43.0670180  31.9531970  85.2162070  42.1992440
  31.3880030  86.3947070  42.9631610  33.2350230  82.3416000  38.1560350
  33.1246560  81.3990330  38.2809770  33.2318480  82.7031640  39.0423110
  31.3390250  80.5229620  44.3952790  31.7559040  80.3089730  43.5606250
  32.0630070  80.7802410  44.9661410  28.7770510  77.9681320  37.5122840
  27.8499790  77.9018700  37.7411310  28.9295330  78.9061450  37.3978080
  28.7639590  74.2398320  34.5090000  27.8243260  74.4012280  34.5942460
  29.0822850  74.9584000  33.9625990  35.2852350  78.9216840  44.4869030
  34.4570980  78.9909930  44.0119160  35.8802830  79.5071150  44.0184860
  32.8067800  79.5301620  38.0158090  32.1880220  79.1921170  37.3684390
  32.7892250  78.8861380  38.7237280  32.2494360  75.7086160  45.4323900
  31.8365540  76.5339870  45.6863890  31.5170310  75.1231200  45.2400260
  24.3827150  78.4946060  40.2942570  23.9784150  77.7823310  39.7988470
  24.4690270  78.1499300  41.1830610  24.8508850  82.1813620  42.4581780
  24.5537140  81.5759090  41.7789560  25.8008670  82.2190930  42.3471140
  23.0955770  75.2689270  44.0741610  23.6470360  75.3784610  43.2994860
  23.6099280  75.6426870  44.7896840  32.9394460  85.7545490  46.1204880
  32.4625020  86.5617680  45.9277490  32.2556250  85.1023820  46.2731090
  23.9427280  81.9195310  49.1089580  23.0455810  82.1435280  49.3562980
  23.9680150  82.0430250  48.1600980  30.9832500  78.7688430  35.0230840
  31.4225780  77.9310860  34.8768660  31.6960920  79.4017830  35.1094980
  22.7698500  78.7908630  47.6846950  22.6306270  79.6631430  48.0534350
  21.8879860  78.4481440  47.5394890  29.0927880  83.7084500  38.9912080
  29.5323790  84.4508830  38.5767470  29.0314770  83.9511070  39.9151040
  24.5678850  84.7330330  49.8932100  24.5394280  85.1373280  49.0260530
  24.4043820  83.8040690  49.7303700  21.0831780  77.3891040  37.7949220
  20.9629380  78.1153130  37.1830490  20.7732670  76.6193950  37.3177130
  36.5193670  85.5157430  51.1896270  36.9953390  85.9940320  51.8685350
  37.1400830  85.4474920  50.4641770  18.7217150  80.5606180  43.6017860
  18.7997570  80.6954950  42.6573580  19.3358830  79.8522070  43.7945980
  19.9664780  82.2606370  40.0124040  19.5592860  82.4020960  39.1577640
  20.8577790  81.9766530  39.8095250  35.9226920  82.7070280  48.3496280
  36.0489980  82.4682160  47.4313460  35.9648300  81.8754820  48.8218360
  29.7843660  86.4098280  46.9191090  30.2988330  86.3206290  47.7213520
  28.9412740  86.7557980  47.2119000  31.7598060  86.6953620  36.3475090
  31.5999200  86.4056560  37.2456920  31.5944770  85.9193750  35.8120320
  24.2386440  86.4752150  38.1246710  24.0628920  85.5587690  37.9114510
  23.3842180  86.8339440  38.3644510  31.4624190  84.2041180  34.9073090
  30.7689350  84.2018470  34.2475370  32.2047050  83.7800500  34.4767260
  31.0274120  85.8303890  38.9821580  31.4831070  85.0493270  39.2960200
  31.3666640  86.5410710  39.5262760  35.7750930  74.7602740  49.3146020
  35.1595200  75.2682410  48.7861480  35.4547350  73.8601070  49.2571960
  18.7776670  81.6020350  46.1412320  18.9407710  81.1325710  45.3231690
  19.2429120  81.0943910  46.8061160  23.5495440  70.7326110  41.1772890
  23.1063590  71.5135650  40.8457410  24.1080430  71.0556000  41.8843830
  27.8365250  73.5994630  46.7808210  27.3744620  73.8077650  47.5928150
  27.4343360  72.7853980  46.4778880  32.8369760  74.8203580  47.9104870
  31.9863350  74.5209330  48.2313940  32.6771550  75.0645590  46.9988690
  29.9319470  76.3205330  50.0103660  30.2572880  75.4869080  49.6705890
  30.7199800  76.8433850  50.1581990  26.6654260  70.3536810  36.0578720
  26.0408440  70.3496680  36.7832030  26.5784380  69.4867770  35.6614690
  25.5871340  71.2773440  43.0362490  25.8843670  72.1836270  42.9554510
  26.1356900  70.7892220  42.4222060  23.3409660  75.8559680  38.9054140
  23.1150580  75.6396850  39.8100760  22.5602190  76.2888140  38.5600110
  30.5707420  75.8623050  37.5044790  29.9716310  76.5858850  37.3208410
  31.1187030  75.7999830  36.7221240  25.7808870  76.7545260  49.5714410
  25.6852470  75.8139990  49.4214810  26.6240850  76.9760330  49.1762480
  29.1772290  74.4986590  39.5348070  29.5701860  74.8158790  38.7216760
  29.5389140  73.6198470  39.6492590  20.9119410  73.1658930  47.7248190
  20.5182800  74.0134140  47.9320970  20.2237810  72.5285300  47.9156830
  27.4864460  73.2493900  50.7944930  26.7962780  73.0566100  51.4291020
  28.2296760  73.5328540  51.3269230  18.2136460  71.0887390  41.7578270
  17.9249510  71.6590250  42.4703250  18.9582220  70.6091840  42.1209500
  18.4006690  75.0307510  32.9680990  18.3181360  75.9738270  33.1095980
  18.0489750  74.8882420  32.0893340  29.7627430  77.0892340  43.6298850
  29.0308550  77.5979150  43.9788950  29.3651770  76.2722320  43.3287630
  26.2004820  73.7646540  42.0351340  26.2040880  73.3236490  41.1855880
  27.0955940  74.0863870  42.1423160  22.0507200  73.6473030  40.9945550
  21.7107250  74.1248260  41.7512600  21.2884520  73.1938150  40.6346650
  26.2624970  74.7658620  35.0258100  26.3837790  74.7245100  35.9743920
  25.8773480  75.6282770  34.8704830  30.2253340  72.5426020  43.0421790
  30.2426080  72.9934670  43.8863640  29.9768920  71.6431660  43.2555230
  25.2746470  77.0759760  34.4241400  24.7063370  76.6278010  33.7977310
  25.9835470  77.4352540  33.8906550  33.6524090  69.9558200  48.8808170
  33.9769860  69.2247860  49.4066150  33.6880600  69.6371840  47.9789160
  20.3515650  80.9771780  48.3008130  19.9670440  80.3365450  48.8991090
  20.6627840  81.6807900  48.8702860  26.5012790  77.8248320  43.7816750
  26.8682920  77.3506890  44.5278090  26.3117850  78.6989890  44.1225090
  19.3653280  72.5692010  39.9110220  19.0800200  72.2047680  40.7488840
  19.3032140  71.8372470  39.2973360  24.2912160  76.8656960  46.1000960
  23.9869230  77.7448940  46.3251320  25.2458620  76.9256750  46.1358400
  22.8193950  81.0717950  36.6967810  22.0456210  80.5315570  36.5366530
  23.5488580  80.5524560  36.3585570  33.5781930  80.0683310  42.4894200
  34.2981050  80.5638600  42.0990310  33.3763750  79.3901200  41.8448070
  29.0391870  71.4621270  36.6323590  28.2256480  70.9634440  36.5568900
  28.8453820  72.3019520  36.2159940  28.9600730  80.1392370  48.3763200
  28.8938040  79.2188040  48.1220790  28.3305870  80.2367810  49.0907840
  31.7540260  75.8340920  34.9285750  32.6419880  76.1458150  34.7537090
  31.7245350  74.9613170  34.5366330  22.8631350  80.7398330  40.3346620
  23.3810020  79.9366590  40.2803510  22.4115370  80.6777470  41.1763450
  27.7500850  82.0064610  35.6073920  28.0916550  82.7506840  35.1117240
  26.9213560  82.3195730  35.9698750  20.3475890  77.7059700  47.2472320
  19.9890830  78.3713550  47.8345660  20.0530450  76.8743250  47.6184940
  23.5489010  78.1643940  50.1311870  23.2489150  78.3101120  49.2339690
  24.3200250  77.6049230  50.0385260  28.8917460  82.9612940  48.1267000
  28.9062000  82.0293900  47.9085910  28.1842560  83.0472700  48.7656770
  34.0254530  77.1452760  34.3965610  33.9418250  77.5766980  33.5462050
  34.7448720  77.6051110  34.8292430  35.1028670  79.6020280  47.4735580
  34.3776860  80.1949060  47.2764970  35.6304130  79.5943820  46.6748950
  35.0541780  83.9995020  37.1247740  34.4117940  83.3450640  37.3991460
  34.6672440  84.4050110  36.3488410  30.6328260  81.3280450  40.9719430
  30.9852080  80.7308580  40.3120800  29.7490590  81.0024680  41.1427680
  26.7191540  82.0878140  38.3789840  27.4062670  82.6347350  38.7597430
  25.9323960  82.6318870  38.4139450  18.8583940  77.7050960  33.8706920
  19.7278790  77.9875760  34.1542840  18.3674260  78.5186830  33.7555730
  26.0218750  79.0924170  37.9915200  26.4781530  79.9029420  38.2175390
  25.6706960  78.7747310  38.8233690  28.3251360  84.6030510  45.2207500
  28.9693580  84.8089890  45.8980920  28.6880800  83.8418910  44.7678350
  21.9230530  69.4361820  38.4637720  21.7945160  69.4279720  39.4122640
  21.0992550  69.7744910  38.1128730  29.5983440  82.6062860  43.9384950
  30.2405670  81.9056020  44.0517120  30.1232790  83.3861300  43.7581840
  33.4439160  82.8911480  33.6624090  33.2176740  82.1741920  34.2548730
  33.0535360  82.6423920  32.8245840  31.3721060  83.4057760  47.1421010
  31.7077300  83.9924450  47.8198930  30.4521400  83.2750470  47.3718800
  19.2255190  86.9178340  34.4368550  19.5852830  87.5167680  33.7825820
  19.0847530  87.4638230  35.2103580  18.9224460  71.1952940  47.9244420
  18.2082980  71.3949860  48.5297030  19.3419500  70.4192510  48.2959220
  33.0255410  80.8083420  35.3238250  32.7377110  81.2696110  36.1116130
  33.8207580  80.3481190  35.5922470  19.2097050  85.1833200  48.9110950
  19.3188170  84.2427940  48.7706340  18.5577610  85.4487950  48.2624680
  27.2009640  83.4549090  50.3109070  26.8806510  82.7358330  50.8554760
  26.5268000  84.1304160  50.3845130  25.2423810  84.3009540  35.2542220
  25.2333910  85.0339230  34.6386730  24.3222170  84.0541120  35.3469180
  20.8430450  79.5224430  35.9988980  20.2358400  80.2623330  36.0084280
  21.3179800  79.6123790  35.1727180  30.4163240  73.6875250  45.6745870
  30.7844060  72.8670460  46.0025440  29.5561440  73.7477140  46.0901520
  33.7825270  72.6432190  36.4833430  33.1538430  72.7477860  35.7691660
  33.2877190  72.8628970  37.2727310  28.2283410  84.3637780  33.9167410
  28.3295390  84.1601770  32.9869390  27.3285150  84.1096060  34.1215190
  25.7509300  74.9218140  37.8991310  25.0425450  75.3904480  38.3404920
  26.0353780  74.2640150  38.5336500  27.3765230  76.3414840  45.8983840
  27.8750480  76.8160660  46.5635690  27.5188180  75.4178360  46.1053870
  29.7824730  71.6468800  39.3387100  29.6592510  71.6654930  38.3896610
  30.7309290  71.6947740  39.4585500  26.8701520  86.8824100  38.6115080
  27.1243020  86.8445490  37.6894450  25.9214000  86.7557430  38.6043330
  23.9544320  73.2303220  35.2742020  24.8034850  73.6673370  35.2082210
  23.5875590  73.5423480  36.1014080  34.5832090  72.5582800  46.7412230
  34.0805690  73.2988200  47.0806040  35.3988750  72.9466800  46.4249020
  32.8754100  77.8015980  40.1873590  31.9344240  77.8166210  40.3621280
  33.1898170  77.0151940  40.6333890  22.8535740  79.4835580  33.7477550
  23.6199010  79.3716940  34.3102980  22.9310430  78.7873550  33.0954320
  21.5482500  76.9160650  34.4310440  21.6286090  75.9688160  34.5427840
  22.4402250  77.2467530  34.5371100  34.8779680  84.9724830  41.8627850
  35.0027100  85.7956000  42.3351660  35.7445240  84.7615560  41.5152000
  22.3497210  87.0656040  41.5344980  23.0859690  86.5171500  41.8053550
  22.7338130  87.9312050  41.3950970  19.2342690  83.1329610  37.4086490
  18.3082470  83.3750750  37.3991900  19.6999120  83.9603870  37.2871240
  21.3555490  86.2502110  50.7230560  22.1568220  86.5714160  51.1365960
  20.8407310  85.8897690  51.4450470  25.4599520  86.2386350  33.3570550
  26.2528130  86.5275180  32.9052340  24.9403870  85.8078520  32.6783030
  30.1920120  82.3581980  50.6705970  29.5858280  82.3813580  49.9301720
  29.8874230  81.6265020  51.2073220  31.6220490  86.0862270  49.2815380
  32.5742240  86.0020290  49.2315620  31.4748710  86.7503980  49.9549170
  34.5129690  85.4656480  34.7807290  34.2271200  85.0521620  33.9661470
  34.3149240  86.3944190  34.6607810  19.0753300  78.7375570  49.6666610
  19.5792320  78.1582850  50.2382840  18.3360720  79.0215800  50.2042980
  25.9776920  81.4589760  33.2212900  25.8727560  80.8442110  33.9474280
  25.8101140  80.9355650  32.4375910  26.1291240  80.1446560  49.2002130
  25.3636910  80.7131560  49.1156800  26.3107200  79.8522770  48.3070360
  29.2179650  80.5209790  33.8254890  28.6689750  80.9679090  34.4697630
  29.8398910  80.0159040  34.3492560  33.2714590  81.8751890  49.7577150
  34.0124060  82.2127650  49.2544610  32.5087270  82.0443950  49.2046920
  21.1076380  76.8805160  50.5616680  21.1481720  76.5819030  51.4701910
  21.9621880  77.2812770  50.4024200  24.8854770  79.4800710  35.7220190
  25.3071190  79.3140580  36.5651580  25.0105610  78.6700940  35.2275330
  23.0482190  75.4597260  48.5291170  22.5178650  74.9688210  47.9014510
  23.7170260  75.8881460  47.9949100  27.3982410  78.5038320  32.9697290
  27.9188070  77.7887340  32.6038440  28.0450810  79.1424190  33.2697800
  31.9460250  79.9266720  48.2932360  32.3601270  80.0811800  49.1422780
  31.0111250  80.0521940  48.4558140  32.4182420  77.2662880  50.2971510
  33.0003190  76.5115200  50.2091990  32.5944190  77.7970320  49.5202990
  23.5354490  72.4259630  48.6088460  23.4411360  71.8080380  47.8839330
  22.9551880  73.1525920  48.3818370  26.3015930  70.9832870  45.6415850
  25.8533230  71.0057130  44.7961400  25.6681130  70.5851890  46.2386150
  26.7075480  79.8787200  46.2628290  27.1263590  80.7219930  46.0904530
  25.7884110  80.0159240  46.0335070  29.0439380  77.6103380  47.6466130
  29.1635590  77.0144520  48.3860970  29.9033380  77.6473070  47.2267430
  31.3827280  78.1640570  46.2228640  30.8562500  78.6883190  45.6193780
  31.7258620  78.7967960  46.8538370  23.7813670  75.5533940  32.6678350
  23.5802730  74.6901300  33.0291690  23.6105720  75.4667300  31.7299950
  24.5582900  86.1840210  47.3786020  24.0203990  86.9086270  47.0594720
  24.8116860  85.7070550  46.5883360  25.8108150  74.1524730  48.9041950
  26.4007840  73.8440580  49.5919770  24.9928390  73.6804480  49.0601850
  30.6301580  73.7690540  49.1374970  29.9417100  73.1072080  49.0724960
  31.3507600  73.3228810  49.5823430  31.2601980  70.3642170  35.1965230
  31.5404270  69.5210070  35.5524650  30.4867710  70.5965280  35.7103980
  22.5796470  72.6534560  32.6556230  22.8822370  72.6601990  31.7475380
  23.3191060  72.3032420  33.1523890  27.4145110  87.4191420  47.6372670
  27.3403810  88.3226560  47.9445040  26.5123950  87.1003320  47.6094740
  25.7981400  71.5969180  33.6412430  25.4503400  70.9193170  33.0614880
  25.9994170  71.1358690  34.4555820  27.9630440  86.5849930  35.2599030
  28.8581230  86.9234900  35.2817790  27.9948070  85.8629340  34.6323310
  21.6026600  81.9576980  33.4886030  22.0401470  82.5006650  34.1443610
  22.0874330  81.1323930  33.4982370  18.8172400  84.7466010  40.9406290
  19.1475410  83.8787070  40.7084930  19.2463400  84.9524530  41.7711250
  23.4134320  83.0775020  38.6008260  23.1129860  82.9539990  39.5012170
  23.3071810  82.2183610  38.1923990  19.3062610  85.6136600  43.6787920
  18.8693600  85.7937400  44.5112070  19.8740290  86.3711220  43.5369640
  34.9424790  85.1153600  47.9665230  34.3426780  85.1746160  47.2229150
  35.0718690  84.1758580  48.0962080  36.1826240  82.8571420  33.3034940
  35.3519200  82.9248070  33.7742170  36.3598070  83.7475540  33.0001800
  35.6382700  79.6018900  35.8069140  36.4001610  80.1715550  35.9128830
  35.6537070  79.0346100  36.5777450  19.1387040  78.1256830  40.0376800
  18.4835880  77.8568470  39.3936500  19.9764990  78.0161310  39.5878780
  36.6442670  80.4569000  40.6511070  37.0151500  79.6736320  40.2447040
  37.2844600  81.1458100  40.4728370  33.6276430  81.8405580  46.0641390
  32.8136270  82.2702740  46.3267180  34.0350630  82.4523990  45.4510440
  35.6901870  79.8953270  32.9641660  35.9650710  80.8032150  32.8360880
  35.5012610  79.8315800  33.9003650  32.0877480  72.9198120  34.2595290
  32.5062360  72.7329100  33.4191950  31.7813540  72.0677170  34.5698220
  35.5867210  77.8322260  37.9571090  35.2110810  77.0650190  37.5252380
  34.8570330  78.2144960  38.4446020  20.1762970  78.5109400  44.5780140
  20.5436010  78.4236800  45.4576160  19.6073790  77.7475950  44.4787000
  34.9766830  76.9793780  47.5910610  34.7452920  76.7506530  46.6908560
  35.2371380  77.8993330  47.5455500  19.7278970  75.4218490  48.4838560
  18.8335020  75.3885250  48.8232270  20.2676520  75.6205280  49.2489810
  33.4154900  72.2050210  50.3690310  34.2925080  72.2133610  50.7524310
  33.4275740  71.4681050  49.7582660  18.3525120  75.3355760  35.9802130
  17.4489200  75.5985960  35.8053790  18.8365740  75.6066930  35.2002090
  34.8618170  76.0579750  41.2578330  35.3855650  75.5642400  40.6268500
  35.4477590  76.1930110  42.0025900  35.0407890  76.1419620  44.7797880
  34.0910600  76.1083160  44.8942870  35.2220900  77.0519730  44.5447650
  20.8952330  74.3921300  33.8896510  21.6044030  73.9704520  33.4043790
  20.1792270  74.4596530  33.2579860  20.5426490  70.4460630  32.9299160
  21.2654620  70.9869570  33.2480380  20.8151010  70.1724050  32.0540700
  34.3518140  75.3153100  37.1970740  34.8477260  75.0823970  37.9819620
  34.1534210  74.4764940  36.7808380  20.2318680  69.6966820  42.8321780
  20.8794870  69.1464200  42.3916940  20.6520520  69.9509970  43.6537590
  35.7805300  73.9514050  39.7308420  35.6704580  73.7970090  40.6690690
  36.5412890  73.4234990  39.4883830  34.1271020  69.8908180  46.1891420
  34.7643240  70.5042320  46.5550610  34.2745910  69.9268840  45.2440650
  36.6695570  71.7821970  32.9714560  37.5944880  71.6503150  32.7632850
  36.6471360  71.8614790  33.9251010  36.7434060  72.5532630  35.5971270
  35.9485560  72.4877750  36.1264180  36.9477340  73.4883270  35.5856620
  33.6852480  86.5924180  39.5909660  34.2811550  86.2708750  38.9144080
  33.9430630  86.1196000  40.3822930  19.9850680  69.8522490  45.5747100
  19.6365500  70.3086310  46.3405280  19.6538380  68.9579620  45.6569530
  21.5915050  83.0242090  49.7400290  21.5484680  82.6535000  50.6214750
  21.7226060  83.9619660  49.8802110  25.2921080  84.5801680  45.3410010
  25.0512440  84.8476240  44.4540530  26.2323720  84.7507410  45.3960870
  27.4975500  71.0434370  49.0966520  27.4364390  71.6356200  49.8461930
  28.4375880  70.9360330  48.9516780  30.1350060  70.7004430  48.7358810
  30.7490470  71.0183720  48.0739890  30.6799620  70.2153020  49.3554670
  36.5525240  86.5996060  46.1420650  36.0583520  86.9964930  45.4247780
  35.9438530  85.9745270  46.5357930  20.6571320  69.3798690  48.8497870
  21.2054310  69.1986740  48.0863980  20.7226630  68.5892800  49.3854180
  21.4303080  85.9704340  46.8598070  20.8363400  85.8389040  47.5988110
  21.4226920  85.1342480  46.3940170  30.8758100  69.2636570  45.0628100
  30.0017940  69.5971680  44.8601030  30.7668850  68.7909750  45.8879970
  31.7830080  71.4707440  46.4469820  31.4543440  70.6559200  46.0671550
  32.7312380  71.4277250  46.3235510  34.2364690  87.2419480  43.4207390
  33.7767660  87.9935290  43.0465410  33.6077150  86.5225950  43.3622190
  21.0615310  83.3362720  45.8106110  20.3349370  82.7168010  45.7432060
  21.1224460  83.7303330  44.9404190  24.6660410  85.5507720  42.5955520
  25.1825430  84.9395080  42.0703780  25.3157790  86.0536500  43.0866530
  27.4055910  86.4416210  43.4224500  27.6933720  86.1870510  42.5457510
  27.9179130  85.8893570  44.0130070  28.6232920  70.1806410  44.0021010
  27.8404710  70.6551910  44.2817770  28.3295850  69.2761240  43.8934190
  33.1753990  70.8829510  42.0470100  33.6162080  70.8274610  41.1991700
  32.9061580  71.7987520  42.1180280  35.0392560  70.5144750  40.0578920
  34.9780960  69.5705970  39.9109940  35.8184590  70.6224840  40.6032380
  19.3445310  86.6537110  39.0202870  19.1767350  86.0207790  39.7184760
  18.4779820  86.8596510  38.6697060  19.9673330  70.4853890  36.5234730
  20.7252690  70.5982770  35.9498760  19.5050500  71.3223090  36.4778160
  26.5087140  72.5993160  39.5137040  25.6961650  72.2250050  39.1732920
  27.0128780  71.8438240  39.8158230  31.0112120  69.2635610  40.7520110
  31.6141490  69.8355820  41.2268630  30.2705110  69.8275050  40.5294010
  20.9508010  85.3470340  36.4653010  20.4255630  85.7278370  35.7614970
  20.8752590  85.9721110  37.1862720  22.3398480  71.0117940  35.0636700
  22.8691240  70.2247740  34.9344650  22.9726800  71.6909130  35.2972230
  24.5336320  70.7493080  38.1182090  23.9039060  70.0480390  38.2852220
  23.9941460  71.5097210  37.9015250  27.4728270  87.3632310  50.7892700
  28.3995580  87.1276580  50.8328660  27.4578700  88.1904310  50.3078730
  35.7073330  86.9057880  37.7866950  35.8825520  86.2195620  37.1427870
  35.0094900  87.4304930  37.3943620  24.6591880  70.0277060  50.5534580
  24.3776150  70.5310660  49.7895400  25.0411580  69.2298810  50.1876710
  23.5500980  87.2952720  35.3402260  24.2819800  87.0112000  34.7926150
  23.8094650  87.0566000  36.2301640  22.7115770  83.4117450  35.3448590
  22.0824650  83.8802550  35.8934420  22.8263600  82.5666670  35.7794780
  31.2607340  69.4430640  51.1315050  31.1472790  69.7625250  52.0266570
  32.0777080  69.8443150  50.8352330  34.0405830  86.5902170  50.6133740
  34.8331150  86.0951400  50.4059700  34.3338980  87.2692310  51.2209350
  30.1665490  77.4623110  21.4949790  30.0859540  76.5477720  21.2241500
  29.7529910  77.9590180  20.7889500  28.2983530  79.2402130  23.3759060
  27.5225630  78.7602570  23.6657630  28.9496460  78.5607780  23.2015220
  22.3149360  79.5521940  24.2534820  21.4834240  79.2970650  24.6531330
  22.9230340  79.6232710  24.9892740  32.3190960  83.6462320  22.1558190
  31.8572490  82.8749560  22.4845360  33.1316510  83.6728390  22.6610640
  22.2950620  83.5862030  24.4492840  22.5978660  82.6959770  24.2703060
  23.0394210  84.1432250  24.2215090  20.7241310  74.5123830  18.0377210
  19.8358010  74.8539800  17.9357090  21.0082500  74.3124150  17.1458040
  18.6874320  77.1129480  23.9216910  19.2590430  76.3451680  23.9220550
  18.6875860  77.4118240  23.0123520  28.5454270  85.9320330  21.7762180
  27.9265710  86.3877830  21.2056620  29.4006050  86.0871790  21.3751880
  27.7392520  81.9159320  23.3829220  27.6700800  80.9749260  23.2218350
  28.5012380  82.0060730  23.9551790  19.9299190  72.5213840  25.7085840
  19.7502030  71.6239590  25.9888600  19.5279270  73.0685710  26.3832790
  28.7697690  74.7229700  23.6098150  29.1462510  73.8501580  23.4971820
  28.6717200  75.0588400  22.7188590  22.9002700  73.0955330  19.0715590
  23.0069450  73.9959060  19.3784350  21.9895060  73.0473300  18.7810240
  32.5521810  72.2180140  20.5426490  33.3731430  71.7276710  20.5851970
  32.5855890  72.8077800  21.2958330  20.5485860  75.0174340  24.3168180
  21.2295970  75.2812710  24.9355580  20.2333910  74.1775210  24.6506190
  24.7410430  76.0641700  23.4040770  25.2488650  76.5622670  24.0445790
  25.2723670  75.2876900  23.2280130  36.8421360  74.2346890  27.1070120
  36.1373530  74.6228600  26.5885230  37.1079280  74.9297180  27.7091050
  23.0246530  70.7040260  27.6704190  23.0264970  71.2212650  26.8650090
  22.1950840  70.2270440  27.6474120  29.4117620  80.8159570  19.1694090
  28.7934890  81.2809020  18.6056810  29.9240870  81.5087050  19.5863600
  24.2749380  80.3435440  25.8477690  23.9418760  80.9704360  26.4898760
  24.4516060  80.8697320  25.0679360  32.7883290  74.1580520  23.3154030
  32.0838860  74.4465410  23.8957140  33.1495450  74.9680630  22.9553590
  22.7061860  72.4150220  25.6774640  23.0478670  73.2592270  25.3828510
  21.7677670  72.5633960  25.7939980  23.4868480  82.3116240  27.6626870
  24.1042480  82.9867320  27.3811320  22.6261600  82.7204220  27.5714370
  18.7800820  81.5016100  16.5433720  18.4028800  81.9903200  15.8118620
  19.0373890  82.1741380  17.1740250  34.4046070  83.7755650  25.5781510
  33.7209590  84.4454760  25.5698180  34.9440360  83.9736300  24.8126370
  35.8570210  73.6035310  23.7063240  34.9095120  73.6374290  23.8378670
  36.1820200  74.4174260  24.0912600  26.3889750  69.9032490  22.0019230
  26.6964730  69.3479380  21.2854730  25.4590450  70.0376950  21.8192220
  31.9404810  85.6199780  24.2926690  31.9531970  85.2162070  23.4248950
  31.3880030  86.3947070  24.1888120  33.2350230  82.3416000  19.3816860
  33.1246560  81.3990330  19.5066280  33.2318480  82.7031640  20.2679620
  31.3390250  80.5229620  25.6209300  31.7559040  80.3089730  24.7862760
  32.0630070  80.7802410  26.1917920  28.7770510  77.9681320  18.7379350
  27.8499790  77.9018700  18.9667820  28.9295330  78.9061450  18.6234590
  28.7639590  74.2398320  15.7346510  27.8243260  74.4012280  15.8198970
  29.0822850  74.9584000  15.1882500  35.2852350  78.9216840  25.7125540
  34.4570980  78.9909930  25.2375670  35.8802830  79.5071150  25.2441370
  32.8067800  79.5301620  19.2414600  32.1880220  79.1921170  18.5940900
  32.7892250  78.8861380  19.9493790  32.2494360  75.7086160  26.6580410
  31.8365540  76.5339870  26.9120400  31.5170310  75.1231200  26.4656770
  24.3827150  78.4946060  21.5199080  23.9784150  77.7823310  21.0244980
  24.4690270  78.1499300  22.4087120  24.8508850  82.1813620  23.6838290
  24.5537140  81.5759090  23.0046070  25.8008670  82.2190930  23.5727650
  23.0955770  75.2689270  25.2998120  23.6470360  75.3784610  24.5251370
  23.6099280  75.6426870  26.0153350  32.9394460  85.7545490  27.3461390
  32.4625020  86.5617680  27.1534000  32.2556250  85.1023820  27.4987600
  23.9427280  81.9195310  30.3346090  23.0455810  82.1435280  30.5819490
  23.9680150  82.0430250  29.3857490  30.9832500  78.7688430  16.2487350
  31.4225780  77.9310860  16.1025170  31.6960920  79.4017830  16.3351490
  22.7698500  78.7908630  28.9103460  22.6306270  79.6631430  29.2790860
  21.8879860  78.4481440  28.7651400  29.0927880  83.7084500  20.2168590
  29.5323790  84.4508830  19.8023980  29.0314770  83.9511070  21.1407550
  24.5678850  84.7330330  31.1188610  24.5394280  85.1373280  30.2517040
  24.4043820  83.8040690  30.9560210  34.5649640  70.0231240  14.5628390
  34.2522300  70.1158070  15.4627460  35.3262110  70.6012270  14.5125820
  21.0831780  77.3891040  19.0205730  20.9629380  78.1153130  18.4087000
  20.7732670  76.6193950  18.5433640  36.5193670  85.5157430  32.4152780
  36.9953390  85.9940320  33.0941860  37.1400830  85.4474920  31.6898280
  18.7217150  80.5606180  24.8274370  18.7997570  80.6954950  23.8830090
  19.3358830  79.8522070  25.0202490  19.9664780  82.2606370  21.2380550
  19.5592860  82.4020960  20.3834150  20.8577790  81.9766530  21.0351760
  35.9226920  82.7070280  29.5752790  36.0489980  82.4682160  28.6569970
  35.9648300  81.8754820  30.0474870  29.7843660  86.4098280  28.1447600
  30.2988330  86.3206290  28.9470030  28.9412740  86.7557980  28.4375510
  31.7598060  86.6953620  17.5731600  31.5999200  86.4056560  18.4713430
  31.5944770  85.9193750  17.0376830  24.2386440  86.4752150  19.3503220
  24.0628920  85.5587690  19.1371020  23.3842180  86.8339440  19.5901020
  31.4624190  84.2041180  16.1329600  30.7689350  84.2018470  15.4731880
  32.2047050  83.7800500  15.7023770  31.0274120  85.8303890  20.2078090
  31.4831070  85.0493270  20.5216710  31.3666640  86.5410710  20.7519270
  35.7750930  74.7602740  30.5402530  35.1595200  75.2682410  30.0117990
  35.4547350  73.8601070  30.4828470  18.7776670  81.6020350  27.3668830
  18.9407710  81.1325710  26.5488200  19.2429120  81.0943910  28.0317670
  23.5495440  70.7326110  22.4029400  23.1063590  71.5135650  22.0713920
  24.1080430  71.0556000  23.1100340  27.8365250  73.5994630  28.0064720
  27.3744620  73.8077650  28.8184660  27.4343360  72.7853980  27.7035390
  32.8369760  74.8203580  29.1361380  31.9863350  74.5209330  29.4570450
  32.6771550  75.0645590  28.2245200  29.9319470  76.3205330  31.2360170
  30.2572880  75.4869080  30.8962400  30.7199800  76.8433850  31.3838500
  26.6654260  70.3536810  17.2835230  26.0408440  70.3496680  18.0088540
  26.5784380  69.4867770  16.8871200  25.5871340  71.2773440  24.2619000
  25.8843670  72.1836270  24.1811020  26.1356900  70.7892220  23.6478570
  23.3409660  75.8559680  20.1310650  23.1150580  75.6396850  21.0357270
  22.5602190  76.2888140  19.7856620  30.5707420  75.8623050  18.7301300
  29.9716310  76.5858850  18.5464920  31.1187030  75.7999830  17.9477750
  25.7808870  76.7545260  30.7970920  25.6852470  75.8139990  30.6471320
  26.6240850  76.9760330  30.4018990  29.1772290  74.4986590  20.7604580
  29.5701860  74.8158790  19.9473270  29.5389140  73.6198470  20.8749100
  20.9119410  73.1658930  28.9504700  20.5182800  74.0134140  29.1577480
  20.2237810  72.5285300  29.1413340  27.4864460  73.2493900  32.0201440
  26.7962780  73.0566100  32.6547530  28.2296760  73.5328540  32.5525740
  18.2136460  71.0887390  22.9834780  17.9249510  71.6590250  23.6959760
  18.9582220  70.6091840  23.3466010  18.4006690  75.0307510  14.1937500
  18.3181360  75.9738270  14.3352490  18.0489750  74.8882420  13.3149850
  29.7627430  77.0892340  24.8555360  29.0308550  77.5979150  25.2045460
  29.3651770  76.2722320  24.5544140  26.2004820  73.7646540  23.2607850
  26.2040880  73.3236490  22.4112390  27.0955940  74.0863870  23.3679670
  22.0507200  73.6473030  22.2202060  21.7107250  74.1248260  22.9769110
  21.2884520  73.1938150  21.8603160  26.2624970  74.7658620  16.2514610
  26.3837790  74.7245100  17.2000430  25.8773480  75.6282770  16.0961340
  30.2253340  72.5426020  24.2678300  30.2426080  72.9934670  25.1120150
  29.9768920  71.6431660  24.4811740  25.2746470  77.0759760  15.6497910
  24.7063370  76.6278010  15.0233820  25.9835470  77.4352540  15.1163060
  20.3515650  80.9771780  29.5264640  19.9670440  80.3365450  30.1247600
  20.6627840  81.6807900  30.0959370  26.5012790  77.8248320  25.0073260
  26.8682920  77.3506890  25.7534600  26.3117850  78.6989890  25.3481600
  19.3653280  72.5692010  21.1366730  19.0800200  72.2047680  21.9745350
  19.3032140  71.8372470  20.5229870  24.2912160  76.8656960  27.3257470
  23.9869230  77.7448940  27.5507830  25.2458620  76.9256750  27.3614910
  22.8193950  81.0717950  17.9224320  22.0456210  80.5315570  17.7623040
  23.5488580  80.5524560  17.5842080  33.5781930  80.0683310  23.7150710
  34.2981050  80.5638600  23.3246820  33.3763750  79.3901200  23.0704580
  29.0391870  71.4621270  17.8580100  28.2256480  70.9634440  17.7825410
  28.8453820  72.3019520  17.4416450  28.9600730  80.1392370  29.6019710
  28.8938040  79.2188040  29.3477300  28.3305870  80.2367810  30.3164350
  31.7540260  75.8340920  16.1542260  32.6419880  76.1458150  15.9793600
  31.7245350  74.9613170  15.7622840  22.8631350  80.7398330  21.5603130
  23.3810020  79.9366590  21.5060020  22.4115370  80.6777470  22.4019960
  27.7500850  82.0064610  16.8330430  28.0916550  82.7506840  16.3373750
  26.9213560  82.3195730  17.1955260  20.3475890  77.7059700  28.4728830
  19.9890830  78.3713550  29.0602170  20.0530450  76.8743250  28.8441450
  23.5489010  78.1643940  31.3568380  23.2489150  78.3101120  30.4596200
  24.3200250  77.6049230  31.2641770  28.8917460  82.9612940  29.3523510
  28.9062000  82.0293900  29.1342420  28.1842560  83.0472700  29.9913280
  34.0254530  77.1452760  15.6222120  33.9418250  77.5766980  14.7718560
  34.7448720  77.6051110  16.0548940  35.1028670  79.6020280  28.6992090
  34.3776860  80.1949060  28.5021480  35.6304130  79.5943820  27.9005460
  35.0541780  83.9995020  18.3504250  34.4117940  83.3450640  18.6247970
  34.6672440  84.4050110  17.5744920  30.6328260  81.3280450  22.1975940
  30.9852080  80.7308580  21.5377310  29.7490590  81.0024680  22.3684190
  26.7191540  82.0878140  19.6046350  27.4062670  82.6347350  19.9853940
  25.9323960  82.6318870  19.6395960  18.8583940  77.7050960  15.0963430
  19.7278790  77.9875760  15.3799350  18.3674260  78.5186830  14.9812240
  26.0218750  79.0924170  19.2171710  26.4781530  79.9029420  19.4431900
  25.6706960  78.7747310  20.0490200  28.3251360  84.6030510  26.4464010
  28.9693580  84.8089890  27.1237430  28.6880800  83.8418910  25.9934860
  21.9230530  69.4361820  19.6894230  21.7945160  69.4279720  20.6379150
  21.0992550  69.7744910  19.3385240  29.5983440  82.6062860  25.1641460
  30.2405670  81.9056020  25.2773630  30.1232790  83.3861300  24.9838350
  33.4439160  82.8911480  14.8880600  33.2176740  82.1741920  15.4805240
  33.0535360  82.6423920  14.0502350  31.3721060  83.4057760  28.3677520
  31.7077300  83.9924450  29.0455440  30.4521400  83.2750470  28.5975310
  19.2255190  86.9178340  15.6625060  19.5852830  87.5167680  15.0082330
  19.0847530  87.4638230  16.4360090  18.9224460  71.1952940  29.1500930
  18.2082980  71.3949860  29.7553540  19.3419500  70.4192510  29.5215730
  33.0255410  80.8083420  16.5494760  32.7377110  81.2696110  17.3372640
  33.8207580  80.3481190  16.8178980  19.2097050  85.1833200  30.1367460
  19.3188170  84.2427940  29.9962850  18.5577610  85.4487950  29.4881190
  27.2009640  83.4549090  31.5365580  26.8806510  82.7358330  32.0811270
  26.5268000  84.1304160  31.6101640  25.2423810  84.3009540  16.4798730
  25.2333910  85.0339230  15.8643240  24.3222170  84.0541120  16.5725690
  20.8430450  79.5224430  17.2245490  20.2358400  80.2623330  17.2340790
  21.3179800  79.6123790  16.3983690  30.4163240  73.6875250  26.9002380
  30.7844060  72.8670460  27.2281950  29.5561440  73.7477140  27.3158030
  33.7825270  72.6432190  17.7089940  33.1538430  72.7477860  16.9948170
  33.2877190  72.8628970  18.4983820  28.2283410  84.3637780  15.1423920
  28.3295390  84.1601770  14.2125900  27.3285150  84.1096060  15.3471700
  25.7509300  74.9218140  19.1247820  25.0425450  75.3904480  19.5661430
  26.0353780  74.2640150  19.7593010  27.3765230  76.3414840  27.1240350
  27.8750480  76.8160660  27.7892200  27.5188180  75.4178360  27.3310380
  29.7824730  71.6468800  20.5643610  29.6592510  71.6654930  19.6153120
  30.7309290  71.6947740  20.6842010  26.8701520  86.8824100  19.8371590
  27.1243020  86.8445490  18.9150960  25.9214000  86.7557430  19.8299840
  23.9544320  73.2303220  16.4998530  24.8034850  73.6673370  16.4338720
  23.5875590  73.5423480  17.3270590  34.5832090  72.5582800  27.9668740
  34.0805690  73.2988200  28.3062550  35.3988750  72.9466800  27.6505530
  32.8754100  77.8015980  21.4130100  31.9344240  77.8166210  21.5877790
  33.1898170  77.0151940  21.8590400  22.8535740  79.4835580  14.9734060
  23.6199010  79.3716940  15.5359490  22.9310430  78.7873550  14.3210830
  21.5482500  76.9160650  15.6566950  21.6286090  75.9688160  15.7684350
  22.4402250  77.2467530  15.7627610  34.8779680  84.9724830  23.0884360
  35.0027100  85.7956000  23.5608170  35.7445240  84.7615560  22.7408510
  22.3497210  87.0656040  22.7601490  23.0859690  86.5171500  23.0310060
  22.7338130  87.9312050  22.6207480  19.2342690  83.1329610  18.6343000
  18.3082470  83.3750750  18.6248410  19.6999120  83.9603870  18.5127750
  21.3555490  86.2502110  31.9487070  22.1568220  86.5714160  32.3622470
  20.8407310  85.8897690  32.6706980  25.4599520  86.2386350  14.5827060
  26.2528130  86.5275180  14.1308850  24.9403870  85.8078520  13.9039540
  30.1920120  82.3581980  31.8962480  29.5858280  82.3813580  31.1558230
  29.8874230  81.6265020  32.4329730  31.6220490  86.0862270  30.5071890
  32.5742240  86.0020290  30.4572130  31.4748710  86.7503980  31.1805680
  34.5129690  85.4656480  16.0063800  34.2271200  85.0521620  15.1917980
  34.3149240  86.3944190  15.8864320  19.0753300  78.7375570  30.8923120
  19.5792320  78.1582850  31.4639350  18.3360720  79.0215800  31.4299490
  25.9776920  81.4589760  14.4469410  25.8727560  80.8442110  15.1730790
  25.8101140  80.9355650  13.6632420  26.1291240  80.1446560  30.4258640
  25.3636910  80.7131560  30.3413310  26.3107200  79.8522770  29.5326870
  29.2179650  80.5209790  15.0511400  28.6689750  80.9679090  15.6954140
  29.8398910  80.0159040  15.5749070  33.2714590  81.8751890  30.9833660
  34.0124060  82.2127650  30.4801120  32.5087270  82.0443950  30.4303430
  21.1076380  76.8805160  31.7873190  21.1481720  76.5819030  32.6958420
  21.9621880  77.2812770  31.6280710  24.8854770  79.4800710  16.9476700
  25.3071190  79.3140580  17.7908090  25.0105610  78.6700940  16.4531840
  23.0482190  75.4597260  29.7547680  22.5178650  74.9688210  29.1271020
  23.7170260  75.8881460  29.2205610  27.3982410  78.5038320  14.1953800
  27.9188070  77.7887340  13.8294950  28.0450810  79.1424190  14.4954310
  31.9460250  79.9266720  29.5188870  32.3601270  80.0811800  30.3679290
  31.0111250  80.0521940  29.6814650  32.4182420  77.2662880  31.5228020
  33.0003190  76.5115200  31.4348500  32.5944190  77.7970320  30.7459500
  23.5354490  72.4259630  29.8344970  23.4411360  71.8080380  29.1095840
  22.9551880  73.1525920  29.6074880  26.3015930  70.9832870  26.8672360
  25.8533230  71.0057130  26.0217910  25.6681130  70.5851890  27.4642660
  26.7075480  79.8787200  27.4884800  27.1263590  80.7219930  27.3161040
  25.7884110  80.0159240  27.2591580  29.0439380  77.6103380  28.8722640
  29.1635590  77.0144520  29.6117480  29.9033380  77.6473070  28.4523940
  31.3827280  78.1640570  27.4485150  30.8562500  78.6883190  26.8450290
  31.7258620  78.7967960  28.0794880  23.7813670  75.5533940  13.8934860
  23.5802730  74.6901300  14.2548200  23.6105720  75.4667300  12.9556460
  24.5582900  86.1840210  28.6042530  24.0203990  86.9086270  28.2851230
  24.8116860  85.7070550  27.8139870  25.8108150  74.1524730  30.1298460
  26.4007840  73.8440580  30.8176280  24.9928390  73.6804480  30.2858360
  30.6301580  73.7690540  30.3631480  29.9417100  73.1072080  30.2981470
  31.3507600  73.3228810  30.8079940  31.2601980  70.3642170  16.4221740
  31.5404270  69.5210070  16.7781160  30.4867710  70.5965280  16.9360490
  22.5796470  72.6534560  13.8812740  22.8822370  72.6601990  12.9731890
  23.3191060  72.3032420  14.3780400  27.4145110  87.4191420  28.8629180
  27.3403810  88.3226560  29.1701550  26.5123950  87.1003320  28.8351250
  25.7981400  71.5969180  14.8668940  25.4503400  70.9193170  14.2871390
  25.9994170  71.1358690  15.6812330  27.9630440  86.5849930  16.4855540
  28.8581230  86.9234900  16.5074300  27.9948070  85.8629340  15.8579820
  21.6026600  81.9576980  14.7142540  22.0401470  82.5006650  15.3700120
  22.0874330  81.1323930  14.7238880  18.8172400  84.7466010  22.1662800
  19.1475410  83.8787070  21.9341440  19.2463400  84.9524530  22.9967760
  23.4134320  83.0775020  19.8264770  23.1129860  82.9539990  20.7268680
  23.3071810  82.2183610  19.4180500  19.3062610  85.6136600  24.9044430
  18.8693600  85.7937400  25.7368580  19.8740290  86.3711220  24.7626150
  34.9424790  85.1153600  29.1921740  34.3426780  85.1746160  28.4485660
  35.0718690  84.1758580  29.3218590  36.1826240  82.8571420  14.5291450
  35.3519200  82.9248070  14.9998680  36.3598070  83.7475540  14.2258310
  35.6382700  79.6018900  17.0325650  36.4001610  80.1715550  17.1385340
  35.6537070  79.0346100  17.8033960  19.1387040  78.1256830  21.2633310
  18.4835880  77.8568470  20.6193010  19.9764990  78.0161310  20.8135290
  36.6442670  80.4569000  21.8767580  37.0151500  79.6736320  21.4703550
  37.2844600  81.1458100  21.6984880  33.6276430  81.8405580  27.2897900
  32.8136270  82.2702740  27.5523690  34.0350630  82.4523990  26.6766950
  35.6901870  79.8953270  14.1898170  35.9650710  80.8032150  14.0617390
  35.5012610  79.8315800  15.1260160  32.0877480  72.9198120  15.4851800
  32.5062360  72.7329100  14.6448460  31.7813540  72.0677170  15.7954730
  35.5867210  77.8322260  19.1827600  35.2110810  77.0650190  18.7508890
  34.8570330  78.2144960  19.6702530  20.1762970  78.5109400  25.8036650
  20.5436010  78.4236800  26.6832670  19.6073790  77.7475950  25.7043510
  34.9766830  76.9793780  28.8167120  34.7452920  76.7506530  27.9165070
  35.2371380  77.8993330  28.7712010  19.7278970  75.4218490  29.7095070
  18.8335020  75.3885250  30.0488780  20.2676520  75.6205280  30.4746320
  33.4154900  72.2050210  31.5946820  34.2925080  72.2133610  31.9780820
  33.4275740  71.4681050  30.9839170  18.3525120  75.3355760  17.2058640
  17.4489200  75.5985960  17.0310300  18.8365740  75.6066930  16.4258600
  34.8618170  76.0579750  22.4834840  35.3855650  75.5642400  21.8525010
  35.4477590  76.1930110  23.2282410  35.0407890  76.1419620  26.0054390
  34.0910600  76.1083160  26.1199380  35.2220900  77.0519730  25.7704160
  20.8952330  74.3921300  15.1153020  21.6044030  73.9704520  14.6300300
  20.1792270  74.4596530  14.4836370  20.5426490  70.4460630  14.1555670
  21.2654620  70.9869570  14.4736890  20.8151010  70.1724050  13.2797210
  34.3518140  75.3153100  18.4227250  34.8477260  75.0823970  19.2076130
  34.1534210  74.4764940  18.0064890  20.2318680  69.6966820  24.0578290
  20.8794870  69.1464200  23.6173450  20.6520520  69.9509970  24.8794100
  35.7805300  73.9514050  20.9564930  35.6704580  73.7970090  21.8947200
  36.5412890  73.4234990  20.7140340  36.6695570  71.7821970  14.1971070
  37.5944880  71.6503150  13.9889360  36.6471360  71.8614790  15.1507520
  36.7434060  72.5532630  16.8227780  35.9485560  72.4877750  17.3520690
  36.9477340  73.4883270  16.8113130  33.6852480  86.5924180  20.8166170
  34.2811550  86.2708750  20.1400590  33.9430630  86.1196000  21.6079440
  19.9850680  69.8522490  26.8003610  19.6365500  70.3086310  27.5661790
  19.6538380  68.9579620  26.8826040  21.5915050  83.0242090  30.9656800
  21.5484680  82.6535000  31.8471260  21.7226060  83.9619660  31.1058620
  25.2921080  84.5801680  26.5666520  25.0512440  84.8476240  25.6797040
  26.2323720  84.7507410  26.6217380  27.4975500  71.0434370  30.3223030
  27.4364390  71.6356200  31.0718440  28.4375880  70.9360330  30.1773290
  30.1350060  70.7004430  29.9615320  30.7490470  71.0183720  29.2996400
  30.6799620  70.2153020  30.5811180  36.5525240  86.5996060  27.3677160
  36.0583520  86.9964930  26.6504290  35.9438530  85.9745270  27.7614440
  20.6571320  69.3798690  30.0754380  21.2054310  69.1986740  29.3120490
  20.7226630  68.5892800  30.6110690  21.4303080  85.9704340  28.0854580
  20.8363400  85.8389040  28.8244620  21.4226920  85.1342480  27.6196680
  30.8758100  69.2636570  26.2884610  30.0017940  69.5971680  26.0857540
  30.7668850  68.7909750  27.1136480  31.7830080  71.4707440  27.6726330
  31.4543440  70.6559200  27.2928060  32.7312380  71.4277250  27.5492020
  34.2364690  87.2419480  24.6463900  33.7767660  87.9935290  24.2721920
  33.6077150  86.5225950  24.5878700  21.0615310  83.3362720  27.0362620
  20.3349370  82.7168010  26.9688570  21.1224460  83.7303330  26.1660700
  24.6660410  85.5507720  23.8212030  25.1825430  84.9395080  23.2960290
  25.3157790  86.0536500  24.3123040  27.4055910  86.4416210  24.6481010
  27.6933720  86.1870510  23.7714020  27.9179130  85.8893570  25.2386580
  28.6232920  70.1806410  25.2277520  27.8404710  70.6551910  25.5074280
  28.3295850  69.2761240  25.1190700  33.1753990  70.8829510  23.2726610
  33.6162080  70.8274610  22.4248210  32.9061580  71.7987520  23.3436790
  35.0392560  70.5144750  21.2835430  34.9780960  69.5705970  21.1366450
  35.8184590  70.6224840  21.8288890  19.3445310  86.6537110  20.2459380
  19.1767350  86.0207790  20.9441270  18.4779820  86.8596510  19.8953570
  19.9673330  70.4853890  17.7491240  20.7252690  70.5982770  17.1755270
  19.5050500  71.3223090  17.7034670  26.5087140  72.5993160  20.7393550
  25.6961650  72.2250050  20.3989430  27.0128780  71.8438240  21.0414740
  31.0112120  69.2635610  21.9776620  31.6141490  69.8355820  22.4525140
  30.2705110  69.8275050  21.7550520  34.1546720  69.6657170  17.2516900
  34.3497350  70.5640620  17.5184330  33.3676590  69.4344250  17.7449850
  20.9508010  85.3470340  17.6909520  20.4255630  85.7278370  16.9871480
  20.8752590  85.9721110  18.4119230  22.3398480  71.0117940  16.2893210
  22.8691240  70.2247740  16.1601160  22.9726800  71.6909130  16.5228740
  24.5336320  70.7493080  19.3438600  23.9039060  70.0480390  19.5108730
  23.9941460  71.5097210  19.1271760  27.4728270  87.3632310  32.0149210
  28.3995580  87.1276580  32.0585170  27.4578700  88.1904310  31.5335240
  35.7073330  86.9057880  19.0123460  35.8825520  86.2195620  18.3684380
  35.0094900  87.4304930  18.6200130  24.6591880  70.0277060  31.7791090
  24.3776150  70.5310660  31.0151910  25.0411580  69.2298810  31.4133220
  23.5500980  87.2952720  16.5658770  24.2819800  87.0112000  16.0182660
  23.8094650  87.0566000  17.4558150  22.7115770  83.4117450  16.5705100
  22.0824650  83.8802550  17.1190930  22.8263600  82.5666670  17.0051290
  31.2607340  69.4430640  32.3571560  31.1472790  69.7625250  33.2523080
  32.0777080  69.8443150  32.0608840  34.0405830  86.5902170  31.8390250
  34.8331150  86.0951400  31.6316210  34.3338980  87.2692310  32.4465860
  30.1665490  77.4623110   2.7206300  30.0859540  76.5477720   2.4498010
  29.7529910  77.9590180   2.0146010  28.2983530  79.2402130   4.6015570
  27.5225630  78.7602570   4.8914140  28.9496460  78.5607780   4.4271730
  22.3149360  79.5521940   5.4791330  21.4834240  79.2970650   5.8787840
  22.9230340  79.6232710   6.2149250  32.3190960  83.6462320   3.3814700
  31.8572490  82.8749560   3.7101870  33.1316510  83.6728390   3.8867150
  22.2950620  83.5862030   5.6749350  22.5978660  82.6959770   5.4959570
  23.0394210  84.1432250   5.4471600  18.6874320  77.1129480   5.1473420
  19.2590430  76.3451680   5.1477060  18.6875860  77.4118240   4.2380030
  28.5454270  85.9320330   3.0018690  27.9265710  86.3877830   2.4313130
  29.4006050  86.0871790   2.6008390  27.7392520  81.9159320   4.6085730
  27.6700800  80.9749260   4.4474860  28.5012380  82.0060730   5.1808300
  19.9299190  72.5213840   6.9342350  19.7502030  71.6239590   7.2145110
  19.5279270  73.0685710   7.6089300  28.7697690  74.7229700   4.8354660
  29.1462510  73.8501580   4.7228330  28.6717200  75.0588400   3.9445100
  32.5521810  72.2180140   1.7683000  33.3731430  71.7276710   1.8108480
  32.5855890  72.8077800   2.5214840  20.5485860  75.0174340   5.5424690
  21.2295970  75.2812710   6.1612090  20.2333910  74.1775210   5.8762700
  24.7410430  76.0641700   4.6297280  25.2488650  76.5622670   5.2702300
  25.2723670  75.2876900   4.4536640  36.8421360  74.2346890   8.3326630
  36.1373530  74.6228600   7.8141740  37.1079280  74.9297180   8.9347560
  23.0246530  70.7040260   8.8960700  23.0264970  71.2212650   8.0906600
  22.1950840  70.2270440   8.8730630  24.2749380  80.3435440   7.0734200
  23.9418760  80.9704360   7.7155270  24.4516060  80.8697320   6.2935870
  32.7883290  74.1580520   4.5410540  32.0838860  74.4465410   5.1213650
  33.1495450  74.9680630   4.1810100  22.7061860  72.4150220   6.9031150
  23.0478670  73.2592270   6.6085020  21.7677670  72.5633960   7.0196490
  23.4868480  82.3116240   8.8883380  24.1042480  82.9867320   8.6067830
  22.6261600  82.7204220   8.7970880  34.4046070  83.7755650   6.8038020
  33.7209590  84.4454760   6.7954690  34.9440360  83.9736300   6.0382880
  35.8570210  73.6035310   4.9319750  34.9095120  73.6374290   5.0635180
  36.1820200  74.4174260   5.3169110  26.3889750  69.9032490   3.2275740
  26.6964730  69.3479380   2.5111240  25.4590450  70.0376950   3.0448730
  31.9404810  85.6199780   5.5183200  31.9531970  85.2162070   4.6505460
  31.3880030  86.3947070   5.4144630  31.3390250  80.5229620   6.8465810
  31.7559040  80.3089730   6.0119270  32.0630070  80.7802410   7.4174430
  35.2852350  78.9216840   6.9382050  34.4570980  78.9909930   6.4632180
  35.8802830  79.5071150   6.4697880  32.2494360  75.7086160   7.8836920
  31.8365540  76.5339870   8.1376910  31.5170310  75.1231200   7.6913280
  24.3827150  78.4946060   2.7455590  23.9784150  77.7823310   2.2501490
  24.4690270  78.1499300   3.6343630  24.8508850  82.1813620   4.9094800
  24.5537140  81.5759090   4.2302580  25.8008670  82.2190930   4.7984160
  23.0955770  75.2689270   6.5254630  23.6470360  75.3784610   5.7507880
  23.6099280  75.6426870   7.2409860  32.9394460  85.7545490   8.5717900
  32.4625020  86.5617680   8.3790510  32.2556250  85.1023820   8.7244110
  23.9427280  81.9195310  11.5602600  23.0455810  82.1435280  11.8076000
  23.9680150  82.0430250  10.6114000  22.7698500  78.7908630  10.1359970
  22.6306270  79.6631430  10.5047370  21.8879860  78.4481440   9.9907910
  24.5678850  84.7330330  12.3445120  24.5394280  85.1373280  11.4773550
  24.4043820  83.8040690  12.1816720  36.5193670  85.5157430  13.6409290
  36.9953390  85.9940320  14.3198370  37.1400830  85.4474920  12.9154790
  18.7217150  80.5606180   6.0530880  18.7997570  80.6954950   5.1086600
  19.3358830  79.8522070   6.2459000  19.9664780  82.2606370   2.4637060
  19.5592860  82.4020960   1.6090660  20.8577790  81.9766530   2.2608270
  35.9226920  82.7070280  10.8009300  36.0489980  82.4682160   9.8826480
  35.9648300  81.8754820  11.2731380  29.7843660  86.4098280   9.3704110
  30.2988330  86.3206290  10.1726540  28.9412740  86.7557980   9.6632020
  35.7750930  74.7602740  11.7659040  35.1595200  75.2682410  11.2374500
  35.4547350  73.8601070  11.7084980  18.7776670  81.6020350   8.5925340
  18.9407710  81.1325710   7.7744710  19.2429120  81.0943910   9.2574180
  23.5495440  70.7326110   3.6285910  23.1063590  71.5135650   3.2970430
  24.1080430  71.0556000   4.3356850  27.8365250  73.5994630   9.2321230
  27.3744620  73.8077650  10.0441170  27.4343360  72.7853980   8.9291900
  32.8369760  74.8203580  10.3617890  31.9863350  74.5209330  10.6826960
  32.6771550  75.0645590   9.4501710  29.9319470  76.3205330  12.4616680
  30.2572880  75.4869080  12.1218910  30.7199800  76.8433850  12.6095010
  25.5871340  71.2773440   5.4875510  25.8843670  72.1836270   5.4067530
  26.1356900  70.7892220   4.8735080  25.7808870  76.7545260  12.0227430
  25.6852470  75.8139990  11.8727830  26.6240850  76.9760330  11.6275500
  20.9119410  73.1658930  10.1761210  20.5182800  74.0134140  10.3833990
  20.2237810  72.5285300  10.3669850  27.4864460  73.2493900  13.2457950
  26.7962780  73.0566100  13.8804040  28.2296760  73.5328540  13.7782250
  18.2136460  71.0887390   4.2091290  17.9249510  71.6590250   4.9216270
  18.9582220  70.6091840   4.5722520  29.7627430  77.0892340   6.0811870
  29.0308550  77.5979150   6.4301970  29.3651770  76.2722320   5.7800650
  26.2004820  73.7646540   4.4864360  26.2040880  73.3236490   3.6368900
  27.0955940  74.0863870   4.5936180  22.0507200  73.6473030   3.4458570
  21.7107250  74.1248260   4.2025620  21.2884520  73.1938150   3.0859670
  30.2253340  72.5426020   5.4934810  30.2426080  72.9934670   6.3376660
  29.9768920  71.6431660   5.7068250  33.6524090  69.9558200  11.3321190
  33.9769860  69.2247860  11.8579170  33.6880600  69.6371840  10.4302180
  20.3515650  80.9771780  10.7521150  19.9670440  80.3365450  11.3504110
  20.6627840  81.6807900  11.3215880  26.5012790  77.8248320   6.2329770
  26.8682920  77.3506890   6.9791110  26.3117850  78.6989890   6.5738110
  19.3653280  72.5692010   2.3623240  19.0800200  72.2047680   3.2001860
  19.3032140  71.8372470   1.7486380  24.2912160  76.8656960   8.5513980
  23.9869230  77.7448940   8.7764340  25.2458620  76.9256750   8.5871420
  33.5781930  80.0683310   4.9407220  34.2981050  80.5638600   4.5503330
  33.3763750  79.3901200   4.2961090  28.9600730  80.1392370  10.8276220
  28.8938040  79.2188040  10.5733810  28.3305870  80.2367810  11.5420860
  22.8631350  80.7398330   2.7859640  23.3810020  79.9366590   2.7316530
  22.4115370  80.6777470   3.6276470  20.3475890  77.7059700   9.6985340
  19.9890830  78.3713550  10.2858680  20.0530450  76.8743250  10.0697960
  23.5489010  78.1643940  12.5824890  23.2489150  78.3101120  11.6852710
  24.3200250  77.6049230  12.4898280  28.8917460  82.9612940  10.5780020
  28.9062000  82.0293900  10.3598930  28.1842560  83.0472700  11.2169790
  35.1028670  79.6020280   9.9248600  34.3776860  80.1949060   9.7277990
  35.6304130  79.5943820   9.1261970  30.6328260  81.3280450   3.4232450
  30.9852080  80.7308580   2.7633820  29.7490590  81.0024680   3.5940700
  28.3251360  84.6030510   7.6720520  28.9693580  84.8089890   8.3493940
  28.6880800  83.8418910   7.2191370  29.5983440  82.6062860   6.3897970
  30.2405670  81.9056020   6.5030140  30.1232790  83.3861300   6.2094860
  31.3721060  83.4057760   9.5934030  31.7077300  83.9924450  10.2711950
  30.4521400  83.2750470   9.8231820  18.9224460  71.1952940  10.3757440
  18.2082980  71.3949860  10.9810050  19.3419500  70.4192510  10.7472240
  19.2097050  85.1833200  11.3623970  19.3188170  84.2427940  11.2219360
  18.5577610  85.4487950  10.7137700  27.2009640  83.4549090  12.7622090
  26.8806510  82.7358330  13.3067780  26.5268000  84.1304160  12.8358150
  30.4163240  73.6875250   8.1258890  30.7844060  72.8670460   8.4538460
  29.5561440  73.7477140   8.5414540  27.3765230  76.3414840   8.3496860
  27.8750480  76.8160660   9.0148710  27.5188180  75.4178360   8.5566890
  34.5832090  72.5582800   9.1925250  34.0805690  73.2988200   9.5319060
  35.3988750  72.9466800   8.8762040  32.8754100  77.8015980   2.6386610
  31.9344240  77.8166210   2.8134300  33.1898170  77.0151940   3.0846910
  34.8779680  84.9724830   4.3140870  35.0027100  85.7956000   4.7864680
  35.7445240  84.7615560   3.9665020  22.3497210  87.0656040   3.9858000
  23.0859690  86.5171500   4.2566570  22.7338130  87.9312050   3.8463990
  21.3555490  86.2502110  13.1743580  22.1568220  86.5714160  13.5878980
  20.8407310  85.8897690  13.8963490  30.1920120  82.3581980  13.1218990
  29.5858280  82.3813580  12.3814740  29.8874230  81.6265020  13.6586240
  31.6220490  86.0862270  11.7328400  32.5742240  86.0020290  11.6828640
  31.4748710  86.7503980  12.4062190  19.0753300  78.7375570  12.1179630
  19.5792320  78.1582850  12.6895860  18.3360720  79.0215800  12.6556000
  26.1291240  80.1446560  11.6515150  25.3636910  80.7131560  11.5669820
  26.3107200  79.8522770  10.7583380  33.2714590  81.8751890  12.2090170
  34.0124060  82.2127650  11.7057630  32.5087270  82.0443950  11.6559940
  21.1076380  76.8805160  13.0129700  21.1481720  76.5819030  13.9214930
  21.9621880  77.2812770  12.8537220  23.0482190  75.4597260  10.9804190
  22.5178650  74.9688210  10.3527530  23.7170260  75.8881460  10.4462120
  31.9460250  79.9266720  10.7445380  32.3601270  80.0811800  11.5935800
  31.0111250  80.0521940  10.9071160  32.4182420  77.2662880  12.7484530
  33.0003190  76.5115200  12.6605010  32.5944190  77.7970320  11.9716010
  23.5354490  72.4259630  11.0601480  23.4411360  71.8080380  10.3352350
  22.9551880  73.1525920  10.8331390  26.3015930  70.9832870   8.0928870
  25.8533230  71.0057130   7.2474420  25.6681130  70.5851890   8.6899170
  26.7075480  79.8787200   8.7141310  27.1263590  80.7219930   8.5417550
  25.7884110  80.0159240   8.4848090  29.0439380  77.6103380  10.0979150
  29.1635590  77.0144520  10.8373990  29.9033380  77.6473070   9.6780450
  31.3827280  78.1640570   8.6741660  30.8562500  78.6883190   8.0706800
  31.7258620  78.7967960   9.3051390  24.5582900  86.1840210   9.8299040
  24.0203990  86.9086270   9.5107740  24.8116860  85.7070550   9.0396380
  25.8108150  74.1524730  11.3554970  26.4007840  73.8440580  12.0432790
  24.9928390  73.6804480  11.5114870  30.6301580  73.7690540  11.5887990
  29.9417100  73.1072080  11.5237980  31.3507600  73.3228810  12.0336450
  27.4145110  87.4191420  10.0885690  27.3403810  88.3226560  10.3958060
  26.5123950  87.1003320  10.0607760  18.8172400  84.7466010   3.3919310
  19.1475410  83.8787070   3.1597950  19.2463400  84.9524530   4.2224270
  19.3062610  85.6136600   6.1300940  18.8693600  85.7937400   6.9625090
  19.8740290  86.3711220   5.9882660  34.9424790  85.1153600  10.4178250
  34.3426780  85.1746160   9.6742170  35.0718690  84.1758580  10.5475100
  19.1387040  78.1256830   2.4889820  18.4835880  77.8568470   1.8449520
  19.9764990  78.0161310   2.0391800  36.6442670  80.4569000   3.1024090
  37.0151500  79.6736320   2.6960060  37.2844600  81.1458100   2.9241390
  33.6276430  81.8405580   8.5154410  32.8136270  82.2702740   8.7780200
  34.0350630  82.4523990   7.9023460  20.1762970  78.5109400   7.0293160
  20.5436010  78.4236800   7.9089180  19.6073790  77.7475950   6.9300020
  34.9766830  76.9793780  10.0423630  34.7452920  76.7506530   9.1421580
  35.2371380  77.8993330   9.9968520  19.7278970  75.4218490  10.9351580
  18.8335020  75.3885250  11.2745290  20.2676520  75.6205280  11.7002830
  33.4154900  72.2050210  12.8203330  34.2925080  72.2133610  13.2037330
  33.4275740  71.4681050  12.2095680  34.8618170  76.0579750   3.7091350
  35.3855650  75.5642400   3.0781520  35.4477590  76.1930110   4.4538920
  35.0407890  76.1419620   7.2310900  34.0910600  76.1083160   7.3455890
  35.2220900  77.0519730   6.9960670  20.2318680  69.6966820   5.2834800
  20.8794870  69.1464200   4.8429960  20.6520520  69.9509970   6.1050610
  35.7805300  73.9514050   2.1821440  35.6704580  73.7970090   3.1203710
  36.5412890  73.4234990   1.9396850  34.1271020  69.8908180   8.6404440
  34.7643240  70.5042320   9.0063630  34.2745910  69.9268840   7.6953670
  19.9850680  69.8522490   8.0260120  19.6365500  70.3086310   8.7918300
  19.6538380  68.9579620   8.1082550  21.5915050  83.0242090  12.1913310
  21.5484680  82.6535000  13.0727770  21.7226060  83.9619660  12.3315130
  25.2921080  84.5801680   7.7923030  25.0512440  84.8476240   6.9053550
  26.2323720  84.7507410   7.8473890  27.4975500  71.0434370  11.5479540
  27.4364390  71.6356200  12.2974950  28.4375880  70.9360330  11.4029800
  30.1350060  70.7004430  11.1871830  30.7490470  71.0183720  10.5252910
  30.6799620  70.2153020  11.8067690  36.5525240  86.5996060   8.5933670
  36.0583520  86.9964930   7.8760800  35.9438530  85.9745270   8.9870950
  20.6571320  69.3798690  11.3010890  21.2054310  69.1986740  10.5377000
  20.7226630  68.5892800  11.8367200  21.4303080  85.9704340   9.3111090
  20.8363400  85.8389040  10.0501130  21.4226920  85.1342480   8.8453190
  30.8758100  69.2636570   7.5141120  30.0017940  69.5971680   7.3114050
  30.7668850  68.7909750   8.3392990  31.7830080  71.4707440   8.8982840
  31.4543440  70.6559200   8.5184570  32.7312380  71.4277250   8.7748530
  34.2364690  87.2419480   5.8720410  33.7767660  87.9935290   5.4978430
  33.6077150  86.5225950   5.8135210  21.0615310  83.3362720   8.2619130
  20.3349370  82.7168010   8.1945080  21.1224460  83.7303330   7.3917210
  24.6660410  85.5507720   5.0468540  25.1825430  84.9395080   4.5216800
  25.3157790  86.0536500   5.5379550  27.4055910  86.4416210   5.8737520
  27.6933720  86.1870510   4.9970530  27.9179130  85.8893570   6.4643090
  28.6232920  70.1806410   6.4534030  27.8404710  70.6551910   6.7330790
  28.3295850  69.2761240   6.3447210  33.1753990  70.8829510   4.4983120
  33.6162080  70.8274610   3.6504720  32.9061580  71.7987520   4.5693300
  35.0392560  70.5144750   2.5091940  34.9780960  69.5705970   2.3622960
  35.8184590  70.6224840   3.0545400  26.5087140  72.5993160   1.9650060
  25.6961650  72.2250050   1.6245940  27.0128780  71.8438240   2.2671250
  31.0112120  69.2635610   3.2033130  31.6141490  69.8355820   3.6781650
  30.2705110  69.8275050   2.9807030  27.4728270  87.3632310  13.2405720
  28.3995580  87.1276580  13.2841680  27.4578700  88.1904310  12.7591750
  24.6591880  70.0277060  13.0047600  24.3776150  70.5310660  12.2408420
  25.0411580  69.2298810  12.6389730  31.2607340  69.4430640  13.5828070
  31.1472790  69.7625250  14.4779590  32.0777080  69.8443150  13.2865350
  34.0405830  86.5902170  13.0646760  34.8331150  86.0951400  12.8572720
  34.3338980  87.2692310  13.6722370  30.1665490  58.6879620  59.0436770
  30.0859540  57.7734230  58.7728480  29.7529910  59.1846690  58.3376480
  28.2983530  60.4658640  60.9246040  27.5225630  59.9859080  61.2144610
  28.9496460  59.7864290  60.7502200  22.3149360  60.7778450  61.8021800
  21.4834240  60.5227160  62.2018310  22.9230340  60.8489220  62.5379720
  32.3190960  64.8718830  59.7045170  31.8572490  64.1006070  60.0332340
  33.1316510  64.8984900  60.2097620  22.2950620  64.8118540  61.9979820
  22.5978660  63.9216280  61.8190040  23.0394210  65.3688760  61.7702070
  20.7241310  55.7380340  55.5864190  19.8358010  56.0796310  55.4844070
  21.0082500  55.5380660  54.6945020  18.6874320  58.3385990  61.4703890
  19.2590430  57.5708190  61.4707530  18.6875860  58.6374750  60.5610500
  28.5454270  67.1576840  59.3249160  27.9265710  67.6134340  58.7543600
  29.4006050  67.3128300  58.9238860  27.7392520  63.1415830  60.9316200
  27.6700800  62.2005770  60.7705330  28.5012380  63.2317240  61.5038770
  28.7697690  55.9486210  61.1585130  29.1462510  55.0758090  61.0458800
  28.6717200  56.2844910  60.2675570  22.9002700  54.3211840  56.6202570
  23.0069450  55.2215570  56.9271330  21.9895060  54.2729810  56.3297220
  32.5521810  53.4436650  58.0913470  33.3731430  52.9533220  58.1338950
  32.5855890  54.0334310  58.8445310  20.5485860  56.2430850  61.8655160
  21.2295970  56.5069220  62.4842560  20.2333910  55.4031720  62.1993170
  24.7410430  57.2898210  60.9527750  25.2488650  57.7879180  61.5932770
  25.2723670  56.5133410  60.7767110  29.4117620  62.0416080  56.7181070
  28.7934890  62.5065530  56.1543790  29.9240870  62.7343560  57.1350580
  32.7883290  55.3837030  60.8641010  32.0838860  55.6721920  61.4444120
  33.1495450  56.1937140  60.5040570  22.7061860  53.6406730  63.2261620
  23.0478670  54.4848780  62.9315490  21.7677670  53.7890470  63.3426960
  18.7800820  62.7272610  54.0920700  18.4028800  63.2159710  53.3605600
  19.0373890  63.3997890  54.7227230  34.4046070  65.0012160  63.1268490
  33.7209590  65.6711270  63.1185160  34.9440360  65.1992810  62.3613350
  35.8570210  54.8291820  61.2550220  34.9095120  54.8630800  61.3865650
  36.1820200  55.6430770  61.6399580  26.3889750  51.1289000  59.5506210
  26.6964730  50.5735890  58.8341710  25.4590450  51.2633460  59.3679200
  31.9404810  66.8456290  61.8413670  31.9531970  66.4418580  60.9735930
  31.3880030  67.6203580  61.7375100  33.2350230  63.5672510  56.9303840
  33.1246560  62.6246840  57.0553260  33.2318480  63.9288150  57.8166600
  28.7770510  59.1937830  56.2866330  27.8499790  59.1275210  56.5154800
  28.9295330  60.1317960  56.1721570  28.7639590  55.4654830  53.2833490
  27.8243260  55.6268790  53.3685950  29.0822850  56.1840510  52.7369480
  35.2852350  60.1473350  63.2612520  34.4570980  60.2166440  62.7862650
  35.8802830  60.7327660  62.7928350  32.8067800  60.7558130  56.7901580
  32.1880220  60.4177680  56.1427880  32.7892250  60.1117890  57.4980770
  24.3827150  59.7202570  59.0686060  23.9784150  59.0079820  58.5731960
  24.4690270  59.3755810  59.9574100  24.8508850  63.4070130  61.2325270
  24.5537140  62.8015600  60.5533050  25.8008670  63.4447440  61.1214630
  30.9832500  59.9944940  53.7974330  31.4225780  59.1567370  53.6512150
  31.6960920  60.6274340  53.8838470  29.0927880  64.9341010  57.7655570
  29.5323790  65.6765340  57.3510960  29.0314770  65.1767580  58.6894530
  34.5649640  51.2487750  52.1115370  34.2522300  51.3414580  53.0114440
  35.3262110  51.8268780  52.0612800  21.0831780  58.6147550  56.5692710
  20.9629380  59.3409640  55.9573980  20.7732670  57.8450460  56.0920620
  18.7217150  61.7862690  62.3761350  18.7997570  61.9211460  61.4317070
  19.3358830  61.0778580  62.5689470  19.9664780  63.4862880  58.7867530
  19.5592860  63.6277470  57.9321130  20.8577790  63.2023040  58.5838740
  31.7598060  67.9210130  55.1218580  31.5999200  67.6313070  56.0200410
  31.5944770  67.1450260  54.5863810  24.2386440  67.7008660  56.8990200
  24.0628920  66.7844200  56.6858000  23.3842180  68.0595950  57.1388000
  31.4624190  65.4297690  53.6816580  30.7689350  65.4274980  53.0218860
  32.2047050  65.0057010  53.2510750  31.0274120  67.0560400  57.7565070
  31.4831070  66.2749780  58.0703690  31.3666640  67.7667220  58.3006250
  23.5495440  51.9582620  59.9516380  23.1063590  52.7392160  59.6200900
  24.1080430  52.2812510  60.6587320  26.6654260  51.5793320  54.8322210
  26.0408440  51.5753190  55.5575520  26.5784380  50.7124280  54.4358180
  25.5871340  52.5029950  61.8105980  25.8843670  53.4092780  61.7298000
  26.1356900  52.0148730  61.1965550  23.3409660  57.0816190  57.6797630
  23.1150580  56.8653360  58.5844250  22.5602190  57.5144650  57.3343600
  30.5707420  57.0879560  56.2788280  29.9716310  57.8115360  56.0951900
  31.1187030  57.0256340  55.4964730  29.1772290  55.7243100  58.3091560
  29.5701860  56.0415300  57.4960250  29.5389140  54.8454980  58.4236080
  18.2136460  52.3143900  60.5321760  17.9249510  52.8846760  61.2446740
  18.9582220  51.8348350  60.8952990  18.4006690  56.2564020  51.7424480
  18.3181360  57.1994780  51.8839470  18.0489750  56.1138930  50.8636830
  29.7627430  58.3148850  62.4042340  29.0308550  58.8235660  62.7532440
  29.3651770  57.4978830  62.1031120  26.2004820  54.9903050  60.8094830
  26.2040880  54.5493000  59.9599370  27.0955940  55.3120380  60.9166650
  22.0507200  54.8729540  59.7689040  21.7107250  55.3504770  60.5256090
  21.2884520  54.4194660  59.4090140  26.2624970  55.9915130  53.8001590
  26.3837790  55.9501610  54.7487410  25.8773480  56.8539280  53.6448320
  30.2253340  53.7682530  61.8165280  30.2426080  54.2191180  62.6607130
  29.9768920  52.8688170  62.0298720  25.2746470  58.3016270  53.1984890
  24.7063370  57.8534520  52.5720800  25.9835470  58.6609050  52.6650040
  26.5012790  59.0504830  62.5560240  26.8682920  58.5763400  63.3021580
  26.3117850  59.9246400  62.8968580  19.3653280  53.7948520  58.6853710
  19.0800200  53.4304190  59.5232330  19.3032140  53.0628980  58.0716850
  22.8193950  62.2974460  55.4711300  22.0456210  61.7572080  55.3110020
  23.5488580  61.7781070  55.1329060  33.5781930  61.2939820  61.2637690
  34.2981050  61.7895110  60.8733800  33.3763750  60.6157710  60.6191560
  29.0391870  52.6877780  55.4067080  28.2256480  52.1890950  55.3312390
  28.8453820  53.5276030  54.9903430  31.7540260  57.0597430  53.7029240
  32.6419880  57.3714660  53.5280580  31.7245350  56.1869680  53.3109820
  22.8631350  61.9654840  59.1090110  23.3810020  61.1623100  59.0547000
  22.4115370  61.9033980  59.9506940  27.7500850  63.2321120  54.3817410
  28.0916550  63.9763350  53.8860730  26.9213560  63.5452240  54.7442240
  34.0254530  58.3709270  53.1709100  33.9418250  58.8023490  52.3205540
  34.7448720  58.8307620  53.6035920  35.0541780  65.2251530  55.8991230
  34.4117940  64.5707150  56.1734950  34.6672440  65.6306620  55.1231900
  30.6328260  62.5536960  59.7462920  30.9852080  61.9565090  59.0864290
  29.7490590  62.2281190  59.9171170  26.7191540  63.3134650  57.1533330
  27.4062670  63.8603860  57.5340920  25.9323960  63.8575380  57.1882940
  18.8583940  58.9307470  52.6450410  19.7278790  59.2132270  52.9286330
  18.3674260  59.7443340  52.5299220  26.0218750  60.3180680  56.7658690
  26.4781530  61.1285930  56.9918880  25.6706960  60.0003820  57.5977180
  21.9230530  50.6618330  57.2381210  21.7945160  50.6536230  58.1866130
  21.0992550  51.0001420  56.8872220  29.5983440  63.8319370  62.7128440
  30.2405670  63.1312530  62.8260610  30.1232790  64.6117810  62.5325330
  33.4439160  64.1167990  52.4367580  33.2176740  63.3998430  53.0292220
  33.0535360  63.8680430  51.5989330  19.2255190  68.1434850  53.2112040
  19.5852830  68.7424190  52.5569310  19.0847530  68.6894740  53.9847070
  33.0255410  62.0339930  54.0981740  32.7377110  62.4952620  54.8859620
  33.8207580  61.5737700  54.3665960  25.2423810  65.5266050  54.0285710
  25.2333910  66.2595740  53.4130220  24.3222170  65.2797630  54.1212670
  20.8430450  60.7480940  54.7732470  20.2358400  61.4879840  54.7827770
  21.3179800  60.8380300  53.9470670  33.7825270  53.8688700  55.2576920
  33.1538430  53.9734370  54.5435150  33.2877190  54.0885480  56.0470800
  28.2283410  65.5894290  52.6910900  28.3295390  65.3858280  51.7612880
  27.3285150  65.3352570  52.8958680  25.7509300  56.1474650  56.6734800
  25.0425450  56.6160990  57.1148410  26.0353780  55.4896660  57.3079990
  29.7824730  52.8725310  58.1130590  29.6592510  52.8911440  57.1640100
  30.7309290  52.9204250  58.2328990  26.8701520  68.1080610  57.3858570
  27.1243020  68.0702000  56.4637940  25.9214000  67.9813940  57.3786820
  23.9544320  54.4559730  54.0485510  24.8034850  54.8929880  53.9825700
  23.5875590  54.7679990  54.8757570  32.8754100  59.0272490  58.9617080
  31.9344240  59.0422720  59.1364770  33.1898170  58.2408450  59.4077380
  22.8535740  60.7092090  52.5221040  23.6199010  60.5973450  53.0846470
  22.9310430  60.0130060  51.8697810  21.5482500  58.1417160  53.2053930
  21.6286090  57.1944670  53.3171330  22.4402250  58.4724040  53.3114590
  34.8779680  66.1981340  60.6371340  35.0027100  67.0212510  61.1095150
  35.7445240  65.9872070  60.2895490  22.3497210  68.2912550  60.3088470
  23.0859690  67.7428010  60.5797040  22.7338130  69.1568560  60.1694460
  19.2342690  64.3586120  56.1829980  18.3082470  64.6007260  56.1735390
  19.6999120  65.1860380  56.0614730  25.4599520  67.4642860  52.1314040
  26.2528130  67.7531690  51.6795830  24.9403870  67.0335030  51.4526520
  34.5129690  66.6912990  53.5550780  34.2271200  66.2778130  52.7404960
  34.3149240  67.6200700  53.4351300  25.9776920  62.6846270  51.9956390
  25.8727560  62.0698620  52.7217770  25.8101140  62.1612160  51.2119400
  29.2179650  61.7466300  52.5998380  28.6689750  62.1935600  53.2441120
  29.8398910  61.2415550  53.1236050  24.8854770  60.7057220  54.4963680
  25.3071190  60.5397090  55.3395070  25.0105610  59.8957450  54.0018820
  27.3982410  59.7294830  51.7440780  27.9188070  59.0143850  51.3781930
  28.0450810  60.3680700  52.0441290  23.7813670  56.7790450  51.4421840
  23.5802730  55.9157810  51.8035180  23.6105720  56.6923810  50.5043440
  31.2601980  51.5898680  53.9708720  31.5404270  50.7466580  54.3268140
  30.4867710  51.8221790  54.4847470  22.5796470  53.8791070  51.4299720
  22.8822370  53.8858500  50.5218870  23.3191060  53.5288930  51.9267380
  25.7981400  52.8225690  52.4155920  25.4503400  52.1449680  51.8358370
  25.9994170  52.3615200  53.2299310  27.9630440  67.8106440  54.0342520
  28.8581230  68.1491410  54.0561280  27.9948070  67.0885850  53.4066800
  21.6026600  63.1833490  52.2629520  22.0401470  63.7263160  52.9187100
  22.0874330  62.3580440  52.2725860  18.8172400  65.9722520  59.7149780
  19.1475410  65.1043580  59.4828420  19.2463400  66.1781040  60.5454740
  23.4134320  64.3031530  57.3751750  23.1129860  64.1796500  58.2755660
  23.3071810  63.4440120  56.9667480  19.3062610  66.8393110  62.4531410
  18.8693600  67.0193910  63.2855560  19.8740290  67.5967730  62.3113130
  36.1826240  64.0827930  52.0778430  35.3519200  64.1504580  52.5485660
  36.3598070  64.9732050  51.7745290  35.6382700  60.8275410  54.5812630
  36.4001610  61.3972060  54.6872320  35.6537070  60.2602610  55.3520940
  19.1387040  59.3513340  58.8120290  18.4835880  59.0824980  58.1679990
  19.9764990  59.2417820  58.3622270  36.6442670  61.6825510  59.4254560
  37.0151500  60.8992830  59.0190530  37.2844600  62.3714610  59.2471860
  35.6901870  61.1209780  51.7385150  35.9650710  62.0288660  51.6104370
  35.5012610  61.0572310  52.6747140  32.0877480  54.1454630  53.0338780
  32.5062360  53.9585610  52.1935440  31.7813540  53.2933680  53.3441710
  35.5867210  59.0578770  56.7314580  35.2110810  58.2906700  56.2995870
  34.8570330  59.4401470  57.2189510  18.3525120  56.5612270  54.7545620
  17.4489200  56.8242470  54.5797280  18.8365740  56.8323440  53.9745580
  34.8618170  57.2836260  60.0321820  35.3855650  56.7898910  59.4011990
  35.4477590  57.4186620  60.7769390  20.8952330  55.6177810  52.6640000
  21.6044030  55.1961030  52.1787280  20.1792270  55.6853040  52.0323350
  20.5426490  51.6717140  51.7042650  21.2654620  52.2126080  52.0223870
  20.8151010  51.3980560  50.8284190  34.3518140  56.5409610  55.9714230
  34.8477260  56.3080480  56.7563110  34.1534210  55.7021450  55.5551870
  20.2318680  50.9223330  61.6065270  20.8794870  50.3720710  61.1660430
  20.6520520  51.1766480  62.4281080  35.7805300  55.1770560  58.5051910
  35.6704580  55.0226600  59.4434180  36.5412890  54.6491500  58.2627320
  36.6695570  53.0078480  51.7458050  37.5944880  52.8759660  51.5376340
  36.6471360  53.0871300  52.6994500  36.7434060  53.7789140  54.3714760
  35.9485560  53.7134260  54.9007670  36.9477340  54.7139780  54.3600110
  33.6852480  67.8180690  58.3653150  34.2811550  67.4965260  57.6887570
  33.9430630  67.3452510  59.1566420  34.2364690  68.4675990  62.1950880
  33.7767660  69.2191800  61.8208900  33.6077150  67.7482460  62.1365680
  24.6660410  66.7764230  61.3699010  25.1825430  66.1651590  60.8447270
  25.3157790  67.2793010  61.8610020  27.4055910  67.6672720  62.1967990
  27.6933720  67.4127020  61.3201000  27.9179130  67.1150080  62.7873560
  28.6232920  51.4062920  62.7764500  27.8404710  51.8808420  63.0561260
  28.3295850  50.5017750  62.6677680  33.1753990  52.1086020  60.8213590
  33.6162080  52.0531120  59.9735190  32.9061580  53.0244030  60.8923770
  35.0392560  51.7401260  58.8322410  34.9780960  50.7962480  58.6853430
  35.8184590  51.8481350  59.3775870  19.3445310  67.8793620  57.7946360
  19.1767350  67.2464300  58.4928250  18.4779820  68.0853020  57.4440550
  19.9673330  51.7110400  55.2978220  20.7252690  51.8239280  54.7242250
  19.5050500  52.5479600  55.2521650  26.5087140  53.8249670  58.2880530
  25.6961650  53.4506560  57.9476410  27.0128780  53.0694750  58.5901720
  31.0112120  50.4892120  59.5263600  31.6141490  51.0612330  60.0012120
  30.2705110  51.0531560  59.3037500  34.1546720  50.8913680  54.8003880
  34.3497350  51.7897130  55.0671310  33.3676590  50.6600760  55.2936830
  20.9508010  66.5726850  55.2396500  20.4255630  66.9534880  54.5358460
  20.8752590  67.1977620  55.9606210  22.3398480  52.2374450  53.8380190
  22.8691240  51.4504250  53.7088140  22.9726800  52.9165640  54.0715720
  24.5336320  51.9749590  56.8925580  23.9039060  51.2736900  57.0595710
  23.9941460  52.7353720  56.6758740  35.7073330  68.1314390  56.5610440
  35.8825520  67.4452130  55.9171360  35.0094900  68.6561440  56.1687110
  23.5500980  68.5209230  54.1145750  24.2819800  68.2368510  53.5669640
  23.8094650  68.2822510  55.0045130  22.7115770  64.6373960  54.1192080
  22.0824650  65.1059060  54.6677910  22.8263600  63.7923180  54.5538270
  30.1665490  58.6879620  40.2693280  30.0859540  57.7734230  39.9984990
  29.7529910  59.1846690  39.5632990  28.2983530  60.4658640  42.1502550
  27.5225630  59.9859080  42.4401120  28.9496460  59.7864290  41.9758710
  22.3149360  60.7778450  43.0278310  21.4834240  60.5227160  43.4274820
  22.9230340  60.8489220  43.7636230  32.3190960  64.8718830  40.9301680
  31.8572490  64.1006070  41.2588850  33.1316510  64.8984900  41.4354130
  22.2950620  64.8118540  43.2236330  22.5978660  63.9216280  43.0446550
  23.0394210  65.3688760  42.9958580  20.7241310  55.7380340  36.8120700
  19.8358010  56.0796310  36.7100580  21.0082500  55.5380660  35.9201530
  18.6874320  58.3385990  42.6960400  19.2590430  57.5708190  42.6964040
  18.6875860  58.6374750  41.7867010  28.5454270  67.1576840  40.5505670
  27.9265710  67.6134340  39.9800110  29.4006050  67.3128300  40.1495370
  27.7392520  63.1415830  42.1572710  27.6700800  62.2005770  41.9961840
  28.5012380  63.2317240  42.7295280  19.9299190  53.7470350  44.4829330
  19.7502030  52.8496100  44.7632090  19.5279270  54.2942220  45.1576280
  28.7697690  55.9486210  42.3841640  29.1462510  55.0758090  42.2715310
  28.6717200  56.2844910  41.4932080  20.5485860  56.2430850  43.0911670
  21.2295970  56.5069220  43.7099070  20.2333910  55.4031720  43.4249680
  24.7410430  57.2898210  42.1784260  25.2488650  57.7879180  42.8189280
  25.2723670  56.5133410  42.0023620  36.8421360  55.4603400  45.8813610
  36.1373530  55.8485110  45.3628720  37.1079280  56.1553690  46.4834540
  23.0246530  51.9296770  46.4447680  23.0264970  52.4469160  45.6393580
  22.1950840  51.4526950  46.4217610  24.2749380  61.5691950  44.6221180
  23.9418760  62.1960870  45.2642250  24.4516060  62.0953830  43.8422850
  32.7883290  55.3837030  42.0897520  32.0838860  55.6721920  42.6700630
  33.1495450  56.1937140  41.7297080  22.7061860  53.6406730  44.4518130
  23.0478670  54.4848780  44.1572000  21.7677670  53.7890470  44.5683470
  23.4868480  63.5372750  46.4370360  24.1042480  64.2123830  46.1554810
  22.6261600  63.9460730  46.3457860  18.7800820  62.7272610  35.3177210
  18.4028800  63.2159710  34.5862110  19.0373890  63.3997890  35.9483740
  34.4046070  65.0012160  44.3525000  33.7209590  65.6711270  44.3441670
  34.9440360  65.1992810  43.5869860  35.8570210  54.8291820  42.4806730
  34.9095120  54.8630800  42.6122160  36.1820200  55.6430770  42.8656090
  26.3889750  51.1289000  40.7762720  26.6964730  50.5735890  40.0598220
  25.4590450  51.2633460  40.5935710  31.9404810  66.8456290  43.0670180
  31.9531970  66.4418580  42.1992440  31.3880030  67.6203580  42.9631610
  31.3390250  61.7486130  44.3952790  31.7559040  61.5346240  43.5606250
  32.0630070  62.0058920  44.9661410  35.2852350  60.1473350  44.4869030
  34.4570980  60.2166440  44.0119160  35.8802830  60.7327660  44.0184860
  32.2494360  56.9342670  45.4323900  31.8365540  57.7596380  45.6863890
  31.5170310  56.3487710  45.2400260  24.3827150  59.7202570  40.2942570
  23.9784150  59.0079820  39.7988470  24.4690270  59.3755810  41.1830610
  24.8508850  63.4070130  42.4581780  24.5537140  62.8015600  41.7789560
  25.8008670  63.4447440  42.3471140  23.0955770  56.4945780  44.0741610
  23.6470360  56.6041120  43.2994860  23.6099280  56.8683380  44.7896840
  32.9394460  66.9802000  46.1204880  32.4625020  67.7874190  45.9277490
  32.2556250  66.3280330  46.2731090  23.9427280  63.1451820  49.1089580
  23.0455810  63.3691790  49.3562980  23.9680150  63.2686760  48.1600980
  22.7698500  60.0165140  47.6846950  22.6306270  60.8887940  48.0534350
  21.8879860  59.6737950  47.5394890  29.0927880  64.9341010  38.9912080
  29.5323790  65.6765340  38.5767470  29.0314770  65.1767580  39.9151040
  24.5678850  65.9586840  49.8932100  24.5394280  66.3629790  49.0260530
  24.4043820  65.0297200  49.7303700  21.0831780  58.6147550  37.7949220
  20.9629380  59.3409640  37.1830490  20.7732670  57.8450460  37.3177130
  36.5193670  66.7413940  51.1896270  36.9953390  67.2196830  51.8685350
  37.1400830  66.6731430  50.4641770  18.7217150  61.7862690  43.6017860
  18.7997570  61.9211460  42.6573580  19.3358830  61.0778580  43.7945980
  19.9664780  63.4862880  40.0124040  19.5592860  63.6277470  39.1577640
  20.8577790  63.2023040  39.8095250  35.9226920  63.9326790  48.3496280
  36.0489980  63.6938670  47.4313460  35.9648300  63.1011330  48.8218360
  29.7843660  67.6354790  46.9191090  30.2988330  67.5462800  47.7213520
  28.9412740  67.9814490  47.2119000  31.7598060  67.9210130  36.3475090
  31.5999200  67.6313070  37.2456920  31.5944770  67.1450260  35.8120320
  24.2386440  67.7008660  38.1246710  24.0628920  66.7844200  37.9114510
  23.3842180  68.0595950  38.3644510  31.4624190  65.4297690  34.9073090
  30.7689350  65.4274980  34.2475370  32.2047050  65.0057010  34.4767260
  31.0274120  67.0560400  38.9821580  31.4831070  66.2749780  39.2960200
  31.3666640  67.7667220  39.5262760  35.7750930  55.9859250  49.3146020
  35.1595200  56.4938920  48.7861480  35.4547350  55.0857580  49.2571960
  18.7776670  62.8276860  46.1412320  18.9407710  62.3582220  45.3231690
  19.2429120  62.3200420  46.8061160  23.5495440  51.9582620  41.1772890
  23.1063590  52.7392160  40.8457410  24.1080430  52.2812510  41.8843830
  27.8365250  54.8251140  46.7808210  27.3744620  55.0334160  47.5928150
  27.4343360  54.0110490  46.4778880  32.8369760  56.0460090  47.9104870
  31.9863350  55.7465840  48.2313940  32.6771550  56.2902100  46.9988690
  29.9319470  57.5461840  50.0103660  30.2572880  56.7125590  49.6705890
  30.7199800  58.0690360  50.1581990  25.5871340  52.5029950  43.0362490
  25.8843670  53.4092780  42.9554510  26.1356900  52.0148730  42.4222060
  23.3409660  57.0816190  38.9054140  23.1150580  56.8653360  39.8100760
  22.5602190  57.5144650  38.5600110  25.7808870  57.9801770  49.5714410
  25.6852470  57.0396500  49.4214810  26.6240850  58.2016840  49.1762480
  20.9119410  54.3915440  47.7248190  20.5182800  55.2390650  47.9320970
  20.2237810  53.7541810  47.9156830  27.4864460  54.4750410  50.7944930
  26.7962780  54.2822610  51.4291020  28.2296760  54.7585050  51.3269230
  18.2136460  52.3143900  41.7578270  17.9249510  52.8846760  42.4703250
  18.9582220  51.8348350  42.1209500  18.4006690  56.2564020  32.9680990
  18.3181360  57.1994780  33.1095980  18.0489750  56.1138930  32.0893340
  29.7627430  58.3148850  43.6298850  29.0308550  58.8235660  43.9788950
  29.3651770  57.4978830  43.3287630  26.2004820  54.9903050  42.0351340
  26.2040880  54.5493000  41.1855880  27.0955940  55.3120380  42.1423160
  22.0507200  54.8729540  40.9945550  21.7107250  55.3504770  41.7512600
  21.2884520  54.4194660  40.6346650  30.2253340  53.7682530  43.0421790
  30.2426080  54.2191180  43.8863640  29.9768920  52.8688170  43.2555230
  33.6524090  51.1814710  48.8808170  33.9769860  50.4504370  49.4066150
  33.6880600  50.8628350  47.9789160  20.3515650  62.2028290  48.3008130
  19.9670440  61.5621960  48.8991090  20.6627840  62.9064410  48.8702860
  26.5012790  59.0504830  43.7816750  26.8682920  58.5763400  44.5278090
  26.3117850  59.9246400  44.1225090  19.3653280  53.7948520  39.9110220
  19.0800200  53.4304190  40.7488840  19.3032140  53.0628980  39.2973360
  24.2912160  58.0913470  46.1000960  23.9869230  58.9705450  46.3251320
  25.2458620  58.1513260  46.1358400  22.8193950  62.2974460  36.6967810
  22.0456210  61.7572080  36.5366530  23.5488580  61.7781070  36.3585570
  33.5781930  61.2939820  42.4894200  34.2981050  61.7895110  42.0990310
  33.3763750  60.6157710  41.8448070  28.9600730  61.3648880  48.3763200
  28.8938040  60.4444550  48.1220790  28.3305870  61.4624320  49.0907840
  22.8631350  61.9654840  40.3346620  23.3810020  61.1623100  40.2803510
  22.4115370  61.9033980  41.1763450  27.7500850  63.2321120  35.6073920
  28.0916550  63.9763350  35.1117240  26.9213560  63.5452240  35.9698750
  20.3475890  58.9316210  47.2472320  19.9890830  59.5970060  47.8345660
  20.0530450  58.0999760  47.6184940  23.5489010  59.3900450  50.1311870
  23.2489150  59.5357630  49.2339690  24.3200250  58.8305740  50.0385260
  28.8917460  64.1869450  48.1267000  28.9062000  63.2550410  47.9085910
  28.1842560  64.2729210  48.7656770  35.1028670  60.8276790  47.4735580
  34.3776860  61.4205570  47.2764970  35.6304130  60.8200330  46.6748950
  30.6328260  62.5536960  40.9719430  30.9852080  61.9565090  40.3120800
  29.7490590  62.2281190  41.1427680  26.7191540  63.3134650  38.3789840
  27.4062670  63.8603860  38.7597430  25.9323960  63.8575380  38.4139450
  18.8583940  58.9307470  33.8706920  19.7278790  59.2132270  34.1542840
  18.3674260  59.7443340  33.7555730  26.0218750  60.3180680  37.9915200
  26.4781530  61.1285930  38.2175390  25.6706960  60.0003820  38.8233690
  28.3251360  65.8287020  45.2207500  28.9693580  66.0346400  45.8980920
  28.6880800  65.0675420  44.7678350  21.9230530  50.6618330  38.4637720
  21.7945160  50.6536230  39.4122640  21.0992550  51.0001420  38.1128730
  29.5983440  63.8319370  43.9384950  30.2405670  63.1312530  44.0517120
  30.1232790  64.6117810  43.7581840  31.3721060  64.6314270  47.1421010
  31.7077300  65.2180960  47.8198930  30.4521400  64.5006980  47.3718800
  19.2255190  68.1434850  34.4368550  19.5852830  68.7424190  33.7825820
  19.0847530  68.6894740  35.2103580  18.9224460  52.4209450  47.9244420
  18.2082980  52.6206370  48.5297030  19.3419500  51.6449020  48.2959220
  19.2097050  66.4089710  48.9110950  19.3188170  65.4684450  48.7706340
  18.5577610  66.6744460  48.2624680  27.2009640  64.6805600  50.3109070
  26.8806510  63.9614840  50.8554760  26.5268000  65.3560670  50.3845130
  25.2423810  65.5266050  35.2542220  25.2333910  66.2595740  34.6386730
  24.3222170  65.2797630  35.3469180  20.8430450  60.7480940  35.9988980
  20.2358400  61.4879840  36.0084280  21.3179800  60.8380300  35.1727180
  30.4163240  54.9131760  45.6745870  30.7844060  54.0926970  46.0025440
  29.5561440  54.9733650  46.0901520  28.2283410  65.5894290  33.9167410
  28.3295390  65.3858280  32.9869390  27.3285150  65.3352570  34.1215190
  27.3765230  57.5671350  45.8983840  27.8750480  58.0417170  46.5635690
  27.5188180  56.6434870  46.1053870  26.8701520  68.1080610  38.6115080
  27.1243020  68.0702000  37.6894450  25.9214000  67.9813940  38.6043330
  34.5832090  53.7839310  46.7412230  34.0805690  54.5244710  47.0806040
  35.3988750  54.1723310  46.4249020  32.8754100  59.0272490  40.1873590
  31.9344240  59.0422720  40.3621280  33.1898170  58.2408450  40.6333890
  22.8535740  60.7092090  33.7477550  23.6199010  60.5973450  34.3102980
  22.9310430  60.0130060  33.0954320  34.8779680  66.1981340  41.8627850
  35.0027100  67.0212510  42.3351660  35.7445240  65.9872070  41.5152000
  22.3497210  68.2912550  41.5344980  23.0859690  67.7428010  41.8053550
  22.7338130  69.1568560  41.3950970  19.2342690  64.3586120  37.4086490
  18.3082470  64.6007260  37.3991900  19.6999120  65.1860380  37.2871240
  21.3555490  67.4758620  50.7230560  22.1568220  67.7970670  51.1365960
  20.8407310  67.1154200  51.4450470  25.4599520  67.4642860  33.3570550
  26.2528130  67.7531690  32.9052340  24.9403870  67.0335030  32.6783030
  30.1920120  63.5838490  50.6705970  29.5858280  63.6070090  49.9301720
  29.8874230  62.8521530  51.2073220  31.6220490  67.3118780  49.2815380
  32.5742240  67.2276800  49.2315620  31.4748710  67.9760490  49.9549170
  19.0753300  59.9632080  49.6666610  19.5792320  59.3839360  50.2382840
  18.3360720  60.2472310  50.2042980  25.9776920  62.6846270  33.2212900
  25.8727560  62.0698620  33.9474280  25.8101140  62.1612160  32.4375910
  26.1291240  61.3703070  49.2002130  25.3636910  61.9388070  49.1156800
  26.3107200  61.0779280  48.3070360  33.2714590  63.1008400  49.7577150
  34.0124060  63.4384160  49.2544610  32.5087270  63.2700460  49.2046920
  21.1076380  58.1061670  50.5616680  21.1481720  57.8075540  51.4701910
  21.9621880  58.5069280  50.4024200  23.0482190  56.6853770  48.5291170
  22.5178650  56.1944720  47.9014510  23.7170260  57.1137970  47.9949100
  31.9460250  61.1523230  48.2932360  32.3601270  61.3068310  49.1422780
  31.0111250  61.2778450  48.4558140  32.4182420  58.4919390  50.2971510
  33.0003190  57.7371710  50.2091990  32.5944190  59.0226830  49.5202990
  23.5354490  53.6516140  48.6088460  23.4411360  53.0336890  47.8839330
  22.9551880  54.3782430  48.3818370  26.3015930  52.2089380  45.6415850
  25.8533230  52.2313640  44.7961400  25.6681130  51.8108400  46.2386150
  26.7075480  61.1043710  46.2628290  27.1263590  61.9476440  46.0904530
  25.7884110  61.2415750  46.0335070  29.0439380  58.8359890  47.6466130
  29.1635590  58.2401030  48.3860970  29.9033380  58.8729580  47.2267430
  31.3827280  59.3897080  46.2228640  30.8562500  59.9139700  45.6193780
  31.7258620  60.0224470  46.8538370  24.5582900  67.4096720  47.3786020
  24.0203990  68.1342780  47.0594720  24.8116860  66.9327060  46.5883360
  25.8108150  55.3781240  48.9041950  26.4007840  55.0697090  49.5919770
  24.9928390  54.9060990  49.0601850  30.6301580  54.9947050  49.1374970
  29.9417100  54.3328590  49.0724960  31.3507600  54.5485320  49.5823430
  27.4145110  68.6447930  47.6372670  27.3403810  69.5483070  47.9445040
  26.5123950  68.3259830  47.6094740  27.9630440  67.8106440  35.2599030
  28.8581230  68.1491410  35.2817790  27.9948070  67.0885850  34.6323310
  21.6026600  63.1833490  33.4886030  22.0401470  63.7263160  34.1443610
  22.0874330  62.3580440  33.4982370  18.8172400  65.9722520  40.9406290
  19.1475410  65.1043580  40.7084930  19.2463400  66.1781040  41.7711250
  23.4134320  64.3031530  38.6008260  23.1129860  64.1796500  39.5012170
  23.3071810  63.4440120  38.1923990  19.3062610  66.8393110  43.6787920
  18.8693600  67.0193910  44.5112070  19.8740290  67.5967730  43.5369640
  34.9424790  66.3410110  47.9665230  34.3426780  66.4002670  47.2229150
  35.0718690  65.4015090  48.0962080  19.1387040  59.3513340  40.0376800
  18.4835880  59.0824980  39.3936500  19.9764990  59.2417820  39.5878780
  36.6442670  61.6825510  40.6511070  37.0151500  60.8992830  40.2447040
  37.2844600  62.3714610  40.4728370  33.6276430  63.0662090  46.0641390
  32.8136270  63.4959250  46.3267180  34.0350630  63.6780500  45.4510440
  20.1762970  59.7365910  44.5780140  20.5436010  59.6493310  45.4576160
  19.6073790  58.9732460  44.4787000  34.9766830  58.2050290  47.5910610
  34.7452920  57.9763040  46.6908560  35.2371380  59.1249840  47.5455500
  19.7278970  56.6475000  48.4838560  18.8335020  56.6141760  48.8232270
  20.2676520  56.8461790  49.2489810  33.4154900  53.4306720  50.3690310
  34.2925080  53.4390120  50.7524310  33.4275740  52.6937560  49.7582660
  18.3525120  56.5612270  35.9802130  17.4489200  56.8242470  35.8053790
  18.8365740  56.8323440  35.2002090  34.8618170  57.2836260  41.2578330
  35.3855650  56.7898910  40.6268500  35.4477590  57.4186620  42.0025900
  35.0407890  57.3676130  44.7797880  34.0910600  57.3339670  44.8942870
  35.2220900  58.2776240  44.5447650  20.5426490  51.6717140  32.9299160
  21.2654620  52.2126080  33.2480380  20.8151010  51.3980560  32.0540700
  20.2318680  50.9223330  42.8321780  20.8794870  50.3720710  42.3916940
  20.6520520  51.1766480  43.6537590  35.7805300  55.1770560  39.7308420
  35.6704580  55.0226600  40.6690690  36.5412890  54.6491500  39.4883830
  34.1271020  51.1164690  46.1891420  34.7643240  51.7298830  46.5550610
  34.2745910  51.1525350  45.2440650  33.6852480  67.8180690  39.5909660
  34.2811550  67.4965260  38.9144080  33.9430630  67.3452510  40.3822930
  19.9850680  51.0779000  45.5747100  19.6365500  51.5342820  46.3405280
  19.6538380  50.1836130  45.6569530  21.5915050  64.2498600  49.7400290
  21.5484680  63.8791510  50.6214750  21.7226060  65.1876170  49.8802110
  25.2921080  65.8058190  45.3410010  25.0512440  66.0732750  44.4540530
  26.2323720  65.9763920  45.3960870  27.4975500  52.2690880  49.0966520
  27.4364390  52.8612710  49.8461930  28.4375880  52.1616840  48.9516780
  30.1350060  51.9260940  48.7358810  30.7490470  52.2440230  48.0739890
  30.6799620  51.4409530  49.3554670  36.5525240  67.8252570  46.1420650
  36.0583520  68.2221440  45.4247780  35.9438530  67.2001780  46.5357930
  20.6571320  50.6055200  48.8497870  21.2054310  50.4243250  48.0863980
  20.7226630  49.8149310  49.3854180  21.4303080  67.1960850  46.8598070
  20.8363400  67.0645550  47.5988110  21.4226920  66.3598990  46.3940170
  30.8758100  50.4893080  45.0628100  30.0017940  50.8228190  44.8601030
  30.7668850  50.0166260  45.8879970  31.7830080  52.6963950  46.4469820
  31.4543440  51.8815710  46.0671550  32.7312380  52.6533760  46.3235510
  34.2364690  68.4675990  43.4207390  33.7767660  69.2191800  43.0465410
  33.6077150  67.7482460  43.3622190  21.0615310  64.5619230  45.8106110
  20.3349370  63.9424520  45.7432060  21.1224460  64.9559840  44.9404190
  24.6660410  66.7764230  42.5955520  25.1825430  66.1651590  42.0703780
  25.3157790  67.2793010  43.0866530  27.4055910  67.6672720  43.4224500
  27.6933720  67.4127020  42.5457510  27.9179130  67.1150080  44.0130070
  28.6232920  51.4062920  44.0021010  27.8404710  51.8808420  44.2817770
  28.3295850  50.5017750  43.8934190  33.1753990  52.1086020  42.0470100
  33.6162080  52.0531120  41.1991700  32.9061580  53.0244030  42.1180280
  35.0392560  51.7401260  40.0578920  34.9780960  50.7962480  39.9109940
  35.8184590  51.8481350  40.6032380  19.3445310  67.8793620  39.0202870
  19.1767350  67.2464300  39.7184760  18.4779820  68.0853020  38.6697060
  19.9673330  51.7110400  36.5234730  20.7252690  51.8239280  35.9498760
  19.5050500  52.5479600  36.4778160  20.9508010  66.5726850  36.4653010
  20.4255630  66.9534880  35.7614970  20.8752590  67.1977620  37.1862720
  27.4728270  68.5888820  50.7892700  28.3995580  68.3533090  50.8328660
  27.4578700  69.4160820  50.3078730  24.6591880  51.2533570  50.5534580
  24.3776150  51.7567170  49.7895400  25.0411580  50.4555320  50.1876710
  23.5500980  68.5209230  35.3402260  24.2819800  68.2368510  34.7926150
  23.8094650  68.2822510  36.2301640  22.7115770  64.6373960  35.3448590
  22.0824650  65.1059060  35.8934420  22.8263600  63.7923180  35.7794780
  31.2607340  50.6687150  51.1315050  31.1472790  50.9881760  52.0266570
  32.0777080  51.0699660  50.8352330  34.0405830  67.8158680  50.6133740
  34.8331150  67.3207910  50.4059700  34.3338980  68.4948820  51.2209350
  30.1665490  58.6879620  21.4949790  30.0859540  57.7734230  21.2241500
  29.7529910  59.1846690  20.7889500  28.2983530  60.4658640  23.3759060
  27.5225630  59.9859080  23.6657630  28.9496460  59.7864290  23.2015220
  32.3190960  64.8718830  22.1558190  31.8572490  64.1006070  22.4845360
  33.1316510  64.8984900  22.6610640  22.2950620  64.8118540  24.4492840
  22.5978660  63.9216280  24.2703060  23.0394210  65.3688760  24.2215090
  20.7241310  55.7380340  18.0377210  19.8358010  56.0796310  17.9357090
  21.0082500  55.5380660  17.1458040  18.6874320  58.3385990  23.9216910
  19.2590430  57.5708190  23.9220550  18.6875860  58.6374750  23.0123520
  28.5454270  67.1576840  21.7762180  27.9265710  67.6134340  21.2056620
  29.4006050  67.3128300  21.3751880  27.7392520  63.1415830  23.3829220
  27.6700800  62.2005770  23.2218350  28.5012380  63.2317240  23.9551790
  19.9299190  53.7470350  25.7085840  19.7502030  52.8496100  25.9888600
  19.5279270  54.2942220  26.3832790  22.9002700  54.3211840  19.0715590
  23.0069450  55.2215570  19.3784350  21.9895060  54.2729810  18.7810240
  32.5521810  53.4436650  20.5426490  33.3731430  52.9533220  20.5851970
  32.5855890  54.0334310  21.2958330  29.4117620  62.0416080  19.1694090
  28.7934890  62.5065530  18.6056810  29.9240870  62.7343560  19.5863600
  23.4868480  63.5372750  27.6626870  24.1042480  64.2123830  27.3811320
  22.6261600  63.9460730  27.5714370  18.7800820  62.7272610  16.5433720
  18.4028800  63.2159710  15.8118620  19.0373890  63.3997890  17.1740250
  26.3889750  51.1289000  22.0019230  26.6964730  50.5735890  21.2854730
  25.4590450  51.2633460  21.8192220  31.9404810  66.8456290  24.2926690
  31.9531970  66.4418580  23.4248950  31.3880030  67.6203580  24.1888120
  33.2350230  63.5672510  19.3816860  33.1246560  62.6246840  19.5066280
  33.2318480  63.9288150  20.2679620  28.7770510  59.1937830  18.7379350
  27.8499790  59.1275210  18.9667820  28.9295330  60.1317960  18.6234590
  28.7639590  55.4654830  15.7346510  27.8243260  55.6268790  15.8198970
  29.0822850  56.1840510  15.1882500  32.8067800  60.7558130  19.2414600
  32.1880220  60.4177680  18.5940900  32.7892250  60.1117890  19.9493790
  24.3827150  59.7202570  21.5199080  23.9784150  59.0079820  21.0244980
  24.4690270  59.3755810  22.4087120  24.8508850  63.4070130  23.6838290
  24.5537140  62.8015600  23.0046070  25.8008670  63.4447440  23.5727650
  23.9427280  63.1451820  30.3346090  23.0455810  63.3691790  30.5819490
  23.9680150  63.2686760  29.3857490  30.9832500  59.9944940  16.2487350
  31.4225780  59.1567370  16.1025170  31.6960920  60.6274340  16.3351490
  29.0927880  64.9341010  20.2168590  29.5323790  65.6765340  19.8023980
  29.0314770  65.1767580  21.1407550  24.5678850  65.9586840  31.1188610
  24.5394280  66.3629790  30.2517040  24.4043820  65.0297200  30.9560210
  34.5649640  51.2487750  14.5628390  34.2522300  51.3414580  15.4627460
  35.3262110  51.8268780  14.5125820  21.0831780  58.6147550  19.0205730
  20.9629380  59.3409640  18.4087000  20.7732670  57.8450460  18.5433640
  18.7217150  61.7862690  24.8274370  18.7997570  61.9211460  23.8830090
  19.3358830  61.0778580  25.0202490  19.9664780  63.4862880  21.2380550
  19.5592860  63.6277470  20.3834150  20.8577790  63.2023040  21.0351760
  29.7843660  67.6354790  28.1447600  30.2988330  67.5462800  28.9470030
  28.9412740  67.9814490  28.4375510  31.7598060  67.9210130  17.5731600
  31.5999200  67.6313070  18.4713430  31.5944770  67.1450260  17.0376830
  24.2386440  67.7008660  19.3503220  24.0628920  66.7844200  19.1371020
  23.3842180  68.0595950  19.5901020  31.4624190  65.4297690  16.1329600
  30.7689350  65.4274980  15.4731880  32.2047050  65.0057010  15.7023770
  31.0274120  67.0560400  20.2078090  31.4831070  66.2749780  20.5216710
  31.3666640  67.7667220  20.7519270  18.7776670  62.8276860  27.3668830
  18.9407710  62.3582220  26.5488200  19.2429120  62.3200420  28.0317670
  23.5495440  51.9582620  22.4029400  23.1063590  52.7392160  22.0713920
  24.1080430  52.2812510  23.1100340  26.6654260  51.5793320  17.2835230
  26.0408440  51.5753190  18.0088540  26.5784380  50.7124280  16.8871200
  23.3409660  57.0816190  20.1310650  23.1150580  56.8653360  21.0357270
  22.5602190  57.5144650  19.7856620  30.5707420  57.0879560  18.7301300
  29.9716310  57.8115360  18.5464920  31.1187030  57.0256340  17.9477750
  29.1772290  55.7243100  20.7604580  29.5701860  56.0415300  19.9473270
  29.5389140  54.8454980  20.8749100  18.2136460  52.3143900  22.9834780
  17.9249510  52.8846760  23.6959760  18.9582220  51.8348350  23.3466010
  18.4006690  56.2564020  14.1937500  18.3181360  57.1994780  14.3352490
  18.0489750  56.1138930  13.3149850  22.0507200  54.8729540  22.2202060
  21.7107250  55.3504770  22.9769110  21.2884520  54.4194660  21.8603160
  26.2624970  55.9915130  16.2514610  26.3837790  55.9501610  17.2000430
  25.8773480  56.8539280  16.0961340  25.2746470  58.3016270  15.6497910
  24.7063370  57.8534520  15.0233820  25.9835470  58.6609050  15.1163060
  20.3515650  62.2028290  29.5264640  19.9670440  61.5621960  30.1247600
  20.6627840  62.9064410  30.0959370  19.3653280  53.7948520  21.1366730
  19.0800200  53.4304190  21.9745350  19.3032140  53.0628980  20.5229870
  22.8193950  62.2974460  17.9224320  22.0456210  61.7572080  17.7623040
  23.5488580  61.7781070  17.5842080  29.0391870  52.6877780  17.8580100
  28.2256480  52.1890950  17.7825410  28.8453820  53.5276030  17.4416450
  31.7540260  57.0597430  16.1542260  32.6419880  57.3714660  15.9793600
  31.7245350  56.1869680  15.7622840  22.8631350  61.9654840  21.5603130
  23.3810020  61.1623100  21.5060020  22.4115370  61.9033980  22.4019960
  27.7500850  63.2321120  16.8330430  28.0916550  63.9763350  16.3373750
  26.9213560  63.5452240  17.1955260  20.3475890  58.9316210  28.4728830
  19.9890830  59.5970060  29.0602170  20.0530450  58.0999760  28.8441450
  28.8917460  64.1869450  29.3523510  28.9062000  63.2550410  29.1342420
  28.1842560  64.2729210  29.9913280  34.0254530  58.3709270  15.6222120
  33.9418250  58.8023490  14.7718560  34.7448720  58.8307620  16.0548940
  35.0541780  65.2251530  18.3504250  34.4117940  64.5707150  18.6247970
  34.6672440  65.6306620  17.5744920  30.6328260  62.5536960  22.1975940
  30.9852080  61.9565090  21.5377310  29.7490590  62.2281190  22.3684190
  26.7191540  63.3134650  19.6046350  27.4062670  63.8603860  19.9853940
  25.9323960  63.8575380  19.6395960  18.8583940  58.9307470  15.0963430
  19.7278790  59.2132270  15.3799350  18.3674260  59.7443340  14.9812240
  26.0218750  60.3180680  19.2171710  26.4781530  61.1285930  19.4431900
  25.6706960  60.0003820  20.0490200  28.3251360  65.8287020  26.4464010
  28.9693580  66.0346400  27.1237430  28.6880800  65.0675420  25.9934860
  21.9230530  50.6618330  19.6894230  21.7945160  50.6536230  20.6379150
  21.0992550  51.0001420  19.3385240  29.5983440  63.8319370  25.1641460
  30.2405670  63.1312530  25.2773630  30.1232790  64.6117810  24.9838350
  33.4439160  64.1167990  14.8880600  33.2176740  63.3998430  15.4805240
  33.0535360  63.8680430  14.0502350  31.3721060  64.6314270  28.3677520
  31.7077300  65.2180960  29.0455440  30.4521400  64.5006980  28.5975310
  19.2255190  68.1434850  15.6625060  19.5852830  68.7424190  15.0082330
  19.0847530  68.6894740  16.4360090  18.9224460  52.4209450  29.1500930
  18.2082980  52.6206370  29.7553540  19.3419500  51.6449020  29.5215730
  33.0255410  62.0339930  16.5494760  32.7377110  62.4952620  17.3372640
  33.8207580  61.5737700  16.8178980  19.2097050  66.4089710  30.1367460
  19.3188170  65.4684450  29.9962850  18.5577610  66.6744460  29.4881190
  27.2009640  64.6805600  31.5365580  26.8806510  63.9614840  32.0811270
  26.5268000  65.3560670  31.6101640  25.2423810  65.5266050  16.4798730
  25.2333910  66.2595740  15.8643240  24.3222170  65.2797630  16.5725690
  20.8430450  60.7480940  17.2245490  20.2358400  61.4879840  17.2340790
  21.3179800  60.8380300  16.3983690  33.7825270  53.8688700  17.7089940
  33.1538430  53.9734370  16.9948170  33.2877190  54.0885480  18.4983820
  28.2283410  65.5894290  15.1423920  28.3295390  65.3858280  14.2125900
  27.3285150  65.3352570  15.3471700  25.7509300  56.1474650  19.1247820
  25.0425450  56.6160990  19.5661430  26.0353780  55.4896660  19.7593010
  29.7824730  52.8725310  20.5643610  29.6592510  52.8911440  19.6153120
  30.7309290  52.9204250  20.6842010  26.8701520  68.1080610  19.8371590
  27.1243020  68.0702000  18.9150960  25.9214000  67.9813940  19.8299840
  23.9544320  54.4559730  16.4998530  24.8034850  54.8929880  16.4338720
  23.5875590  54.7679990  17.3270590  32.8754100  59.0272490  21.4130100
  31.9344240  59.0422720  21.5877790  33.1898170  58.2408450  21.8590400
  22.8535740  60.7092090  14.9734060  23.6199010  60.5973450  15.5359490
  22.9310430  60.0130060  14.3210830  21.5482500  58.1417160  15.6566950
  21.6286090  57.1944670  15.7684350  22.4402250  58.4724040  15.7627610
  22.3497210  68.2912550  22.7601490  23.0859690  67.7428010  23.0310060
  22.7338130  69.1568560  22.6207480  19.2342690  64.3586120  18.6343000
  18.3082470  64.6007260  18.6248410  19.6999120  65.1860380  18.5127750
  21.3555490  67.4758620  31.9487070  22.1568220  67.7970670  32.3622470
  20.8407310  67.1154200  32.6706980  25.4599520  67.4642860  14.5827060
  26.2528130  67.7531690  14.1308850  24.9403870  67.0335030  13.9039540
  31.6220490  67.3118780  30.5071890  32.5742240  67.2276800  30.4572130
  31.4748710  67.9760490  31.1805680  34.5129690  66.6912990  16.0063800
  34.2271200  66.2778130  15.1917980  34.3149240  67.6200700  15.8864320
  19.0753300  59.9632080  30.8923120  19.5792320  59.3839360  31.4639350
  18.3360720  60.2472310  31.4299490  25.9776920  62.6846270  14.4469410
  25.8727560  62.0698620  15.1730790  25.8101140  62.1612160  13.6632420
  29.2179650  61.7466300  15.0511400  28.6689750  62.1935600  15.6954140
  29.8398910  61.2415550  15.5749070  21.1076380  58.1061670  31.7873190
  21.1481720  57.8075540  32.6958420  21.9621880  58.5069280  31.6280710
  24.8854770  60.7057220  16.9476700  25.3071190  60.5397090  17.7908090
  25.0105610  59.8957450  16.4531840  27.3982410  59.7294830  14.1953800
  27.9188070  59.0143850  13.8294950  28.0450810  60.3680700  14.4954310
  23.7813670  56.7790450  13.8934860  23.5802730  55.9157810  14.2548200
  23.6105720  56.6923810  12.9556460  24.5582900  67.4096720  28.6042530
  24.0203990  68.1342780  28.2851230  24.8116860  66.9327060  27.8139870
  31.2601980  51.5898680  16.4221740  31.5404270  50.7466580  16.7781160
  30.4867710  51.8221790  16.9360490  22.5796470  53.8791070  13.8812740
  22.8822370  53.8858500  12.9731890  23.3191060  53.5288930  14.3780400
  27.4145110  68.6447930  28.8629180  27.3403810  69.5483070  29.1701550
  26.5123950  68.3259830  28.8351250  25.7981400  52.8225690  14.8668940
  25.4503400  52.1449680  14.2871390  25.9994170  52.3615200  15.6812330
  27.9630440  67.8106440  16.4855540  28.8581230  68.1491410  16.5074300
  27.9948070  67.0885850  15.8579820  21.6026600  63.1833490  14.7142540
  22.0401470  63.7263160  15.3700120  22.0874330  62.3580440  14.7238880
  18.8172400  65.9722520  22.1662800  19.1475410  65.1043580  21.9341440
  19.2463400  66.1781040  22.9967760  23.4134320  64.3031530  19.8264770
  23.1129860  64.1796500  20.7268680  23.3071810  63.4440120  19.4180500
  19.3062610  66.8393110  24.9044430  18.8693600  67.0193910  25.7368580
  19.8740290  67.5967730  24.7626150  36.1826240  64.0827930  14.5291450
  35.3519200  64.1504580  14.9998680  36.3598070  64.9732050  14.2258310
  35.6382700  60.8275410  17.0325650  36.4001610  61.3972060  17.1385340
  35.6537070  60.2602610  17.8033960  19.1387040  59.3513340  21.2633310
  18.4835880  59.0824980  20.6193010  19.9764990  59.2417820  20.8135290
  36.6442670  61.6825510  21.8767580  37.0151500  60.8992830  21.4703550
  37.2844600  62.3714610  21.6984880  35.6901870  61.1209780  14.1898170
  35.9650710  62.0288660  14.0617390  35.5012610  61.0572310  15.1260160
  32.0877480  54.1454630  15.4851800  32.5062360  53.9585610  14.6448460
  31.7813540  53.2933680  15.7954730  35.5867210  59.0578770  19.1827600
  35.2110810  58.2906700  18.7508890  34.8570330  59.4401470  19.6702530
  20.1762970  59.7365910  25.8036650  20.5436010  59.6493310  26.6832670
  19.6073790  58.9732460  25.7043510  19.7278970  56.6475000  29.7095070
  18.8335020  56.6141760  30.0488780  20.2676520  56.8461790  30.4746320
  18.3525120  56.5612270  17.2058640  17.4489200  56.8242470  17.0310300
  18.8365740  56.8323440  16.4258600  20.8952330  55.6177810  15.1153020
  21.6044030  55.1961030  14.6300300  20.1792270  55.6853040  14.4836370
  20.5426490  51.6717140  14.1555670  21.2654620  52.2126080  14.4736890
  20.8151010  51.3980560  13.2797210  34.3518140  56.5409610  18.4227250
  34.8477260  56.3080480  19.2076130  34.1534210  55.7021450  18.0064890
  20.2318680  50.9223330  24.0578290  20.8794870  50.3720710  23.6173450
  20.6520520  51.1766480  24.8794100  35.7805300  55.1770560  20.9564930
  35.6704580  55.0226600  21.8947200  36.5412890  54.6491500  20.7140340
  36.6695570  53.0078480  14.1971070  37.5944880  52.8759660  13.9889360
  36.6471360  53.0871300  15.1507520  36.7434060  53.7789140  16.8227780
  35.9485560  53.7134260  17.3520690  36.9477340  54.7139780  16.8113130
  33.6852480  67.8180690  20.8166170  34.2811550  67.4965260  20.1400590
  33.9430630  67.3452510  21.6079440  19.9850680  51.0779000  26.8003610
  19.6365500  51.5342820  27.5661790  19.6538380  50.1836130  26.8826040
  21.5915050  64.2498600  30.9656800  21.5484680  63.8791510  31.8471260
  21.7226060  65.1876170  31.1058620  25.2921080  65.8058190  26.5666520
  25.0512440  66.0732750  25.6797040  26.2323720  65.9763920  26.6217380
  20.6571320  50.6055200  30.0754380  21.2054310  50.4243250  29.3120490
  20.7226630  49.8149310  30.6110690  21.4303080  67.1960850  28.0854580
  20.8363400  67.0645550  28.8244620  21.4226920  66.3598990  27.6196680
  21.0615310  64.5619230  27.0362620  20.3349370  63.9424520  26.9688570
  21.1224460  64.9559840  26.1660700  24.6660410  66.7764230  23.8212030
  25.1825430  66.1651590  23.2960290  25.3157790  67.2793010  24.3123040
  27.4055910  67.6672720  24.6481010  27.6933720  67.4127020  23.7714020
  27.9179130  67.1150080  25.2386580  35.0392560  51.7401260  21.2835430
  34.9780960  50.7962480  21.1366450  35.8184590  51.8481350  21.8288890
  19.3445310  67.8793620  20.2459380  19.1767350  67.2464300  20.9441270
  18.4779820  68.0853020  19.8953570  19.9673330  51.7110400  17.7491240
  20.7252690  51.8239280  17.1755270  19.5050500  52.5479600  17.7034670
  26.5087140  53.8249670  20.7393550  25.6961650  53.4506560  20.3989430
  27.0128780  53.0694750  21.0414740  31.0112120  50.4892120  21.9776620
  31.6141490  51.0612330  22.4525140  30.2705110  51.0531560  21.7550520
  34.1546720  50.8913680  17.2516900  34.3497350  51.7897130  17.5184330
  33.3676590  50.6600760  17.7449850  20.9508010  66.5726850  17.6909520
  20.4255630  66.9534880  16.9871480  20.8752590  67.1977620  18.4119230
  22.3398480  52.2374450  16.2893210  22.8691240  51.4504250  16.1601160
  22.9726800  52.9165640  16.5228740  24.5336320  51.9749590  19.3438600
  23.9039060  51.2736900  19.5108730  23.9941460  52.7353720  19.1271760
  27.4728270  68.5888820  32.0149210  28.3995580  68.3533090  32.0585170
  27.4578700  69.4160820  31.5335240  35.7073330  68.1314390  19.0123460
  35.8825520  67.4452130  18.3684380  35.0094900  68.6561440  18.6200130
  23.5500980  68.5209230  16.5658770  24.2819800  68.2368510  16.0182660
  23.8094650  68.2822510  17.4558150  22.7115770  64.6373960  16.5705100
  22.0824650  65.1059060  17.1190930  22.8263600  63.7923180  17.0051290
  30.1665490  58.6879620   2.7206300  30.0859540  57.7734230   2.4498010
  29.7529910  59.1846690   2.0146010  28.2983530  60.4658640   4.6015570
  27.5225630  59.9859080   4.8914140  28.9496460  59.7864290   4.4271730
  22.3149360  60.7778450   5.4791330  21.4834240  60.5227160   5.8787840
  22.9230340  60.8489220   6.2149250  32.3190960  64.8718830   3.3814700
  31.8572490  64.1006070   3.7101870  33.1316510  64.8984900   3.8867150
  22.2950620  64.8118540   5.6749350  22.5978660  63.9216280   5.4959570
  23.0394210  65.3688760   5.4471600  18.6874320  58.3385990   5.1473420
  19.2590430  57.5708190   5.1477060  18.6875860  58.6374750   4.2380030
  28.5454270  67.1576840   3.0018690  27.9265710  67.6134340   2.4313130
  29.4006050  67.3128300   2.6008390  27.7392520  63.1415830   4.6085730
  27.6700800  62.2005770   4.4474860  28.5012380  63.2317240   5.1808300
  19.9299190  53.7470350   6.9342350  19.7502030  52.8496100   7.2145110
  19.5279270  54.2942220   7.6089300  28.7697690  55.9486210   4.8354660
  29.1462510  55.0758090   4.7228330  28.6717200  56.2844910   3.9445100
  32.5521810  53.4436650   1.7683000  33.3731430  52.9533220   1.8108480
  32.5855890  54.0334310   2.5214840  20.5485860  56.2430850   5.5424690
  21.2295970  56.5069220   6.1612090  20.2333910  55.4031720   5.8762700
  24.7410430  57.2898210   4.6297280  25.2488650  57.7879180   5.2702300
  25.2723670  56.5133410   4.4536640  36.8421360  55.4603400   8.3326630
  36.1373530  55.8485110   7.8141740  37.1079280  56.1553690   8.9347560
  23.0246530  51.9296770   8.8960700  23.0264970  52.4469160   8.0906600
  22.1950840  51.4526950   8.8730630  24.2749380  61.5691950   7.0734200
  23.9418760  62.1960870   7.7155270  24.4516060  62.0953830   6.2935870
  32.7883290  55.3837030   4.5410540  32.0838860  55.6721920   5.1213650
  33.1495450  56.1937140   4.1810100  22.7061860  53.6406730   6.9031150
  23.0478670  54.4848780   6.6085020  21.7677670  53.7890470   7.0196490
  23.4868480  63.5372750   8.8883380  24.1042480  64.2123830   8.6067830
  22.6261600  63.9460730   8.7970880  34.4046070  65.0012160   6.8038020
  33.7209590  65.6711270   6.7954690  34.9440360  65.1992810   6.0382880
  35.8570210  54.8291820   4.9319750  34.9095120  54.8630800   5.0635180
  36.1820200  55.6430770   5.3169110  26.3889750  51.1289000   3.2275740
  26.6964730  50.5735890   2.5111240  25.4590450  51.2633460   3.0448730
  31.9404810  66.8456290   5.5183200  31.9531970  66.4418580   4.6505460
  31.3880030  67.6203580   5.4144630  31.3390250  61.7486130   6.8465810
  31.7559040  61.5346240   6.0119270  32.0630070  62.0058920   7.4174430
  35.2852350  60.1473350   6.9382050  34.4570980  60.2166440   6.4632180
  35.8802830  60.7327660   6.4697880  32.2494360  56.9342670   7.8836920
  31.8365540  57.7596380   8.1376910  31.5170310  56.3487710   7.6913280
  24.3827150  59.7202570   2.7455590  23.9784150  59.0079820   2.2501490
  24.4690270  59.3755810   3.6343630  24.8508850  63.4070130   4.9094800
  24.5537140  62.8015600   4.2302580  25.8008670  63.4447440   4.7984160
  23.0955770  56.4945780   6.5254630  23.6470360  56.6041120   5.7507880
  23.6099280  56.8683380   7.2409860  32.9394460  66.9802000   8.5717900
  32.4625020  67.7874190   8.3790510  32.2556250  66.3280330   8.7244110
  23.9427280  63.1451820  11.5602600  23.0455810  63.3691790  11.8076000
  23.9680150  63.2686760  10.6114000  22.7698500  60.0165140  10.1359970
  22.6306270  60.8887940  10.5047370  21.8879860  59.6737950   9.9907910
  24.5678850  65.9586840  12.3445120  24.5394280  66.3629790  11.4773550
  24.4043820  65.0297200  12.1816720  36.5193670  66.7413940  13.6409290
  36.9953390  67.2196830  14.3198370  37.1400830  66.6731430  12.9154790
  18.7217150  61.7862690   6.0530880  18.7997570  61.9211460   5.1086600
  19.3358830  61.0778580   6.2459000  19.9664780  63.4862880   2.4637060
  19.5592860  63.6277470   1.6090660  20.8577790  63.2023040   2.2608270
  35.9226920  63.9326790  10.8009300  36.0489980  63.6938670   9.8826480
  35.9648300  63.1011330  11.2731380  29.7843660  67.6354790   9.3704110
  30.2988330  67.5462800  10.1726540  28.9412740  67.9814490   9.6632020
  35.7750930  55.9859250  11.7659040  35.1595200  56.4938920  11.2374500
  35.4547350  55.0857580  11.7084980  18.7776670  62.8276860   8.5925340
  18.9407710  62.3582220   7.7744710  19.2429120  62.3200420   9.2574180
  23.5495440  51.9582620   3.6285910  23.1063590  52.7392160   3.2970430
  24.1080430  52.2812510   4.3356850  27.8365250  54.8251140   9.2321230
  27.3744620  55.0334160  10.0441170  27.4343360  54.0110490   8.9291900
  32.8369760  56.0460090  10.3617890  31.9863350  55.7465840  10.6826960
  32.6771550  56.2902100   9.4501710  29.9319470  57.5461840  12.4616680
  30.2572880  56.7125590  12.1218910  30.7199800  58.0690360  12.6095010
  25.5871340  52.5029950   5.4875510  25.8843670  53.4092780   5.4067530
  26.1356900  52.0148730   4.8735080  25.7808870  57.9801770  12.0227430
  25.6852470  57.0396500  11.8727830  26.6240850  58.2016840  11.6275500
  20.9119410  54.3915440  10.1761210  20.5182800  55.2390650  10.3833990
  20.2237810  53.7541810  10.3669850  27.4864460  54.4750410  13.2457950
  26.7962780  54.2822610  13.8804040  28.2296760  54.7585050  13.7782250
  18.2136460  52.3143900   4.2091290  17.9249510  52.8846760   4.9216270
  18.9582220  51.8348350   4.5722520  29.7627430  58.3148850   6.0811870
  29.0308550  58.8235660   6.4301970  29.3651770  57.4978830   5.7800650
  26.2004820  54.9903050   4.4864360  26.2040880  54.5493000   3.6368900
  27.0955940  55.3120380   4.5936180  22.0507200  54.8729540   3.4458570
  21.7107250  55.3504770   4.2025620  21.2884520  54.4194660   3.0859670
  30.2253340  53.7682530   5.4934810  30.2426080  54.2191180   6.3376660
  29.9768920  52.8688170   5.7068250  33.6524090  51.1814710  11.3321190
  33.9769860  50.4504370  11.8579170  33.6880600  50.8628350  10.4302180
  20.3515650  62.2028290  10.7521150  19.9670440  61.5621960  11.3504110
  20.6627840  62.9064410  11.3215880  26.5012790  59.0504830   6.2329770
  26.8682920  58.5763400   6.9791110  26.3117850  59.9246400   6.5738110
  19.3653280  53.7948520   2.3623240  19.0800200  53.4304190   3.2001860
  19.3032140  53.0628980   1.7486380  24.2912160  58.0913470   8.5513980
  23.9869230  58.9705450   8.7764340  25.2458620  58.1513260   8.5871420
  33.5781930  61.2939820   4.9407220  34.2981050  61.7895110   4.5503330
  33.3763750  60.6157710   4.2961090  28.9600730  61.3648880  10.8276220
  28.8938040  60.4444550  10.5733810  28.3305870  61.4624320  11.5420860
  22.8631350  61.9654840   2.7859640  23.3810020  61.1623100   2.7316530
  22.4115370  61.9033980   3.6276470  20.3475890  58.9316210   9.6985340
  19.9890830  59.5970060  10.2858680  20.0530450  58.0999760  10.0697960
  23.5489010  59.3900450  12.5824890  23.2489150  59.5357630  11.6852710
  24.3200250  58.8305740  12.4898280  28.8917460  64.1869450  10.5780020
  28.9062000  63.2550410  10.3598930  28.1842560  64.2729210  11.2169790
  35.1028670  60.8276790   9.9248600  34.3776860  61.4205570   9.7277990
  35.6304130  60.8200330   9.1261970  30.6328260  62.5536960   3.4232450
  30.9852080  61.9565090   2.7633820  29.7490590  62.2281190   3.5940700
  28.3251360  65.8287020   7.6720520  28.9693580  66.0346400   8.3493940
  28.6880800  65.0675420   7.2191370  29.5983440  63.8319370   6.3897970
  30.2405670  63.1312530   6.5030140  30.1232790  64.6117810   6.2094860
  31.3721060  64.6314270   9.5934030  31.7077300  65.2180960  10.2711950
  30.4521400  64.5006980   9.8231820  18.9224460  52.4209450  10.3757440
  18.2082980  52.6206370  10.9810050  19.3419500  51.6449020  10.7472240
  19.2097050  66.4089710  11.3623970  19.3188170  65.4684450  11.2219360
  18.5577610  66.6744460  10.7137700  27.2009640  64.6805600  12.7622090
  26.8806510  63.9614840  13.3067780  26.5268000  65.3560670  12.8358150
  30.4163240  54.9131760   8.1258890  30.7844060  54.0926970   8.4538460
  29.5561440  54.9733650   8.5414540  27.3765230  57.5671350   8.3496860
  27.8750480  58.0417170   9.0148710  27.5188180  56.6434870   8.5566890
  34.5832090  53.7839310   9.1925250  34.0805690  54.5244710   9.5319060
  35.3988750  54.1723310   8.8762040  32.8754100  59.0272490   2.6386610
  31.9344240  59.0422720   2.8134300  33.1898170  58.2408450   3.0846910
  34.8779680  66.1981340   4.3140870  35.0027100  67.0212510   4.7864680
  35.7445240  65.9872070   3.9665020  22.3497210  68.2912550   3.9858000
  23.0859690  67.7428010   4.2566570  22.7338130  69.1568560   3.8463990
  21.3555490  67.4758620  13.1743580  22.1568220  67.7970670  13.5878980
  20.8407310  67.1154200  13.8963490  30.1920120  63.5838490  13.1218990
  29.5858280  63.6070090  12.3814740  29.8874230  62.8521530  13.6586240
  31.6220490  67.3118780  11.7328400  32.5742240  67.2276800  11.6828640
  31.4748710  67.9760490  12.4062190  19.0753300  59.9632080  12.1179630
  19.5792320  59.3839360  12.6895860  18.3360720  60.2472310  12.6556000
  26.1291240  61.3703070  11.6515150  25.3636910  61.9388070  11.5669820
  26.3107200  61.0779280  10.7583380  33.2714590  63.1008400  12.2090170
  34.0124060  63.4384160  11.7057630  32.5087270  63.2700460  11.6559940
  21.1076380  58.1061670  13.0129700  21.1481720  57.8075540  13.9214930
  21.9621880  58.5069280  12.8537220  23.0482190  56.6853770  10.9804190
  22.5178650  56.1944720  10.3527530  23.7170260  57.1137970  10.4462120
  31.9460250  61.1523230  10.7445380  32.3601270  61.3068310  11.5935800
  31.0111250  61.2778450  10.9071160  32.4182420  58.4919390  12.7484530
  33.0003190  57.7371710  12.6605010  32.5944190  59.0226830  11.9716010
  23.5354490  53.6516140  11.0601480  23.4411360  53.0336890  10.3352350
  22.9551880  54.3782430  10.8331390  26.3015930  52.2089380   8.0928870
  25.8533230  52.2313640   7.2474420  25.6681130  51.8108400   8.6899170
  26.7075480  61.1043710   8.7141310  27.1263590  61.9476440   8.5417550
  25.7884110  61.2415750   8.4848090  29.0439380  58.8359890  10.0979150
  29.1635590  58.2401030  10.8373990  29.9033380  58.8729580   9.6780450
  31.3827280  59.3897080   8.6741660  30.8562500  59.9139700   8.0706800
  31.7258620  60.0224470   9.3051390  24.5582900  67.4096720   9.8299040
  24.0203990  68.1342780   9.5107740  24.8116860  66.9327060   9.0396380
  25.8108150  55.3781240  11.3554970  26.4007840  55.0697090  12.0432790
  24.9928390  54.9060990  11.5114870  30.6301580  54.9947050  11.5887990
  29.9417100  54.3328590  11.5237980  31.3507600  54.5485320  12.0336450
  27.4145110  68.6447930  10.0885690  27.3403810  69.5483070  10.3958060
  26.5123950  68.3259830  10.0607760  18.8172400  65.9722520   3.3919310
  19.1475410  65.1043580   3.1597950  19.2463400  66.1781040   4.2224270
  19.3062610  66.8393110   6.1300940  18.8693600  67.0193910   6.9625090
  19.8740290  67.5967730   5.9882660  34.9424790  66.3410110  10.4178250
  34.3426780  66.4002670   9.6742170  35.0718690  65.4015090  10.5475100
  19.1387040  59.3513340   2.4889820  18.4835880  59.0824980   1.8449520
  19.9764990  59.2417820   2.0391800  36.6442670  61.6825510   3.1024090
  37.0151500  60.8992830   2.6960060  37.2844600  62.3714610   2.9241390
  33.6276430  63.0662090   8.5154410  32.8136270  63.4959250   8.7780200
  34.0350630  63.6780500   7.9023460  20.1762970  59.7365910   7.0293160
  20.5436010  59.6493310   7.9089180  19.6073790  58.9732460   6.9300020
  34.9766830  58.2050290  10.0423630  34.7452920  57.9763040   9.1421580
  35.2371380  59.1249840   9.9968520  19.7278970  56.6475000  10.9351580
  18.8335020  56.6141760  11.2745290  20.2676520  56.8461790  11.7002830
  33.4154900  53.4306720  12.8203330  34.2925080  53.4390120  13.2037330
  33.4275740  52.6937560  12.2095680  34.8618170  57.2836260   3.7091350
  35.3855650  56.7898910   3.0781520  35.4477590  57.4186620   4.4538920
  35.0407890  57.3676130   7.2310900  34.0910600  57.3339670   7.3455890
  35.2220900  58.2776240   6.9960670  20.2318680  50.9223330   5.2834800
  20.8794870  50.3720710   4.8429960  20.6520520  51.1766480   6.1050610
  35.7805300  55.1770560   2.1821440  35.6704580  55.0226600   3.1203710
  36.5412890  54.6491500   1.9396850  34.1271020  51.1164690   8.6404440
  34.7643240  51.7298830   9.0063630  34.2745910  51.1525350   7.6953670
  19.9850680  51.0779000   8.0260120  19.6365500  51.5342820   8.7918300
  19.6538380  50.1836130   8.1082550  21.5915050  64.2498600  12.1913310
  21.5484680  63.8791510  13.0727770  21.7226060  65.1876170  12.3315130
  25.2921080  65.8058190   7.7923030  25.0512440  66.0732750   6.9053550
  26.2323720  65.9763920   7.8473890  27.4975500  52.2690880  11.5479540
  27.4364390  52.8612710  12.2974950  28.4375880  52.1616840  11.4029800
  30.1350060  51.9260940  11.1871830  30.7490470  52.2440230  10.5252910
  30.6799620  51.4409530  11.8067690  36.5525240  67.8252570   8.5933670
  36.0583520  68.2221440   7.8760800  35.9438530  67.2001780   8.9870950
  20.6571320  50.6055200  11.3010890  21.2054310  50.4243250  10.5377000
  20.7226630  49.8149310  11.8367200  21.4303080  67.1960850   9.3111090
  20.8363400  67.0645550  10.0501130  21.4226920  66.3598990   8.8453190
  30.8758100  50.4893080   7.5141120  30.0017940  50.8228190   7.3114050
  30.7668850  50.0166260   8.3392990  31.7830080  52.6963950   8.8982840
  31.4543440  51.8815710   8.5184570  32.7312380  52.6533760   8.7748530
  34.2364690  68.4675990   5.8720410  33.7767660  69.2191800   5.4978430
  33.6077150  67.7482460   5.8135210  21.0615310  64.5619230   8.2619130
  20.3349370  63.9424520   8.1945080  21.1224460  64.9559840   7.3917210
  24.6660410  66.7764230   5.0468540  25.1825430  66.1651590   4.5216800
  25.3157790  67.2793010   5.5379550  27.4055910  67.6672720   5.8737520
  27.6933720  67.4127020   4.9970530  27.9179130  67.1150080   6.4643090
  28.6232920  51.4062920   6.4534030  27.8404710  51.8808420   6.7330790
  28.3295850  50.5017750   6.3447210  33.1753990  52.1086020   4.4983120
  33.6162080  52.0531120   3.6504720  32.9061580  53.0244030   4.5693300
  35.0392560  51.7401260   2.5091940  34.9780960  50.7962480   2.3622960
  35.8184590  51.8481350   3.0545400  26.5087140  53.8249670   1.9650060
  25.6961650  53.4506560   1.6245940  27.0128780  53.0694750   2.2671250
  31.0112120  50.4892120   3.2033130  31.6141490  51.0612330   3.6781650
  30.2705110  51.0531560   2.9807030  27.4728270  68.5888820  13.2405720
  28.3995580  68.3533090  13.2841680  27.4578700  69.4160820  12.7591750
  24.6591880  51.2533570  13.0047600  24.3776150  51.7567170  12.2408420
  25.0411580  50.4555320  12.6389730  31.2607340  50.6687150  13.5828070
  31.1472790  50.9881760  14.4779590  32.0777080  51.0699660  13.2865350
  34.0405830  67.8158680  13.0646760  34.8331150  67.3207910  12.8572720
  34.3338980  68.4948820  13.6722370  30.1665490  39.9136130  59.0436770
  30.0859540  38.9990740  58.7728480  29.7529910  40.4103200  58.3376480
  28.2983530  41.6915150  60.9246040  27.5225630  41.2115590  61.2144610
  28.9496460  41.0120800  60.7502200  22.3149360  42.0034960  61.8021800
  21.4834240  41.7483670  62.2018310  22.9230340  42.0745730  62.5379720
  32.3190960  46.0975340  59.7045170  31.8572490  45.3262580  60.0332340
  33.1316510  46.1241410  60.2097620  22.2950620  46.0375050  61.9979820
  22.5978660  45.1472790  61.8190040  23.0394210  46.5945270  61.7702070
  20.7241310  36.9636850  55.5864190  19.8358010  37.3052820  55.4844070
  21.0082500  36.7637170  54.6945020  18.6874320  39.5642500  61.4703890
  19.2590430  38.7964700  61.4707530  18.6875860  39.8631260  60.5610500
  28.5454270  48.3833350  59.3249160  27.9265710  48.8390850  58.7543600
  29.4006050  48.5384810  58.9238860  27.7392520  44.3672340  60.9316200
  27.6700800  43.4262280  60.7705330  28.5012380  44.4573750  61.5038770
  28.7697690  37.1742720  61.1585130  29.1462510  36.3014600  61.0458800
  28.6717200  37.5101420  60.2675570  22.9002700  35.5468350  56.6202570
  23.0069450  36.4472080  56.9271330  21.9895060  35.4986320  56.3297220
  32.5521810  34.6693160  58.0913470  33.3731430  34.1789730  58.1338950
  32.5855890  35.2590820  58.8445310  20.5485860  37.4687360  61.8655160
  21.2295970  37.7325730  62.4842560  20.2333910  36.6288230  62.1993170
  24.7410430  38.5154720  60.9527750  25.2488650  39.0135690  61.5932770
  25.2723670  37.7389920  60.7767110  29.4117620  43.2672590  56.7181070
  28.7934890  43.7322040  56.1543790  29.9240870  43.9600070  57.1350580
  32.7883290  36.6093540  60.8641010  32.0838860  36.8978430  61.4444120
  33.1495450  37.4193650  60.5040570  22.7061860  34.8663240  63.2261620
  23.0478670  35.7105290  62.9315490  21.7677670  35.0146980  63.3426960
  18.7800820  43.9529120  54.0920700  18.4028800  44.4416220  53.3605600
  19.0373890  44.6254400  54.7227230  34.4046070  46.2268670  63.1268490
  33.7209590  46.8967780  63.1185160  34.9440360  46.4249320  62.3613350
  35.8570210  36.0548330  61.2550220  34.9095120  36.0887310  61.3865650
  36.1820200  36.8687280  61.6399580  26.3889750  32.3545510  59.5506210
  26.6964730  31.7992400  58.8341710  25.4590450  32.4889970  59.3679200
  31.9404810  48.0712800  61.8413670  31.9531970  47.6675090  60.9735930
  31.3880030  48.8460090  61.7375100  33.2350230  44.7929020  56.9303840
  33.1246560  43.8503350  57.0553260  33.2318480  45.1544660  57.8166600
  28.7770510  40.4194340  56.2866330  27.8499790  40.3531720  56.5154800
  28.9295330  41.3574470  56.1721570  28.7639590  36.6911340  53.2833490
  27.8243260  36.8525300  53.3685950  29.0822850  37.4097020  52.7369480
  35.2852350  41.3729860  63.2612520  34.4570980  41.4422950  62.7862650
  35.8802830  41.9584170  62.7928350  32.8067800  41.9814640  56.7901580
  32.1880220  41.6434190  56.1427880  32.7892250  41.3374400  57.4980770
  24.3827150  40.9459080  59.0686060  23.9784150  40.2336330  58.5731960
  24.4690270  40.6012320  59.9574100  24.8508850  44.6326640  61.2325270
  24.5537140  44.0272110  60.5533050  25.8008670  44.6703950  61.1214630
  30.9832500  41.2201450  53.7974330  31.4225780  40.3823880  53.6512150
  31.6960920  41.8530850  53.8838470  29.0927880  46.1597520  57.7655570
  29.5323790  46.9021850  57.3510960  29.0314770  46.4024090  58.6894530
  34.5649640  32.4744260  52.1115370  34.2522300  32.5671090  53.0114440
  35.3262110  33.0525290  52.0612800  21.0831780  39.8404060  56.5692710
  20.9629380  40.5666150  55.9573980  20.7732670  39.0706970  56.0920620
  18.7217150  43.0119200  62.3761350  18.7997570  43.1467970  61.4317070
  19.3358830  42.3035090  62.5689470  19.9664780  44.7119390  58.7867530
  19.5592860  44.8533980  57.9321130  20.8577790  44.4279550  58.5838740
  31.7598060  49.1466640  55.1218580  31.5999200  48.8569580  56.0200410
  31.5944770  48.3706770  54.5863810  24.2386440  48.9265170  56.8990200
  24.0628920  48.0100710  56.6858000  23.3842180  49.2852460  57.1388000
  31.4624190  46.6554200  53.6816580  30.7689350  46.6531490  53.0218860
  32.2047050  46.2313520  53.2510750  31.0274120  48.2816910  57.7565070
  31.4831070  47.5006290  58.0703690  31.3666640  48.9923730  58.3006250
  23.5495440  33.1839130  59.9516380  23.1063590  33.9648670  59.6200900
  24.1080430  33.5069020  60.6587320  26.6654260  32.8049830  54.8322210
  26.0408440  32.8009700  55.5575520  26.5784380  31.9380790  54.4358180
  25.5871340  33.7286460  61.8105980  25.8843670  34.6349290  61.7298000
  26.1356900  33.2405240  61.1965550  23.3409660  38.3072700  57.6797630
  23.1150580  38.0909870  58.5844250  22.5602190  38.7401160  57.3343600
  30.5707420  38.3136070  56.2788280  29.9716310  39.0371870  56.0951900
  31.1187030  38.2512850  55.4964730  29.1772290  36.9499610  58.3091560
  29.5701860  37.2671810  57.4960250  29.5389140  36.0711490  58.4236080
  18.2136460  33.5400410  60.5321760  17.9249510  34.1103270  61.2446740
  18.9582220  33.0604860  60.8952990  18.4006690  37.4820530  51.7424480
  18.3181360  38.4251290  51.8839470  18.0489750  37.3395440  50.8636830
  29.7627430  39.5405360  62.4042340  29.0308550  40.0492170  62.7532440
  29.3651770  38.7235340  62.1031120  26.2004820  36.2159560  60.8094830
  26.2040880  35.7749510  59.9599370  27.0955940  36.5376890  60.9166650
  22.0507200  36.0986050  59.7689040  21.7107250  36.5761280  60.5256090
  21.2884520  35.6451170  59.4090140  26.2624970  37.2171640  53.8001590
  26.3837790  37.1758120  54.7487410  25.8773480  38.0795790  53.6448320
  30.2253340  34.9939040  61.8165280  30.2426080  35.4447690  62.6607130
  29.9768920  34.0944680  62.0298720  25.2746470  39.5272780  53.1984890
  24.7063370  39.0791030  52.5720800  25.9835470  39.8865560  52.6650040
  26.5012790  40.2761340  62.5560240  26.8682920  39.8019910  63.3021580
  26.3117850  41.1502910  62.8968580  19.3653280  35.0205030  58.6853710
  19.0800200  34.6560700  59.5232330  19.3032140  34.2885490  58.0716850
  22.8193950  43.5230970  55.4711300  22.0456210  42.9828590  55.3110020
  23.5488580  43.0037580  55.1329060  33.5781930  42.5196330  61.2637690
  34.2981050  43.0151620  60.8733800  33.3763750  41.8414220  60.6191560
  29.0391870  33.9134290  55.4067080  28.2256480  33.4147460  55.3312390
  28.8453820  34.7532540  54.9903430  31.7540260  38.2853940  53.7029240
  32.6419880  38.5971170  53.5280580  31.7245350  37.4126190  53.3109820
  22.8631350  43.1911350  59.1090110  23.3810020  42.3879610  59.0547000
  22.4115370  43.1290490  59.9506940  27.7500850  44.4577630  54.3817410
  28.0916550  45.2019860  53.8860730  26.9213560  44.7708750  54.7442240
  34.0254530  39.5965780  53.1709100  33.9418250  40.0280000  52.3205540
  34.7448720  40.0564130  53.6035920  35.0541780  46.4508040  55.8991230
  34.4117940  45.7963660  56.1734950  34.6672440  46.8563130  55.1231900
  30.6328260  43.7793470  59.7462920  30.9852080  43.1821600  59.0864290
  29.7490590  43.4537700  59.9171170  26.7191540  44.5391160  57.1533330
  27.4062670  45.0860370  57.5340920  25.9323960  45.0831890  57.1882940
  18.8583940  40.1563980  52.6450410  19.7278790  40.4388780  52.9286330
  18.3674260  40.9699850  52.5299220  26.0218750  41.5437190  56.7658690
  26.4781530  42.3542440  56.9918880  25.6706960  41.2260330  57.5977180
  21.9230530  31.8874840  57.2381210  21.7945160  31.8792740  58.1866130
  21.0992550  32.2257930  56.8872220  29.5983440  45.0575880  62.7128440
  30.2405670  44.3569040  62.8260610  30.1232790  45.8374320  62.5325330
  33.4439160  45.3424500  52.4367580  33.2176740  44.6254940  53.0292220
  33.0535360  45.0936940  51.5989330  19.2255190  49.3691360  53.2112040
  19.5852830  49.9680700  52.5569310  19.0847530  49.9151250  53.9847070
  33.0255410  43.2596440  54.0981740  32.7377110  43.7209130  54.8859620
  33.8207580  42.7994210  54.3665960  25.2423810  46.7522560  54.0285710
  25.2333910  47.4852250  53.4130220  24.3222170  46.5054140  54.1212670
  20.8430450  41.9737450  54.7732470  20.2358400  42.7136350  54.7827770
  21.3179800  42.0636810  53.9470670  33.7825270  35.0945210  55.2576920
  33.1538430  35.1990880  54.5435150  33.2877190  35.3141990  56.0470800
  28.2283410  46.8150800  52.6910900  28.3295390  46.6114790  51.7612880
  27.3285150  46.5609080  52.8958680  25.7509300  37.3731160  56.6734800
  25.0425450  37.8417500  57.1148410  26.0353780  36.7153170  57.3079990
  29.7824730  34.0981820  58.1130590  29.6592510  34.1167950  57.1640100
  30.7309290  34.1460760  58.2328990  26.8701520  49.3337120  57.3858570
  27.1243020  49.2958510  56.4637940  25.9214000  49.2070450  57.3786820
  23.9544320  35.6816240  54.0485510  24.8034850  36.1186390  53.9825700
  23.5875590  35.9936500  54.8757570  32.8754100  40.2529000  58.9617080
  31.9344240  40.2679230  59.1364770  33.1898170  39.4664960  59.4077380
  22.8535740  41.9348600  52.5221040  23.6199010  41.8229960  53.0846470
  22.9310430  41.2386570  51.8697810  21.5482500  39.3673670  53.2053930
  21.6286090  38.4201180  53.3171330  22.4402250  39.6980550  53.3114590
  34.8779680  47.4237850  60.6371340  35.0027100  48.2469020  61.1095150
  35.7445240  47.2128580  60.2895490  22.3497210  49.5169060  60.3088470
  23.0859690  48.9684520  60.5797040  22.7338130  50.3825070  60.1694460
  19.2342690  45.5842630  56.1829980  18.3082470  45.8263770  56.1735390
  19.6999120  46.4116890  56.0614730  25.4599520  48.6899370  52.1314040
  26.2528130  48.9788200  51.6795830  24.9403870  48.2591540  51.4526520
  34.5129690  47.9169500  53.5550780  34.2271200  47.5034640  52.7404960
  34.3149240  48.8457210  53.4351300  25.9776920  43.9102780  51.9956390
  25.8727560  43.2955130  52.7217770  25.8101140  43.3868670  51.2119400
  29.2179650  42.9722810  52.5998380  28.6689750  43.4192110  53.2441120
  29.8398910  42.4672060  53.1236050  24.8854770  41.9313730  54.4963680
  25.3071190  41.7653600  55.3395070  25.0105610  41.1213960  54.0018820
  27.3982410  40.9551340  51.7440780  27.9188070  40.2400360  51.3781930
  28.0450810  41.5937210  52.0441290  23.7813670  38.0046960  51.4421840
  23.5802730  37.1414320  51.8035180  23.6105720  37.9180320  50.5043440
  31.2601980  32.8155190  53.9708720  31.5404270  31.9723090  54.3268140
  30.4867710  33.0478300  54.4847470  22.5796470  35.1047580  51.4299720
  22.8822370  35.1115010  50.5218870  23.3191060  34.7545440  51.9267380
  25.7981400  34.0482200  52.4155920  25.4503400  33.3706190  51.8358370
  25.9994170  33.5871710  53.2299310  27.9630440  49.0362950  54.0342520
  28.8581230  49.3747920  54.0561280  27.9948070  48.3142360  53.4066800
  21.6026600  44.4090000  52.2629520  22.0401470  44.9519670  52.9187100
  22.0874330  43.5836950  52.2725860  18.8172400  47.1979030  59.7149780
  19.1475410  46.3300090  59.4828420  19.2463400  47.4037550  60.5454740
  23.4134320  45.5288040  57.3751750  23.1129860  45.4053010  58.2755660
  23.3071810  44.6696630  56.9667480  19.3062610  48.0649620  62.4531410
  18.8693600  48.2450420  63.2855560  19.8740290  48.8224240  62.3113130
  36.1826240  45.3084440  52.0778430  35.3519200  45.3761090  52.5485660
  36.3598070  46.1988560  51.7745290  35.6382700  42.0531920  54.5812630
  36.4001610  42.6228570  54.6872320  35.6537070  41.4859120  55.3520940
  19.1387040  40.5769850  58.8120290  18.4835880  40.3081490  58.1679990
  19.9764990  40.4674330  58.3622270  36.6442670  42.9082020  59.4254560
  37.0151500  42.1249340  59.0190530  37.2844600  43.5971120  59.2471860
  35.6901870  42.3466290  51.7385150  35.9650710  43.2545170  51.6104370
  35.5012610  42.2828820  52.6747140  32.0877480  35.3711140  53.0338780
  32.5062360  35.1842120  52.1935440  31.7813540  34.5190190  53.3441710
  35.5867210  40.2835280  56.7314580  35.2110810  39.5163210  56.2995870
  34.8570330  40.6657980  57.2189510  18.3525120  37.7868780  54.7545620
  17.4489200  38.0498980  54.5797280  18.8365740  38.0579950  53.9745580
  34.8618170  38.5092770  60.0321820  35.3855650  38.0155420  59.4011990
  35.4477590  38.6443130  60.7769390  20.8952330  36.8434320  52.6640000
  21.6044030  36.4217540  52.1787280  20.1792270  36.9109550  52.0323350
  20.5426490  32.8973650  51.7042650  21.2654620  33.4382590  52.0223870
  20.8151010  32.6237070  50.8284190  34.3518140  37.7666120  55.9714230
  34.8477260  37.5336990  56.7563110  34.1534210  36.9277960  55.5551870
  20.2318680  32.1479840  61.6065270  20.8794870  31.5977220  61.1660430
  20.6520520  32.4022990  62.4281080  35.7805300  36.4027070  58.5051910
  35.6704580  36.2483110  59.4434180  36.5412890  35.8748010  58.2627320
  36.6695570  34.2334990  51.7458050  37.5944880  34.1016170  51.5376340
  36.6471360  34.3127810  52.6994500  36.7434060  35.0045650  54.3714760
  35.9485560  34.9390770  54.9007670  36.9477340  35.9396290  54.3600110
  33.6852480  49.0437200  58.3653150  34.2811550  48.7221770  57.6887570
  33.9430630  48.5709020  59.1566420  34.2364690  49.6932500  62.1950880
  33.7767660  50.4448310  61.8208900  33.6077150  48.9738970  62.1365680
  24.6660410  48.0020740  61.3699010  25.1825430  47.3908100  60.8447270
  25.3157790  48.5049520  61.8610020  27.4055910  48.8929230  62.1967990
  27.6933720  48.6383530  61.3201000  27.9179130  48.3406590  62.7873560
  28.6232920  32.6319430  62.7764500  27.8404710  33.1064930  63.0561260
  28.3295850  31.7274260  62.6677680  33.1753990  33.3342530  60.8213590
  33.6162080  33.2787630  59.9735190  32.9061580  34.2500540  60.8923770
  35.0392560  32.9657770  58.8322410  34.9780960  32.0218990  58.6853430
  35.8184590  33.0737860  59.3775870  19.3445310  49.1050130  57.7946360
  19.1767350  48.4720810  58.4928250  18.4779820  49.3109530  57.4440550
  19.9673330  32.9366910  55.2978220  20.7252690  33.0495790  54.7242250
  19.5050500  33.7736110  55.2521650  26.5087140  35.0506180  58.2880530
  25.6961650  34.6763070  57.9476410  27.0128780  34.2951260  58.5901720
  31.0112120  31.7148630  59.5263600  31.6141490  32.2868840  60.0012120
  30.2705110  32.2788070  59.3037500  34.1546720  32.1170190  54.8003880
  34.3497350  33.0153640  55.0671310  33.3676590  31.8857270  55.2936830
  20.9508010  47.7983360  55.2396500  20.4255630  48.1791390  54.5358460
  20.8752590  48.4234130  55.9606210  22.3398480  33.4630960  53.8380190
  22.8691240  32.6760760  53.7088140  22.9726800  34.1422150  54.0715720
  24.5336320  33.2006100  56.8925580  23.9039060  32.4993410  57.0595710
  23.9941460  33.9610230  56.6758740  35.7073330  49.3570900  56.5610440
  35.8825520  48.6708640  55.9171360  35.0094900  49.8817950  56.1687110
  23.5500980  49.7465740  54.1145750  24.2819800  49.4625020  53.5669640
  23.8094650  49.5079020  55.0045130  22.7115770  45.8630470  54.1192080
  22.0824650  46.3315570  54.6677910  22.8263600  45.0179690  54.5538270
  30.1665490  39.9136130  40.2693280  30.0859540  38.9990740  39.9984990
  29.7529910  40.4103200  39.5632990  28.2983530  41.6915150  42.1502550
  27.5225630  41.2115590  42.4401120  28.9496460  41.0120800  41.9758710
  22.3149360  42.0034960  43.0278310  21.4834240  41.7483670  43.4274820
  22.9230340  42.0745730  43.7636230  32.3190960  46.0975340  40.9301680
  31.8572490  45.3262580  41.2588850  33.1316510  46.1241410  41.4354130
  22.2950620  46.0375050  43.2236330  22.5978660  45.1472790  43.0446550
  23.0394210  46.5945270  42.9958580  20.7241310  36.9636850  36.8120700
  19.8358010  37.3052820  36.7100580  21.0082500  36.7637170  35.9201530
  18.6874320  39.5642500  42.6960400  19.2590430  38.7964700  42.6964040
  18.6875860  39.8631260  41.7867010  27.7392520  44.3672340  42.1572710
  27.6700800  43.4262280  41.9961840  28.5012380  44.4573750  42.7295280
  19.9299190  34.9726860  44.4829330  19.7502030  34.0752610  44.7632090
  19.5279270  35.5198730  45.1576280  28.7697690  37.1742720  42.3841640
  29.1462510  36.3014600  42.2715310  28.6717200  37.5101420  41.4932080
  20.5485860  37.4687360  43.0911670  21.2295970  37.7325730  43.7099070
  20.2333910  36.6288230  43.4249680  24.7410430  38.5154720  42.1784260
  25.2488650  39.0135690  42.8189280  25.2723670  37.7389920  42.0023620
  36.8421360  36.6859910  45.8813610  36.1373530  37.0741620  45.3628720
  37.1079280  37.3810200  46.4834540  23.0246530  33.1553280  46.4447680
  23.0264970  33.6725670  45.6393580  22.1950840  32.6783460  46.4217610
  24.2749380  42.7948460  44.6221180  23.9418760  43.4217380  45.2642250
  24.4516060  43.3210340  43.8422850  32.7883290  36.6093540  42.0897520
  32.0838860  36.8978430  42.6700630  33.1495450  37.4193650  41.7297080
  22.7061860  34.8663240  44.4518130  23.0478670  35.7105290  44.1572000
  21.7677670  35.0146980  44.5683470  23.4868480  44.7629260  46.4370360
  24.1042480  45.4380340  46.1554810  22.6261600  45.1717240  46.3457860
  18.7800820  43.9529120  35.3177210  18.4028800  44.4416220  34.5862110
  19.0373890  44.6254400  35.9483740  34.4046070  46.2268670  44.3525000
  33.7209590  46.8967780  44.3441670  34.9440360  46.4249320  43.5869860
  35.8570210  36.0548330  42.4806730  34.9095120  36.0887310  42.6122160
  36.1820200  36.8687280  42.8656090  26.3889750  32.3545510  40.7762720
  26.6964730  31.7992400  40.0598220  25.4590450  32.4889970  40.5935710
  31.9404810  48.0712800  43.0670180  31.9531970  47.6675090  42.1992440
  31.3880030  48.8460090  42.9631610  31.3390250  42.9742640  44.3952790
  31.7559040  42.7602750  43.5606250  32.0630070  43.2315430  44.9661410
  35.2852350  41.3729860  44.4869030  34.4570980  41.4422950  44.0119160
  35.8802830  41.9584170  44.0184860  32.2494360  38.1599180  45.4323900
  31.8365540  38.9852890  45.6863890  31.5170310  37.5744220  45.2400260
  24.3827150  40.9459080  40.2942570  23.9784150  40.2336330  39.7988470
  24.4690270  40.6012320  41.1830610  24.8508850  44.6326640  42.4581780
  24.5537140  44.0272110  41.7789560  25.8008670  44.6703950  42.3471140
  23.0955770  37.7202290  44.0741610  23.6470360  37.8297630  43.2994860
  23.6099280  38.0939890  44.7896840  32.9394460  48.2058510  46.1204880
  32.4625020  49.0130700  45.9277490  32.2556250  47.5536840  46.2731090
  23.9427280  44.3708330  49.1089580  23.0455810  44.5948300  49.3562980
  23.9680150  44.4943270  48.1600980  22.7698500  41.2421650  47.6846950
  22.6306270  42.1144450  48.0534350  21.8879860  40.8994460  47.5394890
  24.5678850  47.1843350  49.8932100  24.5394280  47.5886300  49.0260530
  24.4043820  46.2553710  49.7303700  21.0831780  39.8404060  37.7949220
  20.9629380  40.5666150  37.1830490  20.7732670  39.0706970  37.3177130
  36.5193670  47.9670450  51.1896270  36.9953390  48.4453340  51.8685350
  37.1400830  47.8987940  50.4641770  18.7217150  43.0119200  43.6017860
  18.7997570  43.1467970  42.6573580  19.3358830  42.3035090  43.7945980
  19.9664780  44.7119390  40.0124040  19.5592860  44.8533980  39.1577640
  20.8577790  44.4279550  39.8095250  35.9226920  45.1583300  48.3496280
  36.0489980  44.9195180  47.4313460  35.9648300  44.3267840  48.8218360
  29.7843660  48.8611300  46.9191090  30.2988330  48.7719310  47.7213520
  28.9412740  49.2071000  47.2119000  35.7750930  37.2115760  49.3146020
  35.1595200  37.7195430  48.7861480  35.4547350  36.3114090  49.2571960
  18.7776670  44.0533370  46.1412320  18.9407710  43.5838730  45.3231690
  19.2429120  43.5456930  46.8061160  23.5495440  33.1839130  41.1772890
  23.1063590  33.9648670  40.8457410  24.1080430  33.5069020  41.8843830
  27.8365250  36.0507650  46.7808210  27.3744620  36.2590670  47.5928150
  27.4343360  35.2367000  46.4778880  32.8369760  37.2716600  47.9104870
  31.9863350  36.9722350  48.2313940  32.6771550  37.5158610  46.9988690
  29.9319470  38.7718350  50.0103660  30.2572880  37.9382100  49.6705890
  30.7199800  39.2946870  50.1581990  25.5871340  33.7286460  43.0362490
  25.8843670  34.6349290  42.9554510  26.1356900  33.2405240  42.4222060
  23.3409660  38.3072700  38.9054140  23.1150580  38.0909870  39.8100760
  22.5602190  38.7401160  38.5600110  25.7808870  39.2058280  49.5714410
  25.6852470  38.2653010  49.4214810  26.6240850  39.4273350  49.1762480
  20.9119410  35.6171950  47.7248190  20.5182800  36.4647160  47.9320970
  20.2237810  34.9798320  47.9156830  27.4864460  35.7006920  50.7944930
  26.7962780  35.5079120  51.4291020  28.2296760  35.9841560  51.3269230
  18.2136460  33.5400410  41.7578270  17.9249510  34.1103270  42.4703250
  18.9582220  33.0604860  42.1209500  18.4006690  37.4820530  32.9680990
  18.3181360  38.4251290  33.1095980  18.0489750  37.3395440  32.0893340
  29.7627430  39.5405360  43.6298850  29.0308550  40.0492170  43.9788950
  29.3651770  38.7235340  43.3287630  26.2004820  36.2159560  42.0351340
  26.2040880  35.7749510  41.1855880  27.0955940  36.5376890  42.1423160
  22.0507200  36.0986050  40.9945550  21.7107250  36.5761280  41.7512600
  21.2884520  35.6451170  40.6346650  30.2253340  34.9939040  43.0421790
  30.2426080  35.4447690  43.8863640  29.9768920  34.0944680  43.2555230
  33.6524090  32.4071220  48.8808170  33.9769860  31.6760880  49.4066150
  33.6880600  32.0884860  47.9789160  20.3515650  43.4284800  48.3008130
  19.9670440  42.7878470  48.8991090  20.6627840  44.1320920  48.8702860
  26.5012790  40.2761340  43.7816750  26.8682920  39.8019910  44.5278090
  26.3117850  41.1502910  44.1225090  19.3653280  35.0205030  39.9110220
  19.0800200  34.6560700  40.7488840  19.3032140  34.2885490  39.2973360
  24.2912160  39.3169980  46.1000960  23.9869230  40.1961960  46.3251320
  25.2458620  39.3769770  46.1358400  33.5781930  42.5196330  42.4894200
  34.2981050  43.0151620  42.0990310  33.3763750  41.8414220  41.8448070
  28.9600730  42.5905390  48.3763200  28.8938040  41.6701060  48.1220790
  28.3305870  42.6880830  49.0907840  22.8631350  43.1911350  40.3346620
  23.3810020  42.3879610  40.2803510  22.4115370  43.1290490  41.1763450
  20.3475890  40.1572720  47.2472320  19.9890830  40.8226570  47.8345660
  20.0530450  39.3256270  47.6184940  23.5489010  40.6156960  50.1311870
  23.2489150  40.7614140  49.2339690  24.3200250  40.0562250  50.0385260
  28.8917460  45.4125960  48.1267000  28.9062000  44.4806920  47.9085910
  28.1842560  45.4985720  48.7656770  35.1028670  42.0533300  47.4735580
  34.3776860  42.6462080  47.2764970  35.6304130  42.0456840  46.6748950
  30.6328260  43.7793470  40.9719430  30.9852080  43.1821600  40.3120800
  29.7490590  43.4537700  41.1427680  18.8583940  40.1563980  33.8706920
  19.7278790  40.4388780  34.1542840  18.3674260  40.9699850  33.7555730
  28.3251360  47.0543530  45.2207500  28.9693580  47.2602910  45.8980920
  28.6880800  46.2931930  44.7678350  21.9230530  31.8874840  38.4637720
  21.7945160  31.8792740  39.4122640  21.0992550  32.2257930  38.1128730
  29.5983440  45.0575880  43.9384950  30.2405670  44.3569040  44.0517120
  30.1232790  45.8374320  43.7581840  31.3721060  45.8570780  47.1421010
  31.7077300  46.4437470  47.8198930  30.4521400  45.7263490  47.3718800
  19.2255190  49.3691360  34.4368550  19.5852830  49.9680700  33.7825820
  19.0847530  49.9151250  35.2103580  18.9224460  33.6465960  47.9244420
  18.2082980  33.8462880  48.5297030  19.3419500  32.8705530  48.2959220
  19.2097050  47.6346220  48.9110950  19.3188170  46.6940960  48.7706340
  18.5577610  47.9000970  48.2624680  27.2009640  45.9062110  50.3109070
  26.8806510  45.1871350  50.8554760  26.5268000  46.5817180  50.3845130
  20.8430450  41.9737450  35.9988980  20.2358400  42.7136350  36.0084280
  21.3179800  42.0636810  35.1727180  30.4163240  36.1388270  45.6745870
  30.7844060  35.3183480  46.0025440  29.5561440  36.1990160  46.0901520
  27.3765230  38.7927860  45.8983840  27.8750480  39.2673680  46.5635690
  27.5188180  37.8691380  46.1053870  34.5832090  35.0095820  46.7412230
  34.0805690  35.7501220  47.0806040  35.3988750  35.3979820  46.4249020
  32.8754100  40.2529000  40.1873590  31.9344240  40.2679230  40.3621280
  33.1898170  39.4664960  40.6333890  21.5482500  39.3673670  34.4310440
  21.6286090  38.4201180  34.5427840  22.4402250  39.6980550  34.5371100
  34.8779680  47.4237850  41.8627850  35.0027100  48.2469020  42.3351660
  35.7445240  47.2128580  41.5152000  22.3497210  49.5169060  41.5344980
  23.0859690  48.9684520  41.8053550  22.7338130  50.3825070  41.3950970
  19.2342690  45.5842630  37.4086490  18.3082470  45.8263770  37.3991900
  19.6999120  46.4116890  37.2871240  21.3555490  48.7015130  50.7230560
  22.1568220  49.0227180  51.1365960  20.8407310  48.3410710  51.4450470
  30.1920120  44.8095000  50.6705970  29.5858280  44.8326600  49.9301720
  29.8874230  44.0778040  51.2073220  31.6220490  48.5375290  49.2815380
  32.5742240  48.4533310  49.2315620  31.4748710  49.2017000  49.9549170
  19.0753300  41.1888590  49.6666610  19.5792320  40.6095870  50.2382840
  18.3360720  41.4728820  50.2042980  26.1291240  42.5959580  49.2002130
  25.3636910  43.1644580  49.1156800  26.3107200  42.3035790  48.3070360
  33.2714590  44.3264910  49.7577150  34.0124060  44.6640670  49.2544610
  32.5087270  44.4956970  49.2046920  21.1076380  39.3318180  50.5616680
  21.1481720  39.0332050  51.4701910  21.9621880  39.7325790  50.4024200
  23.0482190  37.9110280  48.5291170  22.5178650  37.4201230  47.9014510
  23.7170260  38.3394480  47.9949100  31.9460250  42.3779740  48.2932360
  32.3601270  42.5324820  49.1422780  31.0111250  42.5034960  48.4558140
  32.4182420  39.7175900  50.2971510  33.0003190  38.9628220  50.2091990
  32.5944190  40.2483340  49.5202990  23.5354490  34.8772650  48.6088460
  23.4411360  34.2593400  47.8839330  22.9551880  35.6038940  48.3818370
  26.3015930  33.4345890  45.6415850  25.8533230  33.4570150  44.7961400
  25.6681130  33.0364910  46.2386150  26.7075480  42.3300220  46.2628290
  27.1263590  43.1732950  46.0904530  25.7884110  42.4672260  46.0335070
  29.0439380  40.0616400  47.6466130  29.1635590  39.4657540  48.3860970
  29.9033380  40.0986090  47.2267430  31.3827280  40.6153590  46.2228640
  30.8562500  41.1396210  45.6193780  31.7258620  41.2480980  46.8538370
  24.5582900  48.6353230  47.3786020  24.0203990  49.3599290  47.0594720
  24.8116860  48.1583570  46.5883360  25.8108150  36.6037750  48.9041950
  26.4007840  36.2953600  49.5919770  24.9928390  36.1317500  49.0601850
  30.6301580  36.2203560  49.1374970  29.9417100  35.5585100  49.0724960
  31.3507600  35.7741830  49.5823430  27.4145110  49.8704440  47.6372670
  27.3403810  50.7739580  47.9445040  26.5123950  49.5516340  47.6094740
  21.6026600  44.4090000  33.4886030  22.0401470  44.9519670  34.1443610
  22.0874330  43.5836950  33.4982370  18.8172400  47.1979030  40.9406290
  19.1475410  46.3300090  40.7084930  19.2463400  47.4037550  41.7711250
  19.3062610  48.0649620  43.6787920  18.8693600  48.2450420  44.5112070
  19.8740290  48.8224240  43.5369640  34.9424790  47.5666620  47.9665230
  34.3426780  47.6259180  47.2229150  35.0718690  46.6271600  48.0962080
  19.1387040  40.5769850  40.0376800  18.4835880  40.3081490  39.3936500
  19.9764990  40.4674330  39.5878780  36.6442670  42.9082020  40.6511070
  37.0151500  42.1249340  40.2447040  37.2844600  43.5971120  40.4728370
  33.6276430  44.2918600  46.0641390  32.8136270  44.7215760  46.3267180
  34.0350630  44.9037010  45.4510440  20.1762970  40.9622420  44.5780140
  20.5436010  40.8749820  45.4576160  19.6073790  40.1988970  44.4787000
  34.9766830  39.4306800  47.5910610  34.7452920  39.2019550  46.6908560
  35.2371380  40.3506350  47.5455500  19.7278970  37.8731510  48.4838560
  18.8335020  37.8398270  48.8232270  20.2676520  38.0718300  49.2489810
  33.4154900  34.6563230  50.3690310  34.2925080  34.6646630  50.7524310
  33.4275740  33.9194070  49.7582660  18.3525120  37.7868780  35.9802130
  17.4489200  38.0498980  35.8053790  18.8365740  38.0579950  35.2002090
  34.8618170  38.5092770  41.2578330  35.3855650  38.0155420  40.6268500
  35.4477590  38.6443130  42.0025900  35.0407890  38.5932640  44.7797880
  34.0910600  38.5596180  44.8942870  35.2220900  39.5032750  44.5447650
  20.8952330  36.8434320  33.8896510  21.6044030  36.4217540  33.4043790
  20.1792270  36.9109550  33.2579860  20.5426490  32.8973650  32.9299160
  21.2654620  33.4382590  33.2480380  20.8151010  32.6237070  32.0540700
  20.2318680  32.1479840  42.8321780  20.8794870  31.5977220  42.3916940
  20.6520520  32.4022990  43.6537590  34.1271020  32.3421200  46.1891420
  34.7643240  32.9555340  46.5550610  34.2745910  32.3781860  45.2440650
  19.9850680  32.3035510  45.5747100  19.6365500  32.7599330  46.3405280
  19.6538380  31.4092640  45.6569530  21.5915050  45.4755110  49.7400290
  21.5484680  45.1048020  50.6214750  21.7226060  46.4132680  49.8802110
  25.2921080  47.0314700  45.3410010  25.0512440  47.2989260  44.4540530
  26.2323720  47.2020430  45.3960870  27.4975500  33.4947390  49.0966520
  27.4364390  34.0869220  49.8461930  28.4375880  33.3873350  48.9516780
  30.1350060  33.1517450  48.7358810  30.7490470  33.4696740  48.0739890
  30.6799620  32.6666040  49.3554670  36.5525240  49.0509080  46.1420650
  36.0583520  49.4477950  45.4247780  35.9438530  48.4258290  46.5357930
  20.6571320  31.8311710  48.8497870  21.2054310  31.6499760  48.0863980
  20.7226630  31.0405820  49.3854180  21.4303080  48.4217360  46.8598070
  20.8363400  48.2902060  47.5988110  21.4226920  47.5855500  46.3940170
  30.8758100  31.7149590  45.0628100  30.0017940  32.0484700  44.8601030
  30.7668850  31.2422770  45.8879970  31.7830080  33.9220460  46.4469820
  31.4543440  33.1072220  46.0671550  32.7312380  33.8790270  46.3235510
  34.2364690  49.6932500  43.4207390  33.7767660  50.4448310  43.0465410
  33.6077150  48.9738970  43.3622190  21.0615310  45.7875740  45.8106110
  20.3349370  45.1681030  45.7432060  21.1224460  46.1816350  44.9404190
  24.6660410  48.0020740  42.5955520  25.1825430  47.3908100  42.0703780
  25.3157790  48.5049520  43.0866530  27.4055910  48.8929230  43.4224500
  27.6933720  48.6383530  42.5457510  27.9179130  48.3406590  44.0130070
  28.6232920  32.6319430  44.0021010  27.8404710  33.1064930  44.2817770
  28.3295850  31.7274260  43.8934190  33.1753990  33.3342530  42.0470100
  33.6162080  33.2787630  41.1991700  32.9061580  34.2500540  42.1180280
  19.3445310  49.1050130  39.0202870  19.1767350  48.4720810  39.7184760
  18.4779820  49.3109530  38.6697060  19.9673330  32.9366910  36.5234730
  20.7252690  33.0495790  35.9498760  19.5050500  33.7736110  36.4778160
  20.9508010  47.7983360  36.4653010  20.4255630  48.1791390  35.7614970
  20.8752590  48.4234130  37.1862720  22.3398480  33.4630960  35.0636700
  22.8691240  32.6760760  34.9344650  22.9726800  34.1422150  35.2972230
  27.4728270  49.8145330  50.7892700  28.3995580  49.5789600  50.8328660
  27.4578700  50.6417330  50.3078730  24.6591880  32.4790080  50.5534580
  24.3776150  32.9823680  49.7895400  25.0411580  31.6811830  50.1876710
  23.5500980  49.7465740  35.3402260  24.2819800  49.4625020  34.7926150
  23.8094650  49.5079020  36.2301640  31.2607340  31.8943660  51.1315050
  31.1472790  32.2138270  52.0266570  32.0777080  32.2956170  50.8352330
  34.0405830  49.0415190  50.6133740  34.8331150  48.5464420  50.4059700
  34.3338980  49.7205330  51.2209350  30.1665490  39.9136130  21.4949790
  30.0859540  38.9990740  21.2241500  29.7529910  40.4103200  20.7889500
  22.3149360  42.0034960  24.2534820  21.4834240  41.7483670  24.6531330
  22.9230340  42.0745730  24.9892740  22.2950620  46.0375050  24.4492840
  22.5978660  45.1472790  24.2703060  23.0394210  46.5945270  24.2215090
  20.7241310  36.9636850  18.0377210  19.8358010  37.3052820  17.9357090
  21.0082500  36.7637170  17.1458040  18.6874320  39.5642500  23.9216910
  19.2590430  38.7964700  23.9220550  18.6875860  39.8631260  23.0123520
  28.5454270  48.3833350  21.7762180  27.9265710  48.8390850  21.2056620
  29.4006050  48.5384810  21.3751880  19.9299190  34.9726860  25.7085840
  19.7502030  34.0752610  25.9888600  19.5279270  35.5198730  26.3832790
  22.9002700  35.5468350  19.0715590  23.0069450  36.4472080  19.3784350
  21.9895060  35.4986320  18.7810240  32.5521810  34.6693160  20.5426490
  33.3731430  34.1789730  20.5851970  32.5855890  35.2590820  21.2958330
  20.5485860  37.4687360  24.3168180  21.2295970  37.7325730  24.9355580
  20.2333910  36.6288230  24.6506190  24.7410430  38.5154720  23.4040770
  25.2488650  39.0135690  24.0445790  25.2723670  37.7389920  23.2280130
  29.4117620  43.2672590  19.1694090  28.7934890  43.7322040  18.6056810
  29.9240870  43.9600070  19.5863600  18.7800820  43.9529120  16.5433720
  18.4028800  44.4416220  15.8118620  19.0373890  44.6254400  17.1740250
  26.3889750  32.3545510  22.0019230  26.6964730  31.7992400  21.2854730
  25.4590450  32.4889970  21.8192220  33.2350230  44.7929020  19.3816860
  33.1246560  43.8503350  19.5066280  33.2318480  45.1544660  20.2679620
  28.7770510  40.4194340  18.7379350  27.8499790  40.3531720  18.9667820
  28.9295330  41.3574470  18.6234590  28.7639590  36.6911340  15.7346510
  27.8243260  36.8525300  15.8198970  29.0822850  37.4097020  15.1882500
  32.8067800  41.9814640  19.2414600  32.1880220  41.6434190  18.5940900
  32.7892250  41.3374400  19.9493790  24.3827150  40.9459080  21.5199080
  23.9784150  40.2336330  21.0244980  24.4690270  40.6012320  22.4087120
  24.8508850  44.6326640  23.6838290  24.5537140  44.0272110  23.0046070
  25.8008670  44.6703950  23.5727650  30.9832500  41.2201450  16.2487350
  31.4225780  40.3823880  16.1025170  31.6960920  41.8530850  16.3351490
  29.0927880  46.1597520  20.2168590  29.5323790  46.9021850  19.8023980
  29.0314770  46.4024090  21.1407550  34.5649640  32.4744260  14.5628390
  34.2522300  32.5671090  15.4627460  35.3262110  33.0525290  14.5125820
  21.0831780  39.8404060  19.0205730  20.9629380  40.5666150  18.4087000
  20.7732670  39.0706970  18.5433640  18.7217150  43.0119200  24.8274370
  18.7997570  43.1467970  23.8830090  19.3358830  42.3035090  25.0202490
  19.9664780  44.7119390  21.2380550  19.5592860  44.8533980  20.3834150
  20.8577790  44.4279550  21.0351760  31.7598060  49.1466640  17.5731600
  31.5999200  48.8569580  18.4713430  31.5944770  48.3706770  17.0376830
  24.2386440  48.9265170  19.3503220  24.0628920  48.0100710  19.1371020
  23.3842180  49.2852460  19.5901020  31.4624190  46.6554200  16.1329600
  30.7689350  46.6531490  15.4731880  32.2047050  46.2313520  15.7023770
  31.0274120  48.2816910  20.2078090  31.4831070  47.5006290  20.5216710
  31.3666640  48.9923730  20.7519270  18.7776670  44.0533370  27.3668830
  18.9407710  43.5838730  26.5488200  19.2429120  43.5456930  28.0317670
  23.5495440  33.1839130  22.4029400  23.1063590  33.9648670  22.0713920
  24.1080430  33.5069020  23.1100340  26.6654260  32.8049830  17.2835230
  26.0408440  32.8009700  18.0088540  26.5784380  31.9380790  16.8871200
  23.3409660  38.3072700  20.1310650  23.1150580  38.0909870  21.0357270
  22.5602190  38.7401160  19.7856620  30.5707420  38.3136070  18.7301300
  29.9716310  39.0371870  18.5464920  31.1187030  38.2512850  17.9477750
  29.1772290  36.9499610  20.7604580  29.5701860  37.2671810  19.9473270
  29.5389140  36.0711490  20.8749100  20.9119410  35.6171950  28.9504700
  20.5182800  36.4647160  29.1577480  20.2237810  34.9798320  29.1413340
  18.2136460  33.5400410  22.9834780  17.9249510  34.1103270  23.6959760
  18.9582220  33.0604860  23.3466010  18.4006690  37.4820530  14.1937500
  18.3181360  38.4251290  14.3352490  18.0489750  37.3395440  13.3149850
  26.2004820  36.2159560  23.2607850  26.2040880  35.7749510  22.4112390
  27.0955940  36.5376890  23.3679670  22.0507200  36.0986050  22.2202060
  21.7107250  36.5761280  22.9769110  21.2884520  35.6451170  21.8603160
  26.2624970  37.2171640  16.2514610  26.3837790  37.1758120  17.2000430
  25.8773480  38.0795790  16.0961340  25.2746470  39.5272780  15.6497910
  24.7063370  39.0791030  15.0233820  25.9835470  39.8865560  15.1163060
  20.3515650  43.4284800  29.5264640  19.9670440  42.7878470  30.1247600
  20.6627840  44.1320920  30.0959370  19.3653280  35.0205030  21.1366730
  19.0800200  34.6560700  21.9745350  19.3032140  34.2885490  20.5229870
  22.8193950  43.5230970  17.9224320  22.0456210  42.9828590  17.7623040
  23.5488580  43.0037580  17.5842080  29.0391870  33.9134290  17.8580100
  28.2256480  33.4147460  17.7825410  28.8453820  34.7532540  17.4416450
  31.7540260  38.2853940  16.1542260  32.6419880  38.5971170  15.9793600
  31.7245350  37.4126190  15.7622840  22.8631350  43.1911350  21.5603130
  23.3810020  42.3879610  21.5060020  22.4115370  43.1290490  22.4019960
  27.7500850  44.4577630  16.8330430  28.0916550  45.2019860  16.3373750
  26.9213560  44.7708750  17.1955260  20.3475890  40.1572720  28.4728830
  19.9890830  40.8226570  29.0602170  20.0530450  39.3256270  28.8441450
  34.0254530  39.5965780  15.6222120  33.9418250  40.0280000  14.7718560
  34.7448720  40.0564130  16.0548940  35.0541780  46.4508040  18.3504250
  34.4117940  45.7963660  18.6247970  34.6672440  46.8563130  17.5744920
  26.7191540  44.5391160  19.6046350  27.4062670  45.0860370  19.9853940
  25.9323960  45.0831890  19.6395960  18.8583940  40.1563980  15.0963430
  19.7278790  40.4388780  15.3799350  18.3674260  40.9699850  14.9812240
  26.0218750  41.5437190  19.2171710  26.4781530  42.3542440  19.4431900
  25.6706960  41.2260330  20.0490200  21.9230530  31.8874840  19.6894230
  21.7945160  31.8792740  20.6379150  21.0992550  32.2257930  19.3385240
  33.4439160  45.3424500  14.8880600  33.2176740  44.6254940  15.4805240
  33.0535360  45.0936940  14.0502350  19.2255190  49.3691360  15.6625060
  19.5852830  49.9680700  15.0082330  19.0847530  49.9151250  16.4360090
  18.9224460  33.6465960  29.1500930  18.2082980  33.8462880  29.7553540
  19.3419500  32.8705530  29.5215730  33.0255410  43.2596440  16.5494760
  32.7377110  43.7209130  17.3372640  33.8207580  42.7994210  16.8178980
  19.2097050  47.6346220  30.1367460  19.3188170  46.6940960  29.9962850
  18.5577610  47.9000970  29.4881190  25.2423810  46.7522560  16.4798730
  25.2333910  47.4852250  15.8643240  24.3222170  46.5054140  16.5725690
  20.8430450  41.9737450  17.2245490  20.2358400  42.7136350  17.2340790
  21.3179800  42.0636810  16.3983690  33.7825270  35.0945210  17.7089940
  33.1538430  35.1990880  16.9948170  33.2877190  35.3141990  18.4983820
  28.2283410  46.8150800  15.1423920  28.3295390  46.6114790  14.2125900
  27.3285150  46.5609080  15.3471700  25.7509300  37.3731160  19.1247820
  25.0425450  37.8417500  19.5661430  26.0353780  36.7153170  19.7593010
  29.7824730  34.0981820  20.5643610  29.6592510  34.1167950  19.6153120
  30.7309290  34.1460760  20.6842010  26.8701520  49.3337120  19.8371590
  27.1243020  49.2958510  18.9150960  25.9214000  49.2070450  19.8299840
  23.9544320  35.6816240  16.4998530  24.8034850  36.1186390  16.4338720
  23.5875590  35.9936500  17.3270590  22.8535740  41.9348600  14.9734060
  23.6199010  41.8229960  15.5359490  22.9310430  41.2386570  14.3210830
  21.5482500  39.3673670  15.6566950  21.6286090  38.4201180  15.7684350
  22.4402250  39.6980550  15.7627610  22.3497210  49.5169060  22.7601490
  23.0859690  48.9684520  23.0310060  22.7338130  50.3825070  22.6207480
  19.2342690  45.5842630  18.6343000  18.3082470  45.8263770  18.6248410
  19.6999120  46.4116890  18.5127750  21.3555490  48.7015130  31.9487070
  22.1568220  49.0227180  32.3622470  20.8407310  48.3410710  32.6706980
  25.4599520  48.6899370  14.5827060  26.2528130  48.9788200  14.1308850
  24.9403870  48.2591540  13.9039540  34.5129690  47.9169500  16.0063800
  34.2271200  47.5034640  15.1917980  34.3149240  48.8457210  15.8864320
  19.0753300  41.1888590  30.8923120  19.5792320  40.6095870  31.4639350
  18.3360720  41.4728820  31.4299490  25.9776920  43.9102780  14.4469410
  25.8727560  43.2955130  15.1730790  25.8101140  43.3868670  13.6632420
  29.2179650  42.9722810  15.0511400  28.6689750  43.4192110  15.6954140
  29.8398910  42.4672060  15.5749070  21.1076380  39.3318180  31.7873190
  21.1481720  39.0332050  32.6958420  21.9621880  39.7325790  31.6280710
  24.8854770  41.9313730  16.9476700  25.3071190  41.7653600  17.7908090
  25.0105610  41.1213960  16.4531840  27.3982410  40.9551340  14.1953800
  27.9188070  40.2400360  13.8294950  28.0450810  41.5937210  14.4954310
  23.7813670  38.0046960  13.8934860  23.5802730  37.1414320  14.2548200
  23.6105720  37.9180320  12.9556460  31.2601980  32.8155190  16.4221740
  31.5404270  31.9723090  16.7781160  30.4867710  33.0478300  16.9360490
  22.5796470  35.1047580  13.8812740  22.8822370  35.1115010  12.9731890
  23.3191060  34.7545440  14.3780400  25.7981400  34.0482200  14.8668940
  25.4503400  33.3706190  14.2871390  25.9994170  33.5871710  15.6812330
  27.9630440  49.0362950  16.4855540  28.8581230  49.3747920  16.5074300
  27.9948070  48.3142360  15.8579820  21.6026600  44.4090000  14.7142540
  22.0401470  44.9519670  15.3700120  22.0874330  43.5836950  14.7238880
  18.8172400  47.1979030  22.1662800  19.1475410  46.3300090  21.9341440
  19.2463400  47.4037550  22.9967760  23.4134320  45.5288040  19.8264770
  23.1129860  45.4053010  20.7268680  23.3071810  44.6696630  19.4180500
  19.3062610  48.0649620  24.9044430  18.8693600  48.2450420  25.7368580
  19.8740290  48.8224240  24.7626150  36.1826240  45.3084440  14.5291450
  35.3519200  45.3761090  14.9998680  36.3598070  46.1988560  14.2258310
  35.6382700  42.0531920  17.0325650  36.4001610  42.6228570  17.1385340
  35.6537070  41.4859120  17.8033960  19.1387040  40.5769850  21.2633310
  18.4835880  40.3081490  20.6193010  19.9764990  40.4674330  20.8135290
  35.6901870  42.3466290  14.1898170  35.9650710  43.2545170  14.0617390
  35.5012610  42.2828820  15.1260160  32.0877480  35.3711140  15.4851800
  32.5062360  35.1842120  14.6448460  31.7813540  34.5190190  15.7954730
  35.5867210  40.2835280  19.1827600  35.2110810  39.5163210  18.7508890
  34.8570330  40.6657980  19.6702530  20.1762970  40.9622420  25.8036650
  20.5436010  40.8749820  26.6832670  19.6073790  40.1988970  25.7043510
  19.7278970  37.8731510  29.7095070  18.8335020  37.8398270  30.0488780
  20.2676520  38.0718300  30.4746320  18.3525120  37.7868780  17.2058640
  17.4489200  38.0498980  17.0310300  18.8365740  38.0579950  16.4258600
  20.8952330  36.8434320  15.1153020  21.6044030  36.4217540  14.6300300
  20.1792270  36.9109550  14.4836370  20.5426490  32.8973650  14.1555670
  21.2654620  33.4382590  14.4736890  20.8151010  32.6237070  13.2797210
  34.3518140  37.7666120  18.4227250  34.8477260  37.5336990  19.2076130
  34.1534210  36.9277960  18.0064890  20.2318680  32.1479840  24.0578290
  20.8794870  31.5977220  23.6173450  20.6520520  32.4022990  24.8794100
  35.7805300  36.4027070  20.9564930  35.6704580  36.2483110  21.8947200
  36.5412890  35.8748010  20.7140340  36.6695570  34.2334990  14.1971070
  37.5944880  34.1016170  13.9889360  36.6471360  34.3127810  15.1507520
  36.7434060  35.0045650  16.8227780  35.9485560  34.9390770  17.3520690
  36.9477340  35.9396290  16.8113130  33.6852480  49.0437200  20.8166170
  34.2811550  48.7221770  20.1400590  33.9430630  48.5709020  21.6079440
  19.9850680  32.3035510  26.8003610  19.6365500  32.7599330  27.5661790
  19.6538380  31.4092640  26.8826040  21.5915050  45.4755110  30.9656800
  21.5484680  45.1048020  31.8471260  21.7226060  46.4132680  31.1058620
  20.6571320  31.8311710  30.0754380  21.2054310  31.6499760  29.3120490
  20.7226630  31.0405820  30.6110690  21.4303080  48.4217360  28.0854580
  20.8363400  48.2902060  28.8244620  21.4226920  47.5855500  27.6196680
  21.0615310  45.7875740  27.0362620  20.3349370  45.1681030  26.9688570
  21.1224460  46.1816350  26.1660700  35.0392560  32.9657770  21.2835430
  34.9780960  32.0218990  21.1366450  35.8184590  33.0737860  21.8288890
  19.3445310  49.1050130  20.2459380  19.1767350  48.4720810  20.9441270
  18.4779820  49.3109530  19.8953570  19.9673330  32.9366910  17.7491240
  20.7252690  33.0495790  17.1755270  19.5050500  33.7736110  17.7034670
  26.5087140  35.0506180  20.7393550  25.6961650  34.6763070  20.3989430
  27.0128780  34.2951260  21.0414740  31.0112120  31.7148630  21.9776620
  31.6141490  32.2868840  22.4525140  30.2705110  32.2788070  21.7550520
  34.1546720  32.1170190  17.2516900  34.3497350  33.0153640  17.5184330
  33.3676590  31.8857270  17.7449850  20.9508010  47.7983360  17.6909520
  20.4255630  48.1791390  16.9871480  20.8752590  48.4234130  18.4119230
  22.3398480  33.4630960  16.2893210  22.8691240  32.6760760  16.1601160
  22.9726800  34.1422150  16.5228740  24.5336320  33.2006100  19.3438600
  23.9039060  32.4993410  19.5108730  23.9941460  33.9610230  19.1271760
  35.7073330  49.3570900  19.0123460  35.8825520  48.6708640  18.3684380
  35.0094900  49.8817950  18.6200130  23.5500980  49.7465740  16.5658770
  24.2819800  49.4625020  16.0182660  23.8094650  49.5079020  17.4558150
  22.7115770  45.8630470  16.5705100  22.0824650  46.3315570  17.1190930
  22.8263600  45.0179690  17.0051290  30.1665490  39.9136130   2.7206300
  30.0859540  38.9990740   2.4498010  29.7529910  40.4103200   2.0146010
  28.2983530  41.6915150   4.6015570  27.5225630  41.2115590   4.8914140
  28.9496460  41.0120800   4.4271730  22.3149360  42.0034960   5.4791330
  21.4834240  41.7483670   5.8787840  22.9230340  42.0745730   6.2149250
  32.3190960  46.0975340   3.3814700  31.8572490  45.3262580   3.7101870
  33.1316510  46.1241410   3.8867150  22.2950620  46.0375050   5.6749350
  22.5978660  45.1472790   5.4959570  23.0394210  46.5945270   5.4471600
  18.6874320  39.5642500   5.1473420  19.2590430  38.7964700   5.1477060
  18.6875860  39.8631260   4.2380030  28.5454270  48.3833350   3.0018690
  27.9265710  48.8390850   2.4313130  29.4006050  48.5384810   2.6008390
  27.7392520  44.3672340   4.6085730  27.6700800  43.4262280   4.4474860
  28.5012380  44.4573750   5.1808300  19.9299190  34.9726860   6.9342350
  19.7502030  34.0752610   7.2145110  19.5279270  35.5198730   7.6089300
  28.7697690  37.1742720   4.8354660  29.1462510  36.3014600   4.7228330
  28.6717200  37.5101420   3.9445100  32.5521810  34.6693160   1.7683000
  33.3731430  34.1789730   1.8108480  32.5855890  35.2590820   2.5214840
  20.5485860  37.4687360   5.5424690  21.2295970  37.7325730   6.1612090
  20.2333910  36.6288230   5.8762700  24.7410430  38.5154720   4.6297280
  25.2488650  39.0135690   5.2702300  25.2723670  37.7389920   4.4536640
  36.8421360  36.6859910   8.3326630  36.1373530  37.0741620   7.8141740
  37.1079280  37.3810200   8.9347560  23.0246530  33.1553280   8.8960700
  23.0264970  33.6725670   8.0906600  22.1950840  32.6783460   8.8730630
  24.2749380  42.7948460   7.0734200  23.9418760  43.4217380   7.7155270
  24.4516060  43.3210340   6.2935870  32.7883290  36.6093540   4.5410540
  32.0838860  36.8978430   5.1213650  33.1495450  37.4193650   4.1810100
  22.7061860  34.8663240   6.9031150  23.0478670  35.7105290   6.6085020
  21.7677670  35.0146980   7.0196490  23.4868480  44.7629260   8.8883380
  24.1042480  45.4380340   8.6067830  22.6261600  45.1717240   8.7970880
  34.4046070  46.2268670   6.8038020  33.7209590  46.8967780   6.7954690
  34.9440360  46.4249320   6.0382880  35.8570210  36.0548330   4.9319750
  34.9095120  36.0887310   5.0635180  36.1820200  36.8687280   5.3169110
  26.3889750  32.3545510   3.2275740  26.6964730  31.7992400   2.5111240
  25.4590450  32.4889970   3.0448730  31.9404810  48.0712800   5.5183200
  31.9531970  47.6675090   4.6505460  31.3880030  48.8460090   5.4144630
  31.3390250  42.9742640   6.8465810  31.7559040  42.7602750   6.0119270
  32.0630070  43.2315430   7.4174430  35.2852350  41.3729860   6.9382050
  34.4570980  41.4422950   6.4632180  35.8802830  41.9584170   6.4697880
  32.2494360  38.1599180   7.8836920  31.8365540  38.9852890   8.1376910
  31.5170310  37.5744220   7.6913280  24.3827150  40.9459080   2.7455590
  23.9784150  40.2336330   2.2501490  24.4690270  40.6012320   3.6343630
  24.8508850  44.6326640   4.9094800  24.5537140  44.0272110   4.2302580
  25.8008670  44.6703950   4.7984160  23.0955770  37.7202290   6.5254630
  23.6470360  37.8297630   5.7507880  23.6099280  38.0939890   7.2409860
  32.9394460  48.2058510   8.5717900  32.4625020  49.0130700   8.3790510
  32.2556250  47.5536840   8.7244110  23.9427280  44.3708330  11.5602600
  23.0455810  44.5948300  11.8076000  23.9680150  44.4943270  10.6114000
  22.7698500  41.2421650  10.1359970  22.6306270  42.1144450  10.5047370
  21.8879860  40.8994460   9.9907910  24.5678850  47.1843350  12.3445120
  24.5394280  47.5886300  11.4773550  24.4043820  46.2553710  12.1816720
  36.5193670  47.9670450  13.6409290  36.9953390  48.4453340  14.3198370
  37.1400830  47.8987940  12.9154790  18.7217150  43.0119200   6.0530880
  18.7997570  43.1467970   5.1086600  19.3358830  42.3035090   6.2459000
  19.9664780  44.7119390   2.4637060  19.5592860  44.8533980   1.6090660
  20.8577790  44.4279550   2.2608270  35.9226920  45.1583300  10.8009300
  36.0489980  44.9195180   9.8826480  35.9648300  44.3267840  11.2731380
  29.7843660  48.8611300   9.3704110  30.2988330  48.7719310  10.1726540
  28.9412740  49.2071000   9.6632020  35.7750930  37.2115760  11.7659040
  35.1595200  37.7195430  11.2374500  35.4547350  36.3114090  11.7084980
  18.7776670  44.0533370   8.5925340  18.9407710  43.5838730   7.7744710
  19.2429120  43.5456930   9.2574180  23.5495440  33.1839130   3.6285910
  23.1063590  33.9648670   3.2970430  24.1080430  33.5069020   4.3356850
  27.8365250  36.0507650   9.2321230  27.3744620  36.2590670  10.0441170
  27.4343360  35.2367000   8.9291900  32.8369760  37.2716600  10.3617890
  31.9863350  36.9722350  10.6826960  32.6771550  37.5158610   9.4501710
  29.9319470  38.7718350  12.4616680  30.2572880  37.9382100  12.1218910
  30.7199800  39.2946870  12.6095010  25.5871340  33.7286460   5.4875510
  25.8843670  34.6349290   5.4067530  26.1356900  33.2405240   4.8735080
  25.7808870  39.2058280  12.0227430  25.6852470  38.2653010  11.8727830
  26.6240850  39.4273350  11.6275500  20.9119410  35.6171950  10.1761210
  20.5182800  36.4647160  10.3833990  20.2237810  34.9798320  10.3669850
  27.4864460  35.7006920  13.2457950  26.7962780  35.5079120  13.8804040
  28.2296760  35.9841560  13.7782250  18.2136460  33.5400410   4.2091290
  17.9249510  34.1103270   4.9216270  18.9582220  33.0604860   4.5722520
  29.7627430  39.5405360   6.0811870  29.0308550  40.0492170   6.4301970
  29.3651770  38.7235340   5.7800650  26.2004820  36.2159560   4.4864360
  26.2040880  35.7749510   3.6368900  27.0955940  36.5376890   4.5936180
  22.0507200  36.0986050   3.4458570  21.7107250  36.5761280   4.2025620
  21.2884520  35.6451170   3.0859670  30.2253340  34.9939040   5.4934810
  30.2426080  35.4447690   6.3376660  29.9768920  34.0944680   5.7068250
  33.6524090  32.4071220  11.3321190  33.9769860  31.6760880  11.8579170
  33.6880600  32.0884860  10.4302180  20.3515650  43.4284800  10.7521150
  19.9670440  42.7878470  11.3504110  20.6627840  44.1320920  11.3215880
  26.5012790  40.2761340   6.2329770  26.8682920  39.8019910   6.9791110
  26.3117850  41.1502910   6.5738110  19.3653280  35.0205030   2.3623240
  19.0800200  34.6560700   3.2001860  19.3032140  34.2885490   1.7486380
  24.2912160  39.3169980   8.5513980  23.9869230  40.1961960   8.7764340
  25.2458620  39.3769770   8.5871420  33.5781930  42.5196330   4.9407220
  34.2981050  43.0151620   4.5503330  33.3763750  41.8414220   4.2961090
  28.9600730  42.5905390  10.8276220  28.8938040  41.6701060  10.5733810
  28.3305870  42.6880830  11.5420860  22.8631350  43.1911350   2.7859640
  23.3810020  42.3879610   2.7316530  22.4115370  43.1290490   3.6276470
  20.3475890  40.1572720   9.6985340  19.9890830  40.8226570  10.2858680
  20.0530450  39.3256270  10.0697960  23.5489010  40.6156960  12.5824890
  23.2489150  40.7614140  11.6852710  24.3200250  40.0562250  12.4898280
  28.8917460  45.4125960  10.5780020  28.9062000  44.4806920  10.3598930
  28.1842560  45.4985720  11.2169790  35.1028670  42.0533300   9.9248600
  34.3776860  42.6462080   9.7277990  35.6304130  42.0456840   9.1261970
  30.6328260  43.7793470   3.4232450  30.9852080  43.1821600   2.7633820
  29.7490590  43.4537700   3.5940700  28.3251360  47.0543530   7.6720520
  28.9693580  47.2602910   8.3493940  28.6880800  46.2931930   7.2191370
  29.5983440  45.0575880   6.3897970  30.2405670  44.3569040   6.5030140
  30.1232790  45.8374320   6.2094860  31.3721060  45.8570780   9.5934030
  31.7077300  46.4437470  10.2711950  30.4521400  45.7263490   9.8231820
  18.9224460  33.6465960  10.3757440  18.2082980  33.8462880  10.9810050
  19.3419500  32.8705530  10.7472240  19.2097050  47.6346220  11.3623970
  19.3188170  46.6940960  11.2219360  18.5577610  47.9000970  10.7137700
  27.2009640  45.9062110  12.7622090  26.8806510  45.1871350  13.3067780
  26.5268000  46.5817180  12.8358150  30.4163240  36.1388270   8.1258890
  30.7844060  35.3183480   8.4538460  29.5561440  36.1990160   8.5414540
  27.3765230  38.7927860   8.3496860  27.8750480  39.2673680   9.0148710
  27.5188180  37.8691380   8.5566890  34.5832090  35.0095820   9.1925250
  34.0805690  35.7501220   9.5319060  35.3988750  35.3979820   8.8762040
  32.8754100  40.2529000   2.6386610  31.9344240  40.2679230   2.8134300
  33.1898170  39.4664960   3.0846910  34.8779680  47.4237850   4.3140870
  35.0027100  48.2469020   4.7864680  35.7445240  47.2128580   3.9665020
  22.3497210  49.5169060   3.9858000  23.0859690  48.9684520   4.2566570
  22.7338130  50.3825070   3.8463990  21.3555490  48.7015130  13.1743580
  22.1568220  49.0227180  13.5878980  20.8407310  48.3410710  13.8963490
  30.1920120  44.8095000  13.1218990  29.5858280  44.8326600  12.3814740
  29.8874230  44.0778040  13.6586240  31.6220490  48.5375290  11.7328400
  32.5742240  48.4533310  11.6828640  31.4748710  49.2017000  12.4062190
  19.0753300  41.1888590  12.1179630  19.5792320  40.6095870  12.6895860
  18.3360720  41.4728820  12.6556000  26.1291240  42.5959580  11.6515150
  25.3636910  43.1644580  11.5669820  26.3107200  42.3035790  10.7583380
  33.2714590  44.3264910  12.2090170  34.0124060  44.6640670  11.7057630
  32.5087270  44.4956970  11.6559940  21.1076380  39.3318180  13.0129700
  21.1481720  39.0332050  13.9214930  21.9621880  39.7325790  12.8537220
  23.0482190  37.9110280  10.9804190  22.5178650  37.4201230  10.3527530
  23.7170260  38.3394480  10.4462120  31.9460250  42.3779740  10.7445380
  32.3601270  42.5324820  11.5935800  31.0111250  42.5034960  10.9071160
  32.4182420  39.7175900  12.7484530  33.0003190  38.9628220  12.6605010
  32.5944190  40.2483340  11.9716010  23.5354490  34.8772650  11.0601480
  23.4411360  34.2593400  10.3352350  22.9551880  35.6038940  10.8331390
  26.3015930  33.4345890   8.0928870  25.8533230  33.4570150   7.2474420
  25.6681130  33.0364910   8.6899170  26.7075480  42.3300220   8.7141310
  27.1263590  43.1732950   8.5417550  25.7884110  42.4672260   8.4848090
  29.0439380  40.0616400  10.0979150  29.1635590  39.4657540  10.8373990
  29.9033380  40.0986090   9.6780450  31.3827280  40.6153590   8.6741660
  30.8562500  41.1396210   8.0706800  31.7258620  41.2480980   9.3051390
  24.5582900  48.6353230   9.8299040  24.0203990  49.3599290   9.5107740
  24.8116860  48.1583570   9.0396380  25.8108150  36.6037750  11.3554970
  26.4007840  36.2953600  12.0432790  24.9928390  36.1317500  11.5114870
  30.6301580  36.2203560  11.5887990  29.9417100  35.5585100  11.5237980
  31.3507600  35.7741830  12.0336450  27.4145110  49.8704440  10.0885690
  27.3403810  50.7739580  10.3958060  26.5123950  49.5516340  10.0607760
  18.8172400  47.1979030   3.3919310  19.1475410  46.3300090   3.1597950
  19.2463400  47.4037550   4.2224270  19.3062610  48.0649620   6.1300940
  18.8693600  48.2450420   6.9625090  19.8740290  48.8224240   5.9882660
  34.9424790  47.5666620  10.4178250  34.3426780  47.6259180   9.6742170
  35.0718690  46.6271600  10.5475100  19.1387040  40.5769850   2.4889820
  18.4835880  40.3081490   1.8449520  19.9764990  40.4674330   2.0391800
  36.6442670  42.9082020   3.1024090  37.0151500  42.1249340   2.6960060
  37.2844600  43.5971120   2.9241390  33.6276430  44.2918600   8.5154410
  32.8136270  44.7215760   8.7780200  34.0350630  44.9037010   7.9023460
  20.1762970  40.9622420   7.0293160  20.5436010  40.8749820   7.9089180
  19.6073790  40.1988970   6.9300020  34.9766830  39.4306800  10.0423630
  34.7452920  39.2019550   9.1421580  35.2371380  40.3506350   9.9968520
  19.7278970  37.8731510  10.9351580  18.8335020  37.8398270  11.2745290
  20.2676520  38.0718300  11.7002830  33.4154900  34.6563230  12.8203330
  34.2925080  34.6646630  13.2037330  33.4275740  33.9194070  12.2095680
  34.8618170  38.5092770   3.7091350  35.3855650  38.0155420   3.0781520
  35.4477590  38.6443130   4.4538920  35.0407890  38.5932640   7.2310900
  34.0910600  38.5596180   7.3455890  35.2220900  39.5032750   6.9960670
  20.2318680  32.1479840   5.2834800  20.8794870  31.5977220   4.8429960
  20.6520520  32.4022990   6.1050610  35.7805300  36.4027070   2.1821440
  35.6704580  36.2483110   3.1203710  36.5412890  35.8748010   1.9396850
  34.1271020  32.3421200   8.6404440  34.7643240  32.9555340   9.0063630
  34.2745910  32.3781860   7.6953670  19.9850680  32.3035510   8.0260120
  19.6365500  32.7599330   8.7918300  19.6538380  31.4092640   8.1082550
  21.5915050  45.4755110  12.1913310  21.5484680  45.1048020  13.0727770
  21.7226060  46.4132680  12.3315130  25.2921080  47.0314700   7.7923030
  25.0512440  47.2989260   6.9053550  26.2323720  47.2020430   7.8473890
  27.4975500  33.4947390  11.5479540  27.4364390  34.0869220  12.2974950
  28.4375880  33.3873350  11.4029800  30.1350060  33.1517450  11.1871830
  30.7490470  33.4696740  10.5252910  30.6799620  32.6666040  11.8067690
  36.5525240  49.0509080   8.5933670  36.0583520  49.4477950   7.8760800
  35.9438530  48.4258290   8.9870950  20.6571320  31.8311710  11.3010890
  21.2054310  31.6499760  10.5377000  20.7226630  31.0405820  11.8367200
  21.4303080  48.4217360   9.3111090  20.8363400  48.2902060  10.0501130
  21.4226920  47.5855500   8.8453190  30.8758100  31.7149590   7.5141120
  30.0017940  32.0484700   7.3114050  30.7668850  31.2422770   8.3392990
  31.7830080  33.9220460   8.8982840  31.4543440  33.1072220   8.5184570
  32.7312380  33.8790270   8.7748530  34.2364690  49.6932500   5.8720410
  33.7767660  50.4448310   5.4978430  33.6077150  48.9738970   5.8135210
  21.0615310  45.7875740   8.2619130  20.3349370  45.1681030   8.1945080
  21.1224460  46.1816350   7.3917210  24.6660410  48.0020740   5.0468540
  25.1825430  47.3908100   4.5216800  25.3157790  48.5049520   5.5379550
  27.4055910  48.8929230   5.8737520  27.6933720  48.6383530   4.9970530
  27.9179130  48.3406590   6.4643090  28.6232920  32.6319430   6.4534030
  27.8404710  33.1064930   6.7330790  28.3295850  31.7274260   6.3447210
  33.1753990  33.3342530   4.4983120  33.6162080  33.2787630   3.6504720
  32.9061580  34.2500540   4.5693300  35.0392560  32.9657770   2.5091940
  34.9780960  32.0218990   2.3622960  35.8184590  33.0737860   3.0545400
  26.5087140  35.0506180   1.9650060  25.6961650  34.6763070   1.6245940
  27.0128780  34.2951260   2.2671250  31.0112120  31.7148630   3.2033130
  31.6141490  32.2868840   3.6781650  30.2705110  32.2788070   2.9807030
  27.4728270  49.8145330  13.2405720  28.3995580  49.5789600  13.2841680
  27.4578700  50.6417330  12.7591750  24.6591880  32.4790080  13.0047600
  24.3776150  32.9823680  12.2408420  25.0411580  31.6811830  12.6389730
  31.2607340  31.8943660  13.5828070  31.1472790  32.2138270  14.4779590
  32.0777080  32.2956170  13.2865350  34.0405830  49.0415190  13.0646760
  34.8331150  48.5464420  12.8572720  34.3338980  49.7205330  13.6722370
  30.1665490  21.1392640  59.0436770  30.0859540  20.2247250  58.7728480
  29.7529910  21.6359710  58.3376480  28.2983530  22.9171660  60.9246040
  27.5225630  22.4372100  61.2144610  28.9496460  22.2377310  60.7502200
  22.3149360  23.2291470  61.8021800  21.4834240  22.9740180  62.2018310
  22.9230340  23.3002240  62.5379720  32.3190960  27.3231850  59.7045170
  31.8572490  26.5519090  60.0332340  33.1316510  27.3497920  60.2097620
  22.2950620  27.2631560  61.9979820  22.5978660  26.3729300  61.8190040
  23.0394210  27.8201780  61.7702070  20.7241310  18.1893360  55.5864190
  19.8358010  18.5309330  55.4844070  21.0082500  17.9893680  54.6945020
  18.6874320  20.7899010  61.4703890  19.2590430  20.0221210  61.4707530
  18.6875860  21.0887770  60.5610500  28.5454270  29.6089860  59.3249160
  27.9265710  30.0647360  58.7543600  29.4006050  29.7641320  58.9238860
  27.7392520  25.5928850  60.9316200  27.6700800  24.6518790  60.7705330
  28.5012380  25.6830260  61.5038770  28.7697690  18.3999230  61.1585130
  29.1462510  17.5271110  61.0458800  28.6717200  18.7357930  60.2675570
  22.9002700  16.7724860  56.6202570  23.0069450  17.6728590  56.9271330
  21.9895060  16.7242830  56.3297220  32.5521810  15.8949670  58.0913470
  33.3731430  15.4046240  58.1338950  32.5855890  16.4847330  58.8445310
  20.5485860  18.6943870  61.8655160  21.2295970  18.9582240  62.4842560
  20.2333910  17.8544740  62.1993170  24.7410430  19.7411230  60.9527750
  25.2488650  20.2392200  61.5932770  25.2723670  18.9646430  60.7767110
  29.4117620  24.4929100  56.7181070  28.7934890  24.9578550  56.1543790
  29.9240870  25.1856580  57.1350580  32.7883290  17.8350050  60.8641010
  32.0838860  18.1234940  61.4444120  33.1495450  18.6450160  60.5040570
  22.7061860  16.0919750  63.2261620  23.0478670  16.9361800  62.9315490
  21.7677670  16.2403490  63.3426960  18.7800820  25.1785630  54.0920700
  18.4028800  25.6672730  53.3605600  19.0373890  25.8510910  54.7227230
  34.4046070  27.4525180  63.1268490  33.7209590  28.1224290  63.1185160
  34.9440360  27.6505830  62.3613350  35.8570210  17.2804840  61.2550220
  34.9095120  17.3143820  61.3865650  36.1820200  18.0943790  61.6399580
  26.3889750  13.5802020  59.5506210  26.6964730  13.0248910  58.8341710
  25.4590450  13.7146480  59.3679200  31.9404810  29.2969310  61.8413670
  31.9531970  28.8931600  60.9735930  31.3880030  30.0716600  61.7375100
  33.2350230  26.0185530  56.9303840  33.1246560  25.0759860  57.0553260
  33.2318480  26.3801170  57.8166600  28.7770510  21.6450850  56.2866330
  27.8499790  21.5788230  56.5154800  28.9295330  22.5830980  56.1721570
  28.7639590  17.9167850  53.2833490  27.8243260  18.0781810  53.3685950
  29.0822850  18.6353530  52.7369480  35.2852350  22.5986370  63.2612520
  34.4570980  22.6679460  62.7862650  35.8802830  23.1840680  62.7928350
  32.8067800  23.2071150  56.7901580  32.1880220  22.8690700  56.1427880
  32.7892250  22.5630910  57.4980770  24.3827150  22.1715590  59.0686060
  23.9784150  21.4592840  58.5731960  24.4690270  21.8268830  59.9574100
  24.8508850  25.8583150  61.2325270  24.5537140  25.2528620  60.5533050
  25.8008670  25.8960460  61.1214630  30.9832500  22.4457960  53.7974330
  31.4225780  21.6080390  53.6512150  31.6960920  23.0787360  53.8838470
  29.0927880  27.3854030  57.7655570  29.5323790  28.1278360  57.3510960
  29.0314770  27.6280600  58.6894530  34.5649640  13.7000770  52.1115370
  34.2522300  13.7927600  53.0114440  35.3262110  14.2781800  52.0612800
  21.0831780  21.0660570  56.5692710  20.9629380  21.7922660  55.9573980
  20.7732670  20.2963480  56.0920620  18.7217150  24.2375710  62.3761350
  18.7997570  24.3724480  61.4317070  19.3358830  23.5291600  62.5689470
  19.9664780  25.9375900  58.7867530  19.5592860  26.0790490  57.9321130
  20.8577790  25.6536060  58.5838740  31.7598060  30.3723150  55.1218580
  31.5999200  30.0826090  56.0200410  31.5944770  29.5963280  54.5863810
  24.2386440  30.1521680  56.8990200  24.0628920  29.2357220  56.6858000
  23.3842180  30.5108970  57.1388000  31.4624190  27.8810710  53.6816580
  30.7689350  27.8788000  53.0218860  32.2047050  27.4570030  53.2510750
  31.0274120  29.5073420  57.7565070  31.4831070  28.7262800  58.0703690
  31.3666640  30.2180240  58.3006250  23.5495440  14.4095640  59.9516380
  23.1063590  15.1905180  59.6200900  24.1080430  14.7325530  60.6587320
  26.6654260  14.0306340  54.8322210  26.0408440  14.0266210  55.5575520
  26.5784380  13.1637300  54.4358180  25.5871340  14.9542970  61.8105980
  25.8843670  15.8605800  61.7298000  26.1356900  14.4661750  61.1965550
  23.3409660  19.5329210  57.6797630  23.1150580  19.3166380  58.5844250
  22.5602190  19.9657670  57.3343600  30.5707420  19.5392580  56.2788280
  29.9716310  20.2628380  56.0951900  31.1187030  19.4769360  55.4964730
  29.1772290  18.1756120  58.3091560  29.5701860  18.4928320  57.4960250
  29.5389140  17.2968000  58.4236080  18.2136460  14.7656920  60.5321760
  17.9249510  15.3359780  61.2446740  18.9582220  14.2861370  60.8952990
  18.4006690  18.7077040  51.7424480  18.3181360  19.6507800  51.8839470
  18.0489750  18.5651950  50.8636830  29.7627430  20.7661870  62.4042340
  29.0308550  21.2748680  62.7532440  29.3651770  19.9491850  62.1031120
  26.2004820  17.4416070  60.8094830  26.2040880  17.0006020  59.9599370
  27.0955940  17.7633400  60.9166650  22.0507200  17.3242560  59.7689040
  21.7107250  17.8017790  60.5256090  21.2884520  16.8707680  59.4090140
  26.2624970  18.4428150  53.8001590  26.3837790  18.4014630  54.7487410
  25.8773480  19.3052300  53.6448320  30.2253340  16.2195550  61.8165280
  30.2426080  16.6704200  62.6607130  29.9768920  15.3201190  62.0298720
  25.2746470  20.7529290  53.1984890  24.7063370  20.3047540  52.5720800
  25.9835470  21.1122070  52.6650040  26.5012790  21.5017850  62.5560240
  26.8682920  21.0276420  63.3021580  26.3117850  22.3759420  62.8968580
  19.3653280  16.2461540  58.6853710  19.0800200  15.8817210  59.5232330
  19.3032140  15.5142000  58.0716850  22.8193950  24.7487480  55.4711300
  22.0456210  24.2085100  55.3110020  23.5488580  24.2294090  55.1329060
  33.5781930  23.7452840  61.2637690  34.2981050  24.2408130  60.8733800
  33.3763750  23.0670730  60.6191560  29.0391870  15.1390800  55.4067080
  28.2256480  14.6403970  55.3312390  28.8453820  15.9789050  54.9903430
  31.7540260  19.5110450  53.7029240  32.6419880  19.8227680  53.5280580
  31.7245350  18.6382700  53.3109820  22.8631350  24.4167860  59.1090110
  23.3810020  23.6136120  59.0547000  22.4115370  24.3547000  59.9506940
  27.7500850  25.6834140  54.3817410  28.0916550  26.4276370  53.8860730
  26.9213560  25.9965260  54.7442240  34.0254530  20.8222290  53.1709100
  33.9418250  21.2536510  52.3205540  34.7448720  21.2820640  53.6035920
  35.0541780  27.6764550  55.8991230  34.4117940  27.0220170  56.1734950
  34.6672440  28.0819640  55.1231900  30.6328260  25.0049980  59.7462920
  30.9852080  24.4078110  59.0864290  29.7490590  24.6794210  59.9171170
  26.7191540  25.7647670  57.1533330  27.4062670  26.3116880  57.5340920
  25.9323960  26.3088400  57.1882940  18.8583940  21.3820490  52.6450410
  19.7278790  21.6645290  52.9286330  18.3674260  22.1956360  52.5299220
  26.0218750  22.7693700  56.7658690  26.4781530  23.5798950  56.9918880
  25.6706960  22.4516840  57.5977180  21.9230530  13.1131350  57.2381210
  21.7945160  13.1049250  58.1866130  21.0992550  13.4514440  56.8872220
  29.5983440  26.2832390  62.7128440  30.2405670  25.5825550  62.8260610
  30.1232790  27.0630830  62.5325330  33.4439160  26.5681010  52.4367580
  33.2176740  25.8511450  53.0292220  33.0535360  26.3193450  51.5989330
  19.2255190  30.5947870  53.2112040  19.5852830  31.1937210  52.5569310
  19.0847530  31.1407760  53.9847070  33.0255410  24.4852950  54.0981740
  32.7377110  24.9465640  54.8859620  33.8207580  24.0250720  54.3665960
  25.2423810  27.9779070  54.0285710  25.2333910  28.7108760  53.4130220
  24.3222170  27.7310650  54.1212670  20.8430450  23.1993960  54.7732470
  20.2358400  23.9392860  54.7827770  21.3179800  23.2893320  53.9470670
  33.7825270  16.3201720  55.2576920  33.1538430  16.4247390  54.5435150
  33.2877190  16.5398500  56.0470800  28.2283410  28.0407310  52.6910900
  28.3295390  27.8371300  51.7612880  27.3285150  27.7865590  52.8958680
  25.7509300  18.5987670  56.6734800  25.0425450  19.0674010  57.1148410
  26.0353780  17.9409680  57.3079990  29.7824730  15.3238330  58.1130590
  29.6592510  15.3424460  57.1640100  30.7309290  15.3717270  58.2328990
  26.8701520  30.5593630  57.3858570  27.1243020  30.5215020  56.4637940
  25.9214000  30.4326960  57.3786820  23.9544320  16.9072750  54.0485510
  24.8034850  17.3442900  53.9825700  23.5875590  17.2193010  54.8757570
  32.8754100  21.4785510  58.9617080  31.9344240  21.4935740  59.1364770
  33.1898170  20.6921470  59.4077380  22.8535740  23.1605110  52.5221040
  23.6199010  23.0486470  53.0846470  22.9310430  22.4643080  51.8697810
  21.5482500  20.5930180  53.2053930  21.6286090  19.6457690  53.3171330
  22.4402250  20.9237060  53.3114590  34.8779680  28.6494360  60.6371340
  35.0027100  29.4725530  61.1095150  35.7445240  28.4385090  60.2895490
  22.3497210  30.7425570  60.3088470  23.0859690  30.1941030  60.5797040
  22.7338130  31.6081580  60.1694460  19.2342690  26.8099140  56.1829980
  18.3082470  27.0520280  56.1735390  19.6999120  27.6373400  56.0614730
  25.4599520  29.9155880  52.1314040  26.2528130  30.2044710  51.6795830
  24.9403870  29.4848050  51.4526520  34.5129690  29.1426010  53.5550780
  34.2271200  28.7291150  52.7404960  34.3149240  30.0713720  53.4351300
  25.9776920  25.1359290  51.9956390  25.8727560  24.5211640  52.7217770
  25.8101140  24.6125180  51.2119400  29.2179650  24.1979320  52.5998380
  28.6689750  24.6448620  53.2441120  29.8398910  23.6928570  53.1236050
  24.8854770  23.1570240  54.4963680  25.3071190  22.9910110  55.3395070
  25.0105610  22.3470470  54.0018820  27.3982410  22.1807850  51.7440780
  27.9188070  21.4656870  51.3781930  28.0450810  22.8193720  52.0441290
  23.7813670  19.2303470  51.4421840  23.5802730  18.3670830  51.8035180
  23.6105720  19.1436830  50.5043440  31.2601980  14.0411700  53.9708720
  31.5404270  13.1979600  54.3268140  30.4867710  14.2734810  54.4847470
  22.5796470  16.3304090  51.4299720  22.8822370  16.3371520  50.5218870
  23.3191060  15.9801950  51.9267380  25.7981400  15.2738710  52.4155920
  25.4503400  14.5962700  51.8358370  25.9994170  14.8128220  53.2299310
  27.9630440  30.2619460  54.0342520  28.8581230  30.6004430  54.0561280
  27.9948070  29.5398870  53.4066800  21.6026600  25.6346510  52.2629520
  22.0401470  26.1776180  52.9187100  22.0874330  24.8093460  52.2725860
  18.8172400  28.4235540  59.7149780  19.1475410  27.5556600  59.4828420
  19.2463400  28.6294060  60.5454740  23.4134320  26.7544550  57.3751750
  23.1129860  26.6309520  58.2755660  23.3071810  25.8953140  56.9667480
  19.3062610  29.2906130  62.4531410  18.8693600  29.4706930  63.2855560
  19.8740290  30.0480750  62.3113130  36.1826240  26.5340950  52.0778430
  35.3519200  26.6017600  52.5485660  36.3598070  27.4245070  51.7745290
  35.6382700  23.2788430  54.5812630  36.4001610  23.8485080  54.6872320
  35.6537070  22.7115630  55.3520940  19.1387040  21.8026360  58.8120290
  18.4835880  21.5338000  58.1679990  19.9764990  21.6930840  58.3622270
  36.6442670  24.1338530  59.4254560  37.0151500  23.3505850  59.0190530
  37.2844600  24.8227630  59.2471860  35.6901870  23.5722800  51.7385150
  35.9650710  24.4801680  51.6104370  35.5012610  23.5085330  52.6747140
  32.0877480  16.5967650  53.0338780  32.5062360  16.4098630  52.1935440
  31.7813540  15.7446700  53.3441710  35.5867210  21.5091790  56.7314580
  35.2110810  20.7419720  56.2995870  34.8570330  21.8914490  57.2189510
  18.3525120  19.0125290  54.7545620  17.4489200  19.2755490  54.5797280
  18.8365740  19.2836460  53.9745580  34.8618170  19.7349280  60.0321820
  35.3855650  19.2411930  59.4011990  35.4477590  19.8699640  60.7769390
  20.8952330  18.0690830  52.6640000  21.6044030  17.6474050  52.1787280
  20.1792270  18.1366060  52.0323350  20.5426490  14.1230160  51.7042650
  21.2654620  14.6639100  52.0223870  20.8151010  13.8493580  50.8284190
  34.3518140  18.9922630  55.9714230  34.8477260  18.7593500  56.7563110
  34.1534210  18.1534470  55.5551870  20.2318680  13.3736350  61.6065270
  20.8794870  12.8233730  61.1660430  20.6520520  13.6279500  62.4281080
  35.7805300  17.6283580  58.5051910  35.6704580  17.4739620  59.4434180
  36.5412890  17.1004520  58.2627320  36.6695570  15.4591500  51.7458050
  37.5944880  15.3272680  51.5376340  36.6471360  15.5384320  52.6994500
  36.7434060  16.2302160  54.3714760  35.9485560  16.1647280  54.9007670
  36.9477340  17.1652800  54.3600110  33.6852480  30.2693710  58.3653150
  34.2811550  29.9478280  57.6887570  33.9430630  29.7965530  59.1566420
  34.2364690  30.9189010  62.1950880  33.7767660  31.6704820  61.8208900
  33.6077150  30.1995480  62.1365680  24.6660410  29.2277250  61.3699010
  25.1825430  28.6164610  60.8447270  25.3157790  29.7306030  61.8610020
  27.4055910  30.1185740  62.1967990  27.6933720  29.8640040  61.3201000
  27.9179130  29.5663100  62.7873560  28.6232920  13.8575940  62.7764500
  27.8404710  14.3321440  63.0561260  28.3295850  12.9530770  62.6677680
  33.1753990  14.5599040  60.8213590  33.6162080  14.5044140  59.9735190
  32.9061580  15.4757050  60.8923770  35.0392560  14.1914280  58.8322410
  34.9780960  13.2475500  58.6853430  35.8184590  14.2994370  59.3775870
  19.3445310  30.3306640  57.7946360  19.1767350  29.6977320  58.4928250
  18.4779820  30.5366040  57.4440550  19.9673330  14.1623420  55.2978220
  20.7252690  14.2752300  54.7242250  19.5050500  14.9992620  55.2521650
  26.5087140  16.2762690  58.2880530  25.6961650  15.9019580  57.9476410
  27.0128780  15.5207770  58.5901720  31.0112120  12.9405140  59.5263600
  31.6141490  13.5125350  60.0012120  30.2705110  13.5044580  59.3037500
  34.1546720  13.3426700  54.8003880  34.3497350  14.2410150  55.0671310
  33.3676590  13.1113780  55.2936830  20.9508010  29.0239870  55.2396500
  20.4255630  29.4047900  54.5358460  20.8752590  29.6490640  55.9606210
  22.3398480  14.6887470  53.8380190  22.8691240  13.9017270  53.7088140
  22.9726800  15.3678660  54.0715720  24.5336320  14.4262610  56.8925580
  23.9039060  13.7249920  57.0595710  23.9941460  15.1866740  56.6758740
  35.7073330  30.5827410  56.5610440  35.8825520  29.8965150  55.9171360
  35.0094900  31.1074460  56.1687110  23.5500980  30.9722250  54.1145750
  24.2819800  30.6881530  53.5669640  23.8094650  30.7335530  55.0045130
  22.7115770  27.0886980  54.1192080  22.0824650  27.5572080  54.6677910
  22.8263600  26.2436200  54.5538270  22.3149360  23.2291470  43.0278310
  21.4834240  22.9740180  43.4274820  22.9230340  23.3002240  43.7636230
  22.2950620  27.2631560  43.2236330  22.5978660  26.3729300  43.0446550
  23.0394210  27.8201780  42.9958580  20.7241310  18.1893360  36.8120700
  19.8358010  18.5309330  36.7100580  21.0082500  17.9893680  35.9201530
  18.6874320  20.7899010  42.6960400  19.2590430  20.0221210  42.6964040
  18.6875860  21.0887770  41.7867010  28.5454270  29.6089860  40.5505670
  27.9265710  30.0647360  39.9800110  29.4006050  29.7641320  40.1495370
  19.9299190  16.1983370  44.4829330  19.7502030  15.3009120  44.7632090
  19.5279270  16.7455240  45.1576280  28.7697690  18.3999230  42.3841640
  29.1462510  17.5271110  42.2715310  28.6717200  18.7357930  41.4932080
  22.9002700  16.7724860  37.8459080  23.0069450  17.6728590  38.1527840
  21.9895060  16.7242830  37.5553730  32.5521810  15.8949670  39.3169980
  33.3731430  15.4046240  39.3595460  32.5855890  16.4847330  40.0701820
  20.5485860  18.6943870  43.0911670  21.2295970  18.9582240  43.7099070
  20.2333910  17.8544740  43.4249680  24.7410430  19.7411230  42.1784260
  25.2488650  20.2392200  42.8189280  25.2723670  18.9646430  42.0023620
  36.8421360  17.9116420  45.8813610  36.1373530  18.2998130  45.3628720
  37.1079280  18.6066710  46.4834540  23.0246530  14.3809790  46.4447680
  23.0264970  14.8982180  45.6393580  22.1950840  13.9039970  46.4217610
  24.2749380  24.0204970  44.6221180  23.9418760  24.6473890  45.2642250
  24.4516060  24.5466850  43.8422850  32.7883290  17.8350050  42.0897520
  32.0838860  18.1234940  42.6700630  33.1495450  18.6450160  41.7297080
  22.7061860  16.0919750  44.4518130  23.0478670  16.9361800  44.1572000
  21.7677670  16.2403490  44.5683470  23.4868480  25.9885770  46.4370360
  24.1042480  26.6636850  46.1554810  22.6261600  26.3973750  46.3457860
  18.7800820  25.1785630  35.3177210  18.4028800  25.6672730  34.5862110
  19.0373890  25.8510910  35.9483740  34.4046070  27.4525180  44.3525000
  33.7209590  28.1224290  44.3441670  34.9440360  27.6505830  43.5869860
  35.8570210  17.2804840  42.4806730  34.9095120  17.3143820  42.6122160
  36.1820200  18.0943790  42.8656090  26.3889750  13.5802020  40.7762720
  26.6964730  13.0248910  40.0598220  25.4590450  13.7146480  40.5935710
  31.9404810  29.2969310  43.0670180  31.9531970  28.8931600  42.1992440
  31.3880030  30.0716600  42.9631610  28.7639590  17.9167850  34.5090000
  27.8243260  18.0781810  34.5942460  29.0822850  18.6353530  33.9625990
  35.2852350  22.5986370  44.4869030  34.4570980  22.6679460  44.0119160
  35.8802830  23.1840680  44.0184860  32.2494360  19.3855690  45.4323900
  31.8365540  20.2109400  45.6863890  31.5170310  18.8000730  45.2400260
  24.3827150  22.1715590  40.2942570  23.9784150  21.4592840  39.7988470
  24.4690270  21.8268830  41.1830610  24.8508850  25.8583150  42.4581780
  24.5537140  25.2528620  41.7789560  25.8008670  25.8960460  42.3471140
  23.0955770  18.9458800  44.0741610  23.6470360  19.0554140  43.2994860
  23.6099280  19.3196400  44.7896840  32.9394460  29.4315020  46.1204880
  32.4625020  30.2387210  45.9277490  32.2556250  28.7793350  46.2731090
  23.9427280  25.5964840  49.1089580  23.0455810  25.8204810  49.3562980
  23.9680150  25.7199780  48.1600980  22.7698500  22.4678160  47.6846950
  22.6306270  23.3400960  48.0534350  21.8879860  22.1250970  47.5394890
  24.5678850  28.4099860  49.8932100  24.5394280  28.8142810  49.0260530
  24.4043820  27.4810220  49.7303700  34.5649640  13.7000770  33.3371880
  34.2522300  13.7927600  34.2370950  35.3262110  14.2781800  33.2869310
  21.0831780  21.0660570  37.7949220  20.9629380  21.7922660  37.1830490
  20.7732670  20.2963480  37.3177130  36.5193670  29.1926960  51.1896270
  36.9953390  29.6709850  51.8685350  37.1400830  29.1244450  50.4641770
  18.7217150  24.2375710  43.6017860  18.7997570  24.3724480  42.6573580
  19.3358830  23.5291600  43.7945980  19.9664780  25.9375900  40.0124040
  19.5592860  26.0790490  39.1577640  20.8577790  25.6536060  39.8095250
  35.9226920  26.3839810  48.3496280  36.0489980  26.1451690  47.4313460
  35.9648300  25.5524350  48.8218360  29.7843660  30.0867810  46.9191090
  30.2988330  29.9975820  47.7213520  28.9412740  30.4327510  47.2119000
  24.2386440  30.1521680  38.1246710  24.0628920  29.2357220  37.9114510
  23.3842180  30.5108970  38.3644510  35.7750930  18.4372270  49.3146020
  35.1595200  18.9451940  48.7861480  35.4547350  17.5370600  49.2571960
  18.7776670  25.2789880  46.1412320  18.9407710  24.8095240  45.3231690
  19.2429120  24.7713440  46.8061160  23.5495440  14.4095640  41.1772890
  23.1063590  15.1905180  40.8457410  24.1080430  14.7325530  41.8843830
  27.8365250  17.2764160  46.7808210  27.3744620  17.4847180  47.5928150
  27.4343360  16.4623510  46.4778880  32.8369760  18.4973110  47.9104870
  31.9863350  18.1978860  48.2313940  32.6771550  18.7415120  46.9988690
  29.9319470  19.9974860  50.0103660  30.2572880  19.1638610  49.6705890
  30.7199800  20.5203380  50.1581990  26.6654260  14.0306340  36.0578720
  26.0408440  14.0266210  36.7832030  26.5784380  13.1637300  35.6614690
  25.5871340  14.9542970  43.0362490  25.8843670  15.8605800  42.9554510
  26.1356900  14.4661750  42.4222060  23.3409660  19.5329210  38.9054140
  23.1150580  19.3166380  39.8100760  22.5602190  19.9657670  38.5600110
  30.5707420  19.5392580  37.5044790  29.9716310  20.2628380  37.3208410
  31.1187030  19.4769360  36.7221240  25.7808870  20.4314790  49.5714410
  25.6852470  19.4909520  49.4214810  26.6240850  20.6529860  49.1762480
  29.1772290  18.1756120  39.5348070  29.5701860  18.4928320  38.7216760
  29.5389140  17.2968000  39.6492590  20.9119410  16.8428460  47.7248190
  20.5182800  17.6903670  47.9320970  20.2237810  16.2054830  47.9156830
  27.4864460  16.9263430  50.7944930  26.7962780  16.7335630  51.4291020
  28.2296760  17.2098070  51.3269230  18.2136460  14.7656920  41.7578270
  17.9249510  15.3359780  42.4703250  18.9582220  14.2861370  42.1209500
  18.4006690  18.7077040  32.9680990  18.3181360  19.6507800  33.1095980
  18.0489750  18.5651950  32.0893340  29.7627430  20.7661870  43.6298850
  29.0308550  21.2748680  43.9788950  29.3651770  19.9491850  43.3287630
  26.2004820  17.4416070  42.0351340  26.2040880  17.0006020  41.1855880
  27.0955940  17.7633400  42.1423160  22.0507200  17.3242560  40.9945550
  21.7107250  17.8017790  41.7512600  21.2884520  16.8707680  40.6346650
  26.2624970  18.4428150  35.0258100  26.3837790  18.4014630  35.9743920
  25.8773480  19.3052300  34.8704830  30.2253340  16.2195550  43.0421790
  30.2426080  16.6704200  43.8863640  29.9768920  15.3201190  43.2555230
  25.2746470  20.7529290  34.4241400  24.7063370  20.3047540  33.7977310
  25.9835470  21.1122070  33.8906550  33.6524090  13.6327730  48.8808170
  33.9769860  12.9017390  49.4066150  33.6880600  13.3141370  47.9789160
  20.3515650  24.6541310  48.3008130  19.9670440  24.0134980  48.8991090
  20.6627840  25.3577430  48.8702860  26.5012790  21.5017850  43.7816750
  26.8682920  21.0276420  44.5278090  26.3117850  22.3759420  44.1225090
  19.3653280  16.2461540  39.9110220  19.0800200  15.8817210  40.7488840
  19.3032140  15.5142000  39.2973360  24.2912160  20.5426490  46.1000960
  23.9869230  21.4218470  46.3251320  25.2458620  20.6026280  46.1358400
  22.8193950  24.7487480  36.6967810  22.0456210  24.2085100  36.5366530
  23.5488580  24.2294090  36.3585570  29.0391870  15.1390800  36.6323590
  28.2256480  14.6403970  36.5568900  28.8453820  15.9789050  36.2159940
  28.9600730  23.8161900  48.3763200  28.8938040  22.8957570  48.1220790
  28.3305870  23.9137340  49.0907840  31.7540260  19.5110450  34.9285750
  32.6419880  19.8227680  34.7537090  31.7245350  18.6382700  34.5366330
  22.8631350  24.4167860  40.3346620  23.3810020  23.6136120  40.2803510
  22.4115370  24.3547000  41.1763450  20.3475890  21.3829230  47.2472320
  19.9890830  22.0483080  47.8345660  20.0530450  20.5512780  47.6184940
  23.5489010  21.8413470  50.1311870  23.2489150  21.9870650  49.2339690
  24.3200250  21.2818760  50.0385260  28.8917460  26.6382470  48.1267000
  28.9062000  25.7063430  47.9085910  28.1842560  26.7242230  48.7656770
  34.0254530  20.8222290  34.3965610  33.9418250  21.2536510  33.5462050
  34.7448720  21.2820640  34.8292430  35.1028670  23.2789810  47.4735580
  34.3776860  23.8718590  47.2764970  35.6304130  23.2713350  46.6748950
  26.7191540  25.7647670  38.3789840  27.4062670  26.3116880  38.7597430
  25.9323960  26.3088400  38.4139450  18.8583940  21.3820490  33.8706920
  19.7278790  21.6645290  34.1542840  18.3674260  22.1956360  33.7555730
  26.0218750  22.7693700  37.9915200  26.4781530  23.5798950  38.2175390
  25.6706960  22.4516840  38.8233690  28.3251360  28.2800040  45.2207500
  28.9693580  28.4859420  45.8980920  28.6880800  27.5188440  44.7678350
  21.9230530  13.1131350  38.4637720  21.7945160  13.1049250  39.4122640
  21.0992550  13.4514440  38.1128730  31.3721060  27.0827290  47.1421010
  31.7077300  27.6693980  47.8198930  30.4521400  26.9520000  47.3718800
  19.2255190  30.5947870  34.4368550  19.5852830  31.1937210  33.7825820
  19.0847530  31.1407760  35.2103580  18.9224460  14.8722470  47.9244420
  18.2082980  15.0719390  48.5297030  19.3419500  14.0962040  48.2959220
  19.2097050  28.8602730  48.9110950  19.3188170  27.9197470  48.7706340
  18.5577610  29.1257480  48.2624680  27.2009640  27.1318620  50.3109070
  26.8806510  26.4127860  50.8554760  26.5268000  27.8073690  50.3845130
  25.2423810  27.9779070  35.2542220  25.2333910  28.7108760  34.6386730
  24.3222170  27.7310650  35.3469180  20.8430450  23.1993960  35.9988980
  20.2358400  23.9392860  36.0084280  21.3179800  23.2893320  35.1727180
  30.4163240  17.3644780  45.6745870  30.7844060  16.5439990  46.0025440
  29.5561440  17.4246670  46.0901520  33.7825270  16.3201720  36.4833430
  33.1538430  16.4247390  35.7691660  33.2877190  16.5398500  37.2727310
  25.7509300  18.5987670  37.8991310  25.0425450  19.0674010  38.3404920
  26.0353780  17.9409680  38.5336500  27.3765230  20.0184370  45.8983840
  27.8750480  20.4930190  46.5635690  27.5188180  19.0947890  46.1053870
  29.7824730  15.3238330  39.3387100  29.6592510  15.3424460  38.3896610
  30.7309290  15.3717270  39.4585500  23.9544320  16.9072750  35.2742020
  24.8034850  17.3442900  35.2082210  23.5875590  17.2193010  36.1014080
  34.5832090  16.2352330  46.7412230  34.0805690  16.9757730  47.0806040
  35.3988750  16.6236330  46.4249020  22.8535740  23.1605110  33.7477550
  23.6199010  23.0486470  34.3102980  22.9310430  22.4643080  33.0954320
  21.5482500  20.5930180  34.4310440  21.6286090  19.6457690  34.5427840
  22.4402250  20.9237060  34.5371100  34.8779680  28.6494360  41.8627850
  35.0027100  29.4725530  42.3351660  35.7445240  28.4385090  41.5152000
  22.3497210  30.7425570  41.5344980  23.0859690  30.1941030  41.8053550
  22.7338130  31.6081580  41.3950970  19.2342690  26.8099140  37.4086490
  18.3082470  27.0520280  37.3991900  19.6999120  27.6373400  37.2871240
  21.3555490  29.9271640  50.7230560  22.1568220  30.2483690  51.1365960
  20.8407310  29.5667220  51.4450470  30.1920120  26.0351510  50.6705970
  29.5858280  26.0583110  49.9301720  29.8874230  25.3034550  51.2073220
  31.6220490  29.7631800  49.2815380  32.5742240  29.6789820  49.2315620
  31.4748710  30.4273510  49.9549170  19.0753300  22.4145100  49.6666610
  19.5792320  21.8352380  50.2382840  18.3360720  22.6985330  50.2042980
  26.1291240  23.8216090  49.2002130  25.3636910  24.3901090  49.1156800
  26.3107200  23.5292300  48.3070360  33.2714590  25.5521420  49.7577150
  34.0124060  25.8897180  49.2544610  32.5087270  25.7213480  49.2046920
  21.1076380  20.5574690  50.5616680  21.1481720  20.2588560  51.4701910
  21.9621880  20.9582300  50.4024200  24.8854770  23.1570240  35.7220190
  25.3071190  22.9910110  36.5651580  25.0105610  22.3470470  35.2275330
  23.0482190  19.1366790  48.5291170  22.5178650  18.6457740  47.9014510
  23.7170260  19.5650990  47.9949100  31.9460250  23.6036250  48.2932360
  32.3601270  23.7581330  49.1422780  31.0111250  23.7291470  48.4558140
  32.4182420  20.9432410  50.2971510  33.0003190  20.1884730  50.2091990
  32.5944190  21.4739850  49.5202990  23.5354490  16.1029160  48.6088460
  23.4411360  15.4849910  47.8839330  22.9551880  16.8295450  48.3818370
  26.3015930  14.6602400  45.6415850  25.8533230  14.6826660  44.7961400
  25.6681130  14.2621420  46.2386150  26.7075480  23.5556730  46.2628290
  27.1263590  24.3989460  46.0904530  25.7884110  23.6928770  46.0335070
  29.0439380  21.2872910  47.6466130  29.1635590  20.6914050  48.3860970
  29.9033380  21.3242600  47.2267430  31.3827280  21.8410100  46.2228640
  30.8562500  22.3652720  45.6193780  31.7258620  22.4737490  46.8538370
  23.7813670  19.2303470  32.6678350  23.5802730  18.3670830  33.0291690
  23.6105720  19.1436830  31.7299950  24.5582900  29.8609740  47.3786020
  24.0203990  30.5855800  47.0594720  24.8116860  29.3840080  46.5883360
  25.8108150  17.8294260  48.9041950  26.4007840  17.5210110  49.5919770
  24.9928390  17.3574010  49.0601850  30.6301580  17.4460070  49.1374970
  29.9417100  16.7841610  49.0724960  31.3507600  16.9998340  49.5823430
  31.2601980  14.0411700  35.1965230  31.5404270  13.1979600  35.5524650
  30.4867710  14.2734810  35.7103980  22.5796470  16.3304090  32.6556230
  22.8822370  16.3371520  31.7475380  23.3191060  15.9801950  33.1523890
  27.4145110  31.0960950  47.6372670  27.3403810  31.9996090  47.9445040
  26.5123950  30.7772850  47.6094740  25.7981400  15.2738710  33.6412430
  25.4503400  14.5962700  33.0614880  25.9994170  14.8128220  34.4555820
  21.6026600  25.6346510  33.4886030  22.0401470  26.1776180  34.1443610
  22.0874330  24.8093460  33.4982370  18.8172400  28.4235540  40.9406290
  19.1475410  27.5556600  40.7084930  19.2463400  28.6294060  41.7711250
  23.4134320  26.7544550  38.6008260  23.1129860  26.6309520  39.5012170
  23.3071810  25.8953140  38.1923990  19.3062610  29.2906130  43.6787920
  18.8693600  29.4706930  44.5112070  19.8740290  30.0480750  43.5369640
  34.9424790  28.7923130  47.9665230  34.3426780  28.8515690  47.2229150
  35.0718690  27.8528110  48.0962080  19.1387040  21.8026360  40.0376800
  18.4835880  21.5338000  39.3936500  19.9764990  21.6930840  39.5878780
  33.6276430  25.5175110  46.0641390  32.8136270  25.9472270  46.3267180
  34.0350630  26.1293520  45.4510440  32.0877480  16.5967650  34.2595290
  32.5062360  16.4098630  33.4191950  31.7813540  15.7446700  34.5698220
  20.1762970  22.1878930  44.5780140  20.5436010  22.1006330  45.4576160
  19.6073790  21.4245480  44.4787000  34.9766830  20.6563310  47.5910610
  34.7452920  20.4276060  46.6908560  35.2371380  21.5762860  47.5455500
  19.7278970  19.0988020  48.4838560  18.8335020  19.0654780  48.8232270
  20.2676520  19.2974810  49.2489810  33.4154900  15.8819740  50.3690310
  34.2925080  15.8903140  50.7524310  33.4275740  15.1450580  49.7582660
  18.3525120  19.0125290  35.9802130  17.4489200  19.2755490  35.8053790
  18.8365740  19.2836460  35.2002090  34.8618170  19.7349280  41.2578330
  35.3855650  19.2411930  40.6268500  35.4477590  19.8699640  42.0025900
  35.0407890  19.8189150  44.7797880  34.0910600  19.7852690  44.8942870
  35.2220900  20.7289260  44.5447650  20.8952330  18.0690830  33.8896510
  21.6044030  17.6474050  33.4043790  20.1792270  18.1366060  33.2579860
  20.5426490  14.1230160  32.9299160  21.2654620  14.6639100  33.2480380
  20.8151010  13.8493580  32.0540700  34.3518140  18.9922630  37.1970740
  34.8477260  18.7593500  37.9819620  34.1534210  18.1534470  36.7808380
  20.2318680  13.3736350  42.8321780  20.8794870  12.8233730  42.3916940
  20.6520520  13.6279500  43.6537590  35.7805300  17.6283580  39.7308420
  35.6704580  17.4739620  40.6690690  36.5412890  17.1004520  39.4883830
  34.1271020  13.5677710  46.1891420  34.7643240  14.1811850  46.5550610
  34.2745910  13.6038370  45.2440650  36.6695570  15.4591500  32.9714560
  37.5944880  15.3272680  32.7632850  36.6471360  15.5384320  33.9251010
  36.7434060  16.2302160  35.5971270  35.9485560  16.1647280  36.1264180
  36.9477340  17.1652800  35.5856620  19.9850680  13.5292020  45.5747100
  19.6365500  13.9855840  46.3405280  19.6538380  12.6349150  45.6569530
  21.5915050  26.7011620  49.7400290  21.5484680  26.3304530  50.6214750
  21.7226060  27.6389190  49.8802110  25.2921080  28.2571210  45.3410010
  25.0512440  28.5245770  44.4540530  26.2323720  28.4276940  45.3960870
  27.4975500  14.7203900  49.0966520  27.4364390  15.3125730  49.8461930
  28.4375880  14.6129860  48.9516780  30.1350060  14.3773960  48.7358810
  30.7490470  14.6953250  48.0739890  30.6799620  13.8922550  49.3554670
  36.5525240  30.2765590  46.1420650  36.0583520  30.6734460  45.4247780
  35.9438530  29.6514800  46.5357930  20.6571320  13.0568220  48.8497870
  21.2054310  12.8756270  48.0863980  20.7226630  12.2662330  49.3854180
  21.4303080  29.6473870  46.8598070  20.8363400  29.5158570  47.5988110
  21.4226920  28.8112010  46.3940170  30.8758100  12.9406100  45.0628100
  30.0017940  13.2741210  44.8601030  30.7668850  12.4679280  45.8879970
  31.7830080  15.1476970  46.4469820  31.4543440  14.3328730  46.0671550
  32.7312380  15.1046780  46.3235510  34.2364690  30.9189010  43.4207390
  33.7767660  31.6704820  43.0465410  33.6077150  30.1995480  43.3622190
  21.0615310  27.0132250  45.8106110  20.3349370  26.3937540  45.7432060
  21.1224460  27.4072860  44.9404190  24.6660410  29.2277250  42.5955520
  25.1825430  28.6164610  42.0703780  25.3157790  29.7306030  43.0866530
  27.4055910  30.1185740  43.4224500  27.6933720  29.8640040  42.5457510
  27.9179130  29.5663100  44.0130070  28.6232920  13.8575940  44.0021010
  27.8404710  14.3321440  44.2817770  28.3295850  12.9530770  43.8934190
  33.1753990  14.5599040  42.0470100  33.6162080  14.5044140  41.1991700
  32.9061580  15.4757050  42.1180280  35.0392560  14.1914280  40.0578920
  34.9780960  13.2475500  39.9109940  35.8184590  14.2994370  40.6032380
  19.3445310  30.3306640  39.0202870  19.1767350  29.6977320  39.7184760
  18.4779820  30.5366040  38.6697060  19.9673330  14.1623420  36.5234730
  20.7252690  14.2752300  35.9498760  19.5050500  14.9992620  36.4778160
  26.5087140  16.2762690  39.5137040  25.6961650  15.9019580  39.1732920
  27.0128780  15.5207770  39.8158230  31.0112120  12.9405140  40.7520110
  31.6141490  13.5125350  41.2268630  30.2705110  13.5044580  40.5294010
  34.1546720  13.3426700  36.0260390  34.3497350  14.2410150  36.2927820
  33.3676590  13.1113780  36.5193340  20.9508010  29.0239870  36.4653010
  20.4255630  29.4047900  35.7614970  20.8752590  29.6490640  37.1862720
  22.3398480  14.6887470  35.0636700  22.8691240  13.9017270  34.9344650
  22.9726800  15.3678660  35.2972230  24.5336320  14.4262610  38.1182090
  23.9039060  13.7249920  38.2852220  23.9941460  15.1866740  37.9015250
  27.4728270  31.0401840  50.7892700  28.3995580  30.8046110  50.8328660
  27.4578700  31.8673840  50.3078730  24.6591880  13.7046590  50.5534580
  24.3776150  14.2080190  49.7895400  25.0411580  12.9068340  50.1876710
  23.5500980  30.9722250  35.3402260  24.2819800  30.6881530  34.7926150
  23.8094650  30.7335530  36.2301640  22.7115770  27.0886980  35.3448590
  22.0824650  27.5572080  35.8934420  22.8263600  26.2436200  35.7794780
  31.2607340  13.1200170  51.1315050  31.1472790  13.4394780  52.0266570
  32.0777080  13.5212680  50.8352330  34.0405830  30.2671700  50.6133740
  34.8331150  29.7720930  50.4059700  34.3338980  30.9461840  51.2209350
  30.1665490  21.1392640  21.4949790  30.0859540  20.2247250  21.2241500
  29.7529910  21.6359710  20.7889500  28.2983530  22.9171660  23.3759060
  27.5225630  22.4372100  23.6657630  28.9496460  22.2377310  23.2015220
  22.3149360  23.2291470  24.2534820  21.4834240  22.9740180  24.6531330
  22.9230340  23.3002240  24.9892740  32.3190960  27.3231850  22.1558190
  31.8572490  26.5519090  22.4845360  33.1316510  27.3497920  22.6610640
  22.2950620  27.2631560  24.4492840  22.5978660  26.3729300  24.2703060
  23.0394210  27.8201780  24.2215090  20.7241310  18.1893360  18.0377210
  19.8358010  18.5309330  17.9357090  21.0082500  17.9893680  17.1458040
  18.6874320  20.7899010  23.9216910  19.2590430  20.0221210  23.9220550
  18.6875860  21.0887770  23.0123520  28.5454270  29.6089860  21.7762180
  27.9265710  30.0647360  21.2056620  29.4006050  29.7641320  21.3751880
  27.7392520  25.5928850  23.3829220  27.6700800  24.6518790  23.2218350
  28.5012380  25.6830260  23.9551790  19.9299190  16.1983370  25.7085840
  19.7502030  15.3009120  25.9888600  19.5279270  16.7455240  26.3832790
  28.7697690  18.3999230  23.6098150  29.1462510  17.5271110  23.4971820
  28.6717200  18.7357930  22.7188590  22.9002700  16.7724860  19.0715590
  23.0069450  17.6728590  19.3784350  21.9895060  16.7242830  18.7810240
  32.5521810  15.8949670  20.5426490  33.3731430  15.4046240  20.5851970
  32.5855890  16.4847330  21.2958330  20.5485860  18.6943870  24.3168180
  21.2295970  18.9582240  24.9355580  20.2333910  17.8544740  24.6506190
  24.7410430  19.7411230  23.4040770  25.2488650  20.2392200  24.0445790
  25.2723670  18.9646430  23.2280130  36.8421360  17.9116420  27.1070120
  36.1373530  18.2998130  26.5885230  37.1079280  18.6066710  27.7091050
  23.0246530  14.3809790  27.6704190  23.0264970  14.8982180  26.8650090
  22.1950840  13.9039970  27.6474120  29.4117620  24.4929100  19.1694090
  28.7934890  24.9578550  18.6056810  29.9240870  25.1856580  19.5863600
  24.2749380  24.0204970  25.8477690  23.9418760  24.6473890  26.4898760
  24.4516060  24.5466850  25.0679360  32.7883290  17.8350050  23.3154030
  32.0838860  18.1234940  23.8957140  33.1495450  18.6450160  22.9553590
  22.7061860  16.0919750  25.6774640  23.0478670  16.9361800  25.3828510
  21.7677670  16.2403490  25.7939980  23.4868480  25.9885770  27.6626870
  24.1042480  26.6636850  27.3811320  22.6261600  26.3973750  27.5714370
  18.7800820  25.1785630  16.5433720  18.4028800  25.6672730  15.8118620
  19.0373890  25.8510910  17.1740250  35.8570210  17.2804840  23.7063240
  34.9095120  17.3143820  23.8378670  36.1820200  18.0943790  24.0912600
  26.3889750  13.5802020  22.0019230  26.6964730  13.0248910  21.2854730
  25.4590450  13.7146480  21.8192220  33.2350230  26.0185530  19.3816860
  33.1246560  25.0759860  19.5066280  33.2318480  26.3801170  20.2679620
  28.7770510  21.6450850  18.7379350  27.8499790  21.5788230  18.9667820
  28.9295330  22.5830980  18.6234590  28.7639590  17.9167850  15.7346510
  27.8243260  18.0781810  15.8198970  29.0822850  18.6353530  15.1882500
  32.8067800  23.2071150  19.2414600  32.1880220  22.8690700  18.5940900
  32.7892250  22.5630910  19.9493790  32.2494360  19.3855690  26.6580410
  31.8365540  20.2109400  26.9120400  31.5170310  18.8000730  26.4656770
  24.3827150  22.1715590  21.5199080  23.9784150  21.4592840  21.0244980
  24.4690270  21.8268830  22.4087120  24.8508850  25.8583150  23.6838290
  24.5537140  25.2528620  23.0046070  25.8008670  25.8960460  23.5727650
  23.0955770  18.9458800  25.2998120  23.6470360  19.0554140  24.5251370
  23.6099280  19.3196400  26.0153350  23.9427280  25.5964840  30.3346090
  23.0455810  25.8204810  30.5819490  23.9680150  25.7199780  29.3857490
  30.9832500  22.4457960  16.2487350  31.4225780  21.6080390  16.1025170
  31.6960920  23.0787360  16.3351490  22.7698500  22.4678160  28.9103460
  22.6306270  23.3400960  29.2790860  21.8879860  22.1250970  28.7651400
  29.0927880  27.3854030  20.2168590  29.5323790  28.1278360  19.8023980
  29.0314770  27.6280600  21.1407550  24.5678850  28.4099860  31.1188610
  24.5394280  28.8142810  30.2517040  24.4043820  27.4810220  30.9560210
  34.5649640  13.7000770  14.5628390  34.2522300  13.7927600  15.4627460
  35.3262110  14.2781800  14.5125820  21.0831780  21.0660570  19.0205730
  20.9629380  21.7922660  18.4087000  20.7732670  20.2963480  18.5433640
  18.7217150  24.2375710  24.8274370  18.7997570  24.3724480  23.8830090
  19.3358830  23.5291600  25.0202490  19.9664780  25.9375900  21.2380550
  19.5592860  26.0790490  20.3834150  20.8577790  25.6536060  21.0351760
  31.7598060  30.3723150  17.5731600  31.5999200  30.0826090  18.4713430
  31.5944770  29.5963280  17.0376830  24.2386440  30.1521680  19.3503220
  24.0628920  29.2357220  19.1371020  23.3842180  30.5108970  19.5901020
  31.4624190  27.8810710  16.1329600  30.7689350  27.8788000  15.4731880
  32.2047050  27.4570030  15.7023770  31.0274120  29.5073420  20.2078090
  31.4831070  28.7262800  20.5216710  31.3666640  30.2180240  20.7519270
  35.7750930  18.4372270  30.5402530  35.1595200  18.9451940  30.0117990
  35.4547350  17.5370600  30.4828470  18.7776670  25.2789880  27.3668830
  18.9407710  24.8095240  26.5488200  19.2429120  24.7713440  28.0317670
  23.5495440  14.4095640  22.4029400  23.1063590  15.1905180  22.0713920
  24.1080430  14.7325530  23.1100340  27.8365250  17.2764160  28.0064720
  27.3744620  17.4847180  28.8184660  27.4343360  16.4623510  27.7035390
  32.8369760  18.4973110  29.1361380  31.9863350  18.1978860  29.4570450
  32.6771550  18.7415120  28.2245200  29.9319470  19.9974860  31.2360170
  30.2572880  19.1638610  30.8962400  30.7199800  20.5203380  31.3838500
  26.6654260  14.0306340  17.2835230  26.0408440  14.0266210  18.0088540
  26.5784380  13.1637300  16.8871200  25.5871340  14.9542970  24.2619000
  25.8843670  15.8605800  24.1811020  26.1356900  14.4661750  23.6478570
  23.3409660  19.5329210  20.1310650  23.1150580  19.3166380  21.0357270
  22.5602190  19.9657670  19.7856620  30.5707420  19.5392580  18.7301300
  29.9716310  20.2628380  18.5464920  31.1187030  19.4769360  17.9477750
  25.7808870  20.4314790  30.7970920  25.6852470  19.4909520  30.6471320
  26.6240850  20.6529860  30.4018990  29.1772290  18.1756120  20.7604580
  29.5701860  18.4928320  19.9473270  29.5389140  17.2968000  20.8749100
  20.9119410  16.8428460  28.9504700  20.5182800  17.6903670  29.1577480
  20.2237810  16.2054830  29.1413340  27.4864460  16.9263430  32.0201440
  26.7962780  16.7335630  32.6547530  28.2296760  17.2098070  32.5525740
  18.2136460  14.7656920  22.9834780  17.9249510  15.3359780  23.6959760
  18.9582220  14.2861370  23.3466010  18.4006690  18.7077040  14.1937500
  18.3181360  19.6507800  14.3352490  18.0489750  18.5651950  13.3149850
  29.7627430  20.7661870  24.8555360  29.0308550  21.2748680  25.2045460
  29.3651770  19.9491850  24.5544140  26.2004820  17.4416070  23.2607850
  26.2040880  17.0006020  22.4112390  27.0955940  17.7633400  23.3679670
  22.0507200  17.3242560  22.2202060  21.7107250  17.8017790  22.9769110
  21.2884520  16.8707680  21.8603160  26.2624970  18.4428150  16.2514610
  26.3837790  18.4014630  17.2000430  25.8773480  19.3052300  16.0961340
  30.2253340  16.2195550  24.2678300  30.2426080  16.6704200  25.1120150
  29.9768920  15.3201190  24.4811740  25.2746470  20.7529290  15.6497910
  24.7063370  20.3047540  15.0233820  25.9835470  21.1122070  15.1163060
  33.6524090  13.6327730  30.1064680  33.9769860  12.9017390  30.6322660
  33.6880600  13.3141370  29.2045670  20.3515650  24.6541310  29.5264640
  19.9670440  24.0134980  30.1247600  20.6627840  25.3577430  30.0959370
  26.5012790  21.5017850  25.0073260  26.8682920  21.0276420  25.7534600
  26.3117850  22.3759420  25.3481600  19.3653280  16.2461540  21.1366730
  19.0800200  15.8817210  21.9745350  19.3032140  15.5142000  20.5229870
  24.2912160  20.5426490  27.3257470  23.9869230  21.4218470  27.5507830
  25.2458620  20.6026280  27.3614910  22.8193950  24.7487480  17.9224320
  22.0456210  24.2085100  17.7623040  23.5488580  24.2294090  17.5842080
  33.5781930  23.7452840  23.7150710  34.2981050  24.2408130  23.3246820
  33.3763750  23.0670730  23.0704580  29.0391870  15.1390800  17.8580100
  28.2256480  14.6403970  17.7825410  28.8453820  15.9789050  17.4416450
  31.7540260  19.5110450  16.1542260  32.6419880  19.8227680  15.9793600
  31.7245350  18.6382700  15.7622840  22.8631350  24.4167860  21.5603130
  23.3810020  23.6136120  21.5060020  22.4115370  24.3547000  22.4019960
  27.7500850  25.6834140  16.8330430  28.0916550  26.4276370  16.3373750
  26.9213560  25.9965260  17.1955260  20.3475890  21.3829230  28.4728830
  19.9890830  22.0483080  29.0602170  20.0530450  20.5512780  28.8441450
  23.5489010  21.8413470  31.3568380  23.2489150  21.9870650  30.4596200
  24.3200250  21.2818760  31.2641770  34.0254530  20.8222290  15.6222120
  33.9418250  21.2536510  14.7718560  34.7448720  21.2820640  16.0548940
  35.0541780  27.6764550  18.3504250  34.4117940  27.0220170  18.6247970
  34.6672440  28.0819640  17.5744920  30.6328260  25.0049980  22.1975940
  30.9852080  24.4078110  21.5377310  29.7490590  24.6794210  22.3684190
  26.7191540  25.7647670  19.6046350  27.4062670  26.3116880  19.9853940
  25.9323960  26.3088400  19.6395960  18.8583940  21.3820490  15.0963430
  19.7278790  21.6645290  15.3799350  18.3674260  22.1956360  14.9812240
  26.0218750  22.7693700  19.2171710  26.4781530  23.5798950  19.4431900
  25.6706960  22.4516840  20.0490200  21.9230530  13.1131350  19.6894230
  21.7945160  13.1049250  20.6379150  21.0992550  13.4514440  19.3385240
  33.4439160  26.5681010  14.8880600  33.2176740  25.8511450  15.4805240
  33.0535360  26.3193450  14.0502350  19.2255190  30.5947870  15.6625060
  19.5852830  31.1937210  15.0082330  19.0847530  31.1407760  16.4360090
  18.9224460  14.8722470  29.1500930  18.2082980  15.0719390  29.7553540
  19.3419500  14.0962040  29.5215730  33.0255410  24.4852950  16.5494760
  32.7377110  24.9465640  17.3372640  33.8207580  24.0250720  16.8178980
  19.2097050  28.8602730  30.1367460  19.3188170  27.9197470  29.9962850
  18.5577610  29.1257480  29.4881190  25.2423810  27.9779070  16.4798730
  25.2333910  28.7108760  15.8643240  24.3222170  27.7310650  16.5725690
  20.8430450  23.1993960  17.2245490  20.2358400  23.9392860  17.2340790
  21.3179800  23.2893320  16.3983690  30.4163240  17.3644780  26.9002380
  30.7844060  16.5439990  27.2281950  29.5561440  17.4246670  27.3158030
  33.7825270  16.3201720  17.7089940  33.1538430  16.4247390  16.9948170
  33.2877190  16.5398500  18.4983820  28.2283410  28.0407310  15.1423920
  28.3295390  27.8371300  14.2125900  27.3285150  27.7865590  15.3471700
  25.7509300  18.5987670  19.1247820  25.0425450  19.0674010  19.5661430
  26.0353780  17.9409680  19.7593010  27.3765230  20.0184370  27.1240350
  27.8750480  20.4930190  27.7892200  27.5188180  19.0947890  27.3310380
  29.7824730  15.3238330  20.5643610  29.6592510  15.3424460  19.6153120
  30.7309290  15.3717270  20.6842010  26.8701520  30.5593630  19.8371590
  27.1243020  30.5215020  18.9150960  25.9214000  30.4326960  19.8299840
  23.9544320  16.9072750  16.4998530  24.8034850  17.3442900  16.4338720
  23.5875590  17.2193010  17.3270590  34.5832090  16.2352330  27.9668740
  34.0805690  16.9757730  28.3062550  35.3988750  16.6236330  27.6505530
  32.8754100  21.4785510  21.4130100  31.9344240  21.4935740  21.5877790
  33.1898170  20.6921470  21.8590400  22.8535740  23.1605110  14.9734060
  23.6199010  23.0486470  15.5359490  22.9310430  22.4643080  14.3210830
  21.5482500  20.5930180  15.6566950  21.6286090  19.6457690  15.7684350
  22.4402250  20.9237060  15.7627610  34.8779680  28.6494360  23.0884360
  35.0027100  29.4725530  23.5608170  35.7445240  28.4385090  22.7408510
  22.3497210  30.7425570  22.7601490  23.0859690  30.1941030  23.0310060
  22.7338130  31.6081580  22.6207480  19.2342690  26.8099140  18.6343000
  18.3082470  27.0520280  18.6248410  19.6999120  27.6373400  18.5127750
  21.3555490  29.9271640  31.9487070  22.1568220  30.2483690  32.3622470
  20.8407310  29.5667220  32.6706980  25.4599520  29.9155880  14.5827060
  26.2528130  30.2044710  14.1308850  24.9403870  29.4848050  13.9039540
  34.5129690  29.1426010  16.0063800  34.2271200  28.7291150  15.1917980
  34.3149240  30.0713720  15.8864320  19.0753300  22.4145100  30.8923120
  19.5792320  21.8352380  31.4639350  18.3360720  22.6985330  31.4299490
  25.9776920  25.1359290  14.4469410  25.8727560  24.5211640  15.1730790
  25.8101140  24.6125180  13.6632420  29.2179650  24.1979320  15.0511400
  28.6689750  24.6448620  15.6954140  29.8398910  23.6928570  15.5749070
  21.1076380  20.5574690  31.7873190  21.1481720  20.2588560  32.6958420
  21.9621880  20.9582300  31.6280710  24.8854770  23.1570240  16.9476700
  25.3071190  22.9910110  17.7908090  25.0105610  22.3470470  16.4531840
  23.0482190  19.1366790  29.7547680  22.5178650  18.6457740  29.1271020
  23.7170260  19.5650990  29.2205610  27.3982410  22.1807850  14.1953800
  27.9188070  21.4656870  13.8294950  28.0450810  22.8193720  14.4954310
  32.4182420  20.9432410  31.5228020  33.0003190  20.1884730  31.4348500
  32.5944190  21.4739850  30.7459500  23.5354490  16.1029160  29.8344970
  23.4411360  15.4849910  29.1095840  22.9551880  16.8295450  29.6074880
  26.3015930  14.6602400  26.8672360  25.8533230  14.6826660  26.0217910
  25.6681130  14.2621420  27.4642660  26.7075480  23.5556730  27.4884800
  27.1263590  24.3989460  27.3161040  25.7884110  23.6928770  27.2591580
  29.0439380  21.2872910  28.8722640  29.1635590  20.6914050  29.6117480
  29.9033380  21.3242600  28.4523940  23.7813670  19.2303470  13.8934860
  23.5802730  18.3670830  14.2548200  23.6105720  19.1436830  12.9556460
  24.5582900  29.8609740  28.6042530  24.0203990  30.5855800  28.2851230
  24.8116860  29.3840080  27.8139870  25.8108150  17.8294260  30.1298460
  26.4007840  17.5210110  30.8176280  24.9928390  17.3574010  30.2858360
  30.6301580  17.4460070  30.3631480  29.9417100  16.7841610  30.2981470
  31.3507600  16.9998340  30.8079940  31.2601980  14.0411700  16.4221740
  31.5404270  13.1979600  16.7781160  30.4867710  14.2734810  16.9360490
  22.5796470  16.3304090  13.8812740  22.8822370  16.3371520  12.9731890
  23.3191060  15.9801950  14.3780400  25.7981400  15.2738710  14.8668940
  25.4503400  14.5962700  14.2871390  25.9994170  14.8128220  15.6812330
  27.9630440  30.2619460  16.4855540  28.8581230  30.6004430  16.5074300
  27.9948070  29.5398870  15.8579820  21.6026600  25.6346510  14.7142540
  22.0401470  26.1776180  15.3700120  22.0874330  24.8093460  14.7238880
  18.8172400  28.4235540  22.1662800  19.1475410  27.5556600  21.9341440
  19.2463400  28.6294060  22.9967760  23.4134320  26.7544550  19.8264770
  23.1129860  26.6309520  20.7268680  23.3071810  25.8953140  19.4180500
  19.3062610  29.2906130  24.9044430  18.8693600  29.4706930  25.7368580
  19.8740290  30.0480750  24.7626150  36.1826240  26.5340950  14.5291450
  35.3519200  26.6017600  14.9998680  36.3598070  27.4245070  14.2258310
  35.6382700  23.2788430  17.0325650  36.4001610  23.8485080  17.1385340
  35.6537070  22.7115630  17.8033960  19.1387040  21.8026360  21.2633310
  18.4835880  21.5338000  20.6193010  19.9764990  21.6930840  20.8135290
  36.6442670  24.1338530  21.8767580  37.0151500  23.3505850  21.4703550
  37.2844600  24.8227630  21.6984880  35.6901870  23.5722800  14.1898170
  35.9650710  24.4801680  14.0617390  35.5012610  23.5085330  15.1260160
  32.0877480  16.5967650  15.4851800  32.5062360  16.4098630  14.6448460
  31.7813540  15.7446700  15.7954730  35.5867210  21.5091790  19.1827600
  35.2110810  20.7419720  18.7508890  34.8570330  21.8914490  19.6702530
  20.1762970  22.1878930  25.8036650  20.5436010  22.1006330  26.6832670
  19.6073790  21.4245480  25.7043510  19.7278970  19.0988020  29.7095070
  18.8335020  19.0654780  30.0488780  20.2676520  19.2974810  30.4746320
  33.4154900  15.8819740  31.5946820  34.2925080  15.8903140  31.9780820
  33.4275740  15.1450580  30.9839170  18.3525120  19.0125290  17.2058640
  17.4489200  19.2755490  17.0310300  18.8365740  19.2836460  16.4258600
  34.8618170  19.7349280  22.4834840  35.3855650  19.2411930  21.8525010
  35.4477590  19.8699640  23.2282410  35.0407890  19.8189150  26.0054390
  34.0910600  19.7852690  26.1199380  35.2220900  20.7289260  25.7704160
  20.8952330  18.0690830  15.1153020  21.6044030  17.6474050  14.6300300
  20.1792270  18.1366060  14.4836370  20.5426490  14.1230160  14.1555670
  21.2654620  14.6639100  14.4736890  20.8151010  13.8493580  13.2797210
  34.3518140  18.9922630  18.4227250  34.8477260  18.7593500  19.2076130
  34.1534210  18.1534470  18.0064890  20.2318680  13.3736350  24.0578290
  20.8794870  12.8233730  23.6173450  20.6520520  13.6279500  24.8794100
  35.7805300  17.6283580  20.9564930  35.6704580  17.4739620  21.8947200
  36.5412890  17.1004520  20.7140340  34.1271020  13.5677710  27.4147930
  34.7643240  14.1811850  27.7807120  34.2745910  13.6038370  26.4697160
  36.6695570  15.4591500  14.1971070  37.5944880  15.3272680  13.9889360
  36.6471360  15.5384320  15.1507520  36.7434060  16.2302160  16.8227780
  35.9485560  16.1647280  17.3520690  36.9477340  17.1652800  16.8113130
  33.6852480  30.2693710  20.8166170  34.2811550  29.9478280  20.1400590
  33.9430630  29.7965530  21.6079440  19.9850680  13.5292020  26.8003610
  19.6365500  13.9855840  27.5661790  19.6538380  12.6349150  26.8826040
  21.5915050  26.7011620  30.9656800  21.5484680  26.3304530  31.8471260
  21.7226060  27.6389190  31.1058620  25.2921080  28.2571210  26.5666520
  25.0512440  28.5245770  25.6797040  26.2323720  28.4276940  26.6217380
  27.4975500  14.7203900  30.3223030  27.4364390  15.3125730  31.0718440
  28.4375880  14.6129860  30.1773290  30.1350060  14.3773960  29.9615320
  30.7490470  14.6953250  29.2996400  30.6799620  13.8922550  30.5811180
  20.6571320  13.0568220  30.0754380  21.2054310  12.8756270  29.3120490
  20.7226630  12.2662330  30.6110690  21.4303080  29.6473870  28.0854580
  20.8363400  29.5158570  28.8244620  21.4226920  28.8112010  27.6196680
  30.8758100  12.9406100  26.2884610  30.0017940  13.2741210  26.0857540
  30.7668850  12.4679280  27.1136480  31.7830080  15.1476970  27.6726330
  31.4543440  14.3328730  27.2928060  32.7312380  15.1046780  27.5492020
  21.0615310  27.0132250  27.0362620  20.3349370  26.3937540  26.9688570
  21.1224460  27.4072860  26.1660700  24.6660410  29.2277250  23.8212030
  25.1825430  28.6164610  23.2960290  25.3157790  29.7306030  24.3123040
  27.4055910  30.1185740  24.6481010  27.6933720  29.8640040  23.7714020
  27.9179130  29.5663100  25.2386580  28.6232920  13.8575940  25.2277520
  27.8404710  14.3321440  25.5074280  28.3295850  12.9530770  25.1190700
  33.1753990  14.5599040  23.2726610  33.6162080  14.5044140  22.4248210
  32.9061580  15.4757050  23.3436790  35.0392560  14.1914280  21.2835430
  34.9780960  13.2475500  21.1366450  35.8184590  14.2994370  21.8288890
  19.3445310  30.3306640  20.2459380  19.1767350  29.6977320  20.9441270
  18.4779820  30.5366040  19.8953570  19.9673330  14.1623420  17.7491240
  20.7252690  14.2752300  17.1755270  19.5050500  14.9992620  17.7034670
  26.5087140  16.2762690  20.7393550  25.6961650  15.9019580  20.3989430
  27.0128780  15.5207770  21.0414740  31.0112120  12.9405140  21.9776620
  31.6141490  13.5125350  22.4525140  30.2705110  13.5044580  21.7550520
  34.1546720  13.3426700  17.2516900  34.3497350  14.2410150  17.5184330
  33.3676590  13.1113780  17.7449850  20.9508010  29.0239870  17.6909520
  20.4255630  29.4047900  16.9871480  20.8752590  29.6490640  18.4119230
  22.3398480  14.6887470  16.2893210  22.8691240  13.9017270  16.1601160
  22.9726800  15.3678660  16.5228740  24.5336320  14.4262610  19.3438600
  23.9039060  13.7249920  19.5108730  23.9941460  15.1866740  19.1271760
  35.7073330  30.5827410  19.0123460  35.8825520  29.8965150  18.3684380
  35.0094900  31.1074460  18.6200130  24.6591880  13.7046590  31.7791090
  24.3776150  14.2080190  31.0151910  25.0411580  12.9068340  31.4133220
  23.5500980  30.9722250  16.5658770  24.2819800  30.6881530  16.0182660
  23.8094650  30.7335530  17.4558150  22.7115770  27.0886980  16.5705100
  22.0824650  27.5572080  17.1190930  22.8263600  26.2436200  17.0051290
  31.2607340  13.1200170  32.3571560  31.1472790  13.4394780  33.2523080
  32.0777080  13.5212680  32.0608840  30.1665490  21.1392640   2.7206300
  30.0859540  20.2247250   2.4498010  29.7529910  21.6359710   2.0146010
  28.2983530  22.9171660   4.6015570  27.5225630  22.4372100   4.8914140
  28.9496460  22.2377310   4.4271730  22.3149360  23.2291470   5.4791330
  21.4834240  22.9740180   5.8787840  22.9230340  23.3002240   6.2149250
  32.3190960  27.3231850   3.3814700  31.8572490  26.5519090   3.7101870
  33.1316510  27.3497920   3.8867150  22.2950620  27.2631560   5.6749350
  22.5978660  26.3729300   5.4959570  23.0394210  27.8201780   5.4471600
  18.6874320  20.7899010   5.1473420  19.2590430  20.0221210   5.1477060
  18.6875860  21.0887770   4.2380030  28.5454270  29.6089860   3.0018690
  27.9265710  30.0647360   2.4313130  29.4006050  29.7641320   2.6008390
  27.7392520  25.5928850   4.6085730  27.6700800  24.6518790   4.4474860
  28.5012380  25.6830260   5.1808300  19.9299190  16.1983370   6.9342350
  19.7502030  15.3009120   7.2145110  19.5279270  16.7455240   7.6089300
  28.7697690  18.3999230   4.8354660  29.1462510  17.5271110   4.7228330
  28.6717200  18.7357930   3.9445100  32.5521810  15.8949670   1.7683000
  33.3731430  15.4046240   1.8108480  32.5855890  16.4847330   2.5214840
  20.5485860  18.6943870   5.5424690  21.2295970  18.9582240   6.1612090
  20.2333910  17.8544740   5.8762700  24.7410430  19.7411230   4.6297280
  25.2488650  20.2392200   5.2702300  25.2723670  18.9646430   4.4536640
  36.8421360  17.9116420   8.3326630  36.1373530  18.2998130   7.8141740
  37.1079280  18.6066710   8.9347560  23.0246530  14.3809790   8.8960700
  23.0264970  14.8982180   8.0906600  22.1950840  13.9039970   8.8730630
  24.2749380  24.0204970   7.0734200  23.9418760  24.6473890   7.7155270
  24.4516060  24.5466850   6.2935870  32.7883290  17.8350050   4.5410540
  32.0838860  18.1234940   5.1213650  33.1495450  18.6450160   4.1810100
  22.7061860  16.0919750   6.9031150  23.0478670  16.9361800   6.6085020
  21.7677670  16.2403490   7.0196490  23.4868480  25.9885770   8.8883380
  24.1042480  26.6636850   8.6067830  22.6261600  26.3973750   8.7970880
  34.4046070  27.4525180   6.8038020  33.7209590  28.1224290   6.7954690
  34.9440360  27.6505830   6.0382880  35.8570210  17.2804840   4.9319750
  34.9095120  17.3143820   5.0635180  36.1820200  18.0943790   5.3169110
  26.3889750  13.5802020   3.2275740  26.6964730  13.0248910   2.5111240
  25.4590450  13.7146480   3.0448730  31.9404810  29.2969310   5.5183200
  31.9531970  28.8931600   4.6505460  31.3880030  30.0716600   5.4144630
  31.3390250  24.1999150   6.8465810  31.7559040  23.9859260   6.0119270
  32.0630070  24.4571940   7.4174430  35.2852350  22.5986370   6.9382050
  34.4570980  22.6679460   6.4632180  35.8802830  23.1840680   6.4697880
  32.2494360  19.3855690   7.8836920  31.8365540  20.2109400   8.1376910
  31.5170310  18.8000730   7.6913280  24.3827150  22.1715590   2.7455590
  23.9784150  21.4592840   2.2501490  24.4690270  21.8268830   3.6343630
  24.8508850  25.8583150   4.9094800  24.5537140  25.2528620   4.2302580
  25.8008670  25.8960460   4.7984160  23.0955770  18.9458800   6.5254630
  23.6470360  19.0554140   5.7507880  23.6099280  19.3196400   7.2409860
  32.9394460  29.4315020   8.5717900  32.4625020  30.2387210   8.3790510
  32.2556250  28.7793350   8.7244110  23.9427280  25.5964840  11.5602600
  23.0455810  25.8204810  11.8076000  23.9680150  25.7199780  10.6114000
  22.7698500  22.4678160  10.1359970  22.6306270  23.3400960  10.5047370
  21.8879860  22.1250970   9.9907910  24.5678850  28.4099860  12.3445120
  24.5394280  28.8142810  11.4773550  24.4043820  27.4810220  12.1816720
  36.5193670  29.1926960  13.6409290  36.9953390  29.6709850  14.3198370
  37.1400830  29.1244450  12.9154790  18.7217150  24.2375710   6.0530880
  18.7997570  24.3724480   5.1086600  19.3358830  23.5291600   6.2459000
  19.9664780  25.9375900   2.4637060  19.5592860  26.0790490   1.6090660
  20.8577790  25.6536060   2.2608270  35.9226920  26.3839810  10.8009300
  36.0489980  26.1451690   9.8826480  35.9648300  25.5524350  11.2731380
  29.7843660  30.0867810   9.3704110  30.2988330  29.9975820  10.1726540
  28.9412740  30.4327510   9.6632020  35.7750930  18.4372270  11.7659040
  35.1595200  18.9451940  11.2374500  35.4547350  17.5370600  11.7084980
  18.7776670  25.2789880   8.5925340  18.9407710  24.8095240   7.7744710
  19.2429120  24.7713440   9.2574180  23.5495440  14.4095640   3.6285910
  23.1063590  15.1905180   3.2970430  24.1080430  14.7325530   4.3356850
  27.8365250  17.2764160   9.2321230  27.3744620  17.4847180  10.0441170
  27.4343360  16.4623510   8.9291900  32.8369760  18.4973110  10.3617890
  31.9863350  18.1978860  10.6826960  32.6771550  18.7415120   9.4501710
  29.9319470  19.9974860  12.4616680  30.2572880  19.1638610  12.1218910
  30.7199800  20.5203380  12.6095010  25.5871340  14.9542970   5.4875510
  25.8843670  15.8605800   5.4067530  26.1356900  14.4661750   4.8735080
  25.7808870  20.4314790  12.0227430  25.6852470  19.4909520  11.8727830
  26.6240850  20.6529860  11.6275500  20.9119410  16.8428460  10.1761210
  20.5182800  17.6903670  10.3833990  20.2237810  16.2054830  10.3669850
  27.4864460  16.9263430  13.2457950  26.7962780  16.7335630  13.8804040
  28.2296760  17.2098070  13.7782250  18.2136460  14.7656920   4.2091290
  17.9249510  15.3359780   4.9216270  18.9582220  14.2861370   4.5722520
  29.7627430  20.7661870   6.0811870  29.0308550  21.2748680   6.4301970
  29.3651770  19.9491850   5.7800650  26.2004820  17.4416070   4.4864360
  26.2040880  17.0006020   3.6368900  27.0955940  17.7633400   4.5936180
  22.0507200  17.3242560   3.4458570  21.7107250  17.8017790   4.2025620
  21.2884520  16.8707680   3.0859670  30.2253340  16.2195550   5.4934810
  30.2426080  16.6704200   6.3376660  29.9768920  15.3201190   5.7068250
  33.6524090  13.6327730  11.3321190  33.9769860  12.9017390  11.8579170
  33.6880600  13.3141370  10.4302180  20.3515650  24.6541310  10.7521150
  19.9670440  24.0134980  11.3504110  20.6627840  25.3577430  11.3215880
  26.5012790  21.5017850   6.2329770  26.8682920  21.0276420   6.9791110
  26.3117850  22.3759420   6.5738110  19.3653280  16.2461540   2.3623240
  19.0800200  15.8817210   3.2001860  19.3032140  15.5142000   1.7486380
  24.2912160  20.5426490   8.5513980  23.9869230  21.4218470   8.7764340
  25.2458620  20.6026280   8.5871420  33.5781930  23.7452840   4.9407220
  34.2981050  24.2408130   4.5503330  33.3763750  23.0670730   4.2961090
  28.9600730  23.8161900  10.8276220  28.8938040  22.8957570  10.5733810
  28.3305870  23.9137340  11.5420860  22.8631350  24.4167860   2.7859640
  23.3810020  23.6136120   2.7316530  22.4115370  24.3547000   3.6276470
  20.3475890  21.3829230   9.6985340  19.9890830  22.0483080  10.2858680
  20.0530450  20.5512780  10.0697960  23.5489010  21.8413470  12.5824890
  23.2489150  21.9870650  11.6852710  24.3200250  21.2818760  12.4898280
  28.8917460  26.6382470  10.5780020  28.9062000  25.7063430  10.3598930
  28.1842560  26.7242230  11.2169790  35.1028670  23.2789810   9.9248600
  34.3776860  23.8718590   9.7277990  35.6304130  23.2713350   9.1261970
  30.6328260  25.0049980   3.4232450  30.9852080  24.4078110   2.7633820
  29.7490590  24.6794210   3.5940700  28.3251360  28.2800040   7.6720520
  28.9693580  28.4859420   8.3493940  28.6880800  27.5188440   7.2191370
  29.5983440  26.2832390   6.3897970  30.2405670  25.5825550   6.5030140
  30.1232790  27.0630830   6.2094860  31.3721060  27.0827290   9.5934030
  31.7077300  27.6693980  10.2711950  30.4521400  26.9520000   9.8231820
  18.9224460  14.8722470  10.3757440  18.2082980  15.0719390  10.9810050
  19.3419500  14.0962040  10.7472240  19.2097050  28.8602730  11.3623970
  19.3188170  27.9197470  11.2219360  18.5577610  29.1257480  10.7137700
  27.2009640  27.1318620  12.7622090  26.8806510  26.4127860  13.3067780
  26.5268000  27.8073690  12.8358150  30.4163240  17.3644780   8.1258890
  30.7844060  16.5439990   8.4538460  29.5561440  17.4246670   8.5414540
  27.3765230  20.0184370   8.3496860  27.8750480  20.4930190   9.0148710
  27.5188180  19.0947890   8.5566890  34.5832090  16.2352330   9.1925250
  34.0805690  16.9757730   9.5319060  35.3988750  16.6236330   8.8762040
  32.8754100  21.4785510   2.6386610  31.9344240  21.4935740   2.8134300
  33.1898170  20.6921470   3.0846910  34.8779680  28.6494360   4.3140870
  35.0027100  29.4725530   4.7864680  35.7445240  28.4385090   3.9665020
  22.3497210  30.7425570   3.9858000  23.0859690  30.1941030   4.2566570
  22.7338130  31.6081580   3.8463990  21.3555490  29.9271640  13.1743580
  22.1568220  30.2483690  13.5878980  20.8407310  29.5667220  13.8963490
  30.1920120  26.0351510  13.1218990  29.5858280  26.0583110  12.3814740
  29.8874230  25.3034550  13.6586240  31.6220490  29.7631800  11.7328400
  32.5742240  29.6789820  11.6828640  31.4748710  30.4273510  12.4062190
  19.0753300  22.4145100  12.1179630  19.5792320  21.8352380  12.6895860
  18.3360720  22.6985330  12.6556000  26.1291240  23.8216090  11.6515150
  25.3636910  24.3901090  11.5669820  26.3107200  23.5292300  10.7583380
  33.2714590  25.5521420  12.2090170  34.0124060  25.8897180  11.7057630
  32.5087270  25.7213480  11.6559940  21.1076380  20.5574690  13.0129700
  21.1481720  20.2588560  13.9214930  21.9621880  20.9582300  12.8537220
  23.0482190  19.1366790  10.9804190  22.5178650  18.6457740  10.3527530
  23.7170260  19.5650990  10.4462120  31.9460250  23.6036250  10.7445380
  32.3601270  23.7581330  11.5935800  31.0111250  23.7291470  10.9071160
  32.4182420  20.9432410  12.7484530  33.0003190  20.1884730  12.6605010
  32.5944190  21.4739850  11.9716010  23.5354490  16.1029160  11.0601480
  23.4411360  15.4849910  10.3352350  22.9551880  16.8295450  10.8331390
  26.3015930  14.6602400   8.0928870  25.8533230  14.6826660   7.2474420
  25.6681130  14.2621420   8.6899170  26.7075480  23.5556730   8.7141310
  27.1263590  24.3989460   8.5417550  25.7884110  23.6928770   8.4848090
  29.0439380  21.2872910  10.0979150  29.1635590  20.6914050  10.8373990
  29.9033380  21.3242600   9.6780450  31.3827280  21.8410100   8.6741660
  30.8562500  22.3652720   8.0706800  31.7258620  22.4737490   9.3051390
  24.5582900  29.8609740   9.8299040  24.0203990  30.5855800   9.5107740
  24.8116860  29.3840080   9.0396380  25.8108150  17.8294260  11.3554970
  26.4007840  17.5210110  12.0432790  24.9928390  17.3574010  11.5114870
  30.6301580  17.4460070  11.5887990  29.9417100  16.7841610  11.5237980
  31.3507600  16.9998340  12.0336450  27.4145110  31.0960950  10.0885690
  27.3403810  31.9996090  10.3958060  26.5123950  30.7772850  10.0607760
  18.8172400  28.4235540   3.3919310  19.1475410  27.5556600   3.1597950
  19.2463400  28.6294060   4.2224270  19.3062610  29.2906130   6.1300940
  18.8693600  29.4706930   6.9625090  19.8740290  30.0480750   5.9882660
  34.9424790  28.7923130  10.4178250  34.3426780  28.8515690   9.6742170
  35.0718690  27.8528110  10.5475100  19.1387040  21.8026360   2.4889820
  18.4835880  21.5338000   1.8449520  19.9764990  21.6930840   2.0391800
  36.6442670  24.1338530   3.1024090  37.0151500  23.3505850   2.6960060
  37.2844600  24.8227630   2.9241390  33.6276430  25.5175110   8.5154410
  32.8136270  25.9472270   8.7780200  34.0350630  26.1293520   7.9023460
  20.1762970  22.1878930   7.0293160  20.5436010  22.1006330   7.9089180
  19.6073790  21.4245480   6.9300020  34.9766830  20.6563310  10.0423630
  34.7452920  20.4276060   9.1421580  35.2371380  21.5762860   9.9968520
  19.7278970  19.0988020  10.9351580  18.8335020  19.0654780  11.2745290
  20.2676520  19.2974810  11.7002830  33.4154900  15.8819740  12.8203330
  34.2925080  15.8903140  13.2037330  33.4275740  15.1450580  12.2095680
  34.8618170  19.7349280   3.7091350  35.3855650  19.2411930   3.0781520
  35.4477590  19.8699640   4.4538920  35.0407890  19.8189150   7.2310900
  34.0910600  19.7852690   7.3455890  35.2220900  20.7289260   6.9960670
  20.2318680  13.3736350   5.2834800  20.8794870  12.8233730   4.8429960
  20.6520520  13.6279500   6.1050610  35.7805300  17.6283580   2.1821440
  35.6704580  17.4739620   3.1203710  36.5412890  17.1004520   1.9396850
  34.1271020  13.5677710   8.6404440  34.7643240  14.1811850   9.0063630
  34.2745910  13.6038370   7.6953670  19.9850680  13.5292020   8.0260120
  19.6365500  13.9855840   8.7918300  19.6538380  12.6349150   8.1082550
  21.5915050  26.7011620  12.1913310  21.5484680  26.3304530  13.0727770
  21.7226060  27.6389190  12.3315130  25.2921080  28.2571210   7.7923030
  25.0512440  28.5245770   6.9053550  26.2323720  28.4276940   7.8473890
  27.4975500  14.7203900  11.5479540  27.4364390  15.3125730  12.2974950
  28.4375880  14.6129860  11.4029800  30.1350060  14.3773960  11.1871830
  30.7490470  14.6953250  10.5252910  30.6799620  13.8922550  11.8067690
  36.5525240  30.2765590   8.5933670  36.0583520  30.6734460   7.8760800
  35.9438530  29.6514800   8.9870950  20.6571320  13.0568220  11.3010890
  21.2054310  12.8756270  10.5377000  20.7226630  12.2662330  11.8367200
  21.4303080  29.6473870   9.3111090  20.8363400  29.5158570  10.0501130
  21.4226920  28.8112010   8.8453190  30.8758100  12.9406100   7.5141120
  30.0017940  13.2741210   7.3114050  30.7668850  12.4679280   8.3392990
  31.7830080  15.1476970   8.8982840  31.4543440  14.3328730   8.5184570
  32.7312380  15.1046780   8.7748530  34.2364690  30.9189010   5.8720410
  33.7767660  31.6704820   5.4978430  33.6077150  30.1995480   5.8135210
  21.0615310  27.0132250   8.2619130  20.3349370  26.3937540   8.1945080
  21.1224460  27.4072860   7.3917210  24.6660410  29.2277250   5.0468540
  25.1825430  28.6164610   4.5216800  25.3157790  29.7306030   5.5379550
  27.4055910  30.1185740   5.8737520  27.6933720  29.8640040   4.9970530
  27.9179130  29.5663100   6.4643090  28.6232920  13.8575940   6.4534030
  27.8404710  14.3321440   6.7330790  28.3295850  12.9530770   6.3447210
  33.1753990  14.5599040   4.4983120  33.6162080  14.5044140   3.6504720
  32.9061580  15.4757050   4.5693300  35.0392560  14.1914280   2.5091940
  34.9780960  13.2475500   2.3622960  35.8184590  14.2994370   3.0545400
  26.5087140  16.2762690   1.9650060  25.6961650  15.9019580   1.6245940
  27.0128780  15.5207770   2.2671250  31.0112120  12.9405140   3.2033130
  31.6141490  13.5125350   3.6781650  30.2705110  13.5044580   2.9807030
  27.4728270  31.0401840  13.2405720  28.3995580  30.8046110  13.2841680
  27.4578700  31.8673840  12.7591750  24.6591880  13.7046590  13.0047600
  24.3776150  14.2080190  12.2408420  25.0411580  12.9068340  12.6389730
  31.2607340  13.1200170  13.5828070  31.1472790  13.4394780  14.4779590
  32.0777080  13.5212680  13.2865350  34.0405830  30.2671700  13.0646760
  34.8331150  29.7720930  12.8572720  34.3338980  30.9461840  13.6722370
  28.2983530   4.1428170  60.9246040  27.5225630   3.6628610  61.2144610
  28.9496460   3.4633820  60.7502200  22.3149360   4.4547980  61.8021800
  21.4834240   4.1996690  62.2018310  22.9230340   4.5258750  62.5379720
  32.3190960   8.5488360  59.7045170  31.8572490   7.7775600  60.0332340
  33.1316510   8.5754430  60.2097620  22.2950620   8.4888070  61.9979820
  22.5978660   7.5985810  61.8190040  23.0394210   9.0458290  61.7702070
  28.5454270  10.8346370  59.3249160  27.9265710  11.2903870  58.7543600
  29.4006050  10.9897830  58.9238860  27.7392520   6.8185360  60.9316200
  27.6700800   5.8775300  60.7705330  28.5012380   6.9086770  61.5038770
  29.4117620   5.7185610  56.7181070  28.7934890   6.1835060  56.1543790
  29.9240870   6.4113090  57.1350580  18.7800820   6.4042140  54.0920700
  18.4028800   6.8929240  53.3605600  19.0373890   7.0767420  54.7227230
  34.4046070   8.6781690  63.1268490  33.7209590   9.3480800  63.1185160
  34.9440360   8.8762340  62.3613350  31.9404810  10.5225820  61.8413670
  31.9531970  10.1188110  60.9735930  31.3880030  11.2973110  61.7375100
  33.2350230   7.2442040  56.9303840  33.1246560   6.3016370  57.0553260
  33.2318480   7.6057680  57.8166600  28.7770510   2.8707360  56.2866330
  27.8499790   2.8044740  56.5154800  28.9295330   3.8087490  56.1721570
  35.2852350   3.8242880  63.2612520  34.4570980   3.8935970  62.7862650
  35.8802830   4.4097190  62.7928350  32.8067800   4.4327660  56.7901580
  32.1880220   4.0947210  56.1427880  32.7892250   3.7887420  57.4980770
  24.3827150   3.3972100  59.0686060  23.9784150   2.6849350  58.5731960
  24.4690270   3.0525340  59.9574100  24.8508850   7.0839660  61.2325270
  24.5537140   6.4785130  60.5533050  25.8008670   7.1216970  61.1214630
  30.9832500   3.6714470  53.7974330  31.4225780   2.8336900  53.6512150
  31.6960920   4.3043870  53.8838470  29.0927880   8.6110540  57.7655570
  29.5323790   9.3534870  57.3510960  29.0314770   8.8537110  58.6894530
  21.0831780   2.2917080  56.5692710  20.9629380   3.0179170  55.9573980
  20.7732670   1.5219990  56.0920620  18.7217150   5.4632220  62.3761350
  18.7997570   5.5980990  61.4317070  19.3358830   4.7548110  62.5689470
  19.9664780   7.1632410  58.7867530  19.5592860   7.3047000  57.9321130
  20.8577790   6.8792570  58.5838740  31.7598060  11.5979660  55.1218580
  31.5999200  11.3082600  56.0200410  31.5944770  10.8219790  54.5863810
  24.2386440  11.3778190  56.8990200  24.0628920  10.4613730  56.6858000
  23.3842180  11.7365480  57.1388000  31.4624190   9.1067220  53.6816580
  30.7689350   9.1044510  53.0218860  32.2047050   8.6826540  53.2510750
  31.0274120  10.7329930  57.7565070  31.4831070   9.9519310  58.0703690
  31.3666640  11.4436750  58.3006250  25.2746470   1.9785800  53.1984890
  24.7063370   1.5304050  52.5720800  25.9835470   2.3378580  52.6650040
  26.5012790   2.7274360  62.5560240  26.8682920   2.2532930  63.3021580
  26.3117850   3.6015930  62.8968580  22.8193950   5.9743990  55.4711300
  22.0456210   5.4341610  55.3110020  23.5488580   5.4550600  55.1329060
  33.5781930   4.9709350  61.2637690  34.2981050   5.4664640  60.8733800
  33.3763750   4.2927240  60.6191560  22.8631350   5.6424370  59.1090110
  23.3810020   4.8392630  59.0547000  22.4115370   5.5803510  59.9506940
  27.7500850   6.9090650  54.3817410  28.0916550   7.6532880  53.8860730
  26.9213560   7.2221770  54.7442240  34.0254530   2.0478800  53.1709100
  33.9418250   2.4793020  52.3205540  34.7448720   2.5077150  53.6035920
  35.0541780   8.9021060  55.8991230  34.4117940   8.2476680  56.1734950
  34.6672440   9.3076150  55.1231900  30.6328260   6.2306490  59.7462920
  30.9852080   5.6334620  59.0864290  29.7490590   5.9050720  59.9171170
  26.7191540   6.9904180  57.1533330  27.4062670   7.5373390  57.5340920
  25.9323960   7.5344910  57.1882940  18.8583940   2.6077000  52.6450410
  19.7278790   2.8901800  52.9286330  18.3674260   3.4212870  52.5299220
  26.0218750   3.9950210  56.7658690  26.4781530   4.8055460  56.9918880
  25.6706960   3.6773350  57.5977180  29.5983440   7.5088900  62.7128440
  30.2405670   6.8082060  62.8260610  30.1232790   8.2887340  62.5325330
  33.4439160   7.7937520  52.4367580  33.2176740   7.0767960  53.0292220
  33.0535360   7.5449960  51.5989330  19.2255190  11.8204380  53.2112040
  19.5852830  12.4193720  52.5569310  19.0847530  12.3664270  53.9847070
  33.0255410   5.7109460  54.0981740  32.7377110   6.1722150  54.8859620
  33.8207580   5.2507230  54.3665960  25.2423810   9.2035580  54.0285710
  25.2333910   9.9365270  53.4130220  24.3222170   8.9567160  54.1212670
  20.8430450   4.4250470  54.7732470  20.2358400   5.1649370  54.7827770
  21.3179800   4.5149830  53.9470670  28.2283410   9.2663820  52.6910900
  28.3295390   9.0627810  51.7612880  27.3285150   9.0122100  52.8958680
  26.8701520  11.7850140  57.3858570  27.1243020  11.7471530  56.4637940
  25.9214000  11.6583470  57.3786820  32.8754100   2.7042020  58.9617080
  31.9344240   2.7192250  59.1364770  33.1898170   1.9177980  59.4077380
  22.8535740   4.3861620  52.5221040  23.6199010   4.2742980  53.0846470
  22.9310430   3.6899590  51.8697810  34.8779680   9.8750870  60.6371340
  35.0027100  10.6982040  61.1095150  35.7445240   9.6641600  60.2895490
  22.3497210  11.9682080  60.3088470  23.0859690  11.4197540  60.5797040
  22.7338130  12.8338090  60.1694460  19.2342690   8.0355650  56.1829980
  18.3082470   8.2776790  56.1735390  19.6999120   8.8629910  56.0614730
  25.4599520  11.1412390  52.1314040  26.2528130  11.4301220  51.6795830
  24.9403870  10.7104560  51.4526520  34.5129690  10.3682520  53.5550780
  34.2271200   9.9547660  52.7404960  34.3149240  11.2970230  53.4351300
  25.9776920   6.3615800  51.9956390  25.8727560   5.7468150  52.7217770
  25.8101140   5.8381690  51.2119400  29.2179650   5.4235830  52.5998380
  28.6689750   5.8705130  53.2441120  29.8398910   4.9185080  53.1236050
  24.8854770   4.3826750  54.4963680  25.3071190   4.2166620  55.3395070
  25.0105610   3.5726980  54.0018820  27.3982410   3.4064360  51.7440780
  27.9188070   2.6913380  51.3781930  28.0450810   4.0450230  52.0441290
  27.9630440  11.4875970  54.0342520  28.8581230  11.8260940  54.0561280
  27.9948070  10.7655380  53.4066800  21.6026600   6.8603020  52.2629520
  22.0401470   7.4032690  52.9187100  22.0874330   6.0349970  52.2725860
  18.8172400   9.6492050  59.7149780  19.1475410   8.7813110  59.4828420
  19.2463400   9.8550570  60.5454740  23.4134320   7.9801060  57.3751750
  23.1129860   7.8566030  58.2755660  23.3071810   7.1209650  56.9667480
  19.3062610  10.5162640  62.4531410  18.8693600  10.6963440  63.2855560
  19.8740290  11.2737260  62.3113130  36.1826240   7.7597460  52.0778430
  35.3519200   7.8274110  52.5485660  36.3598070   8.6501580  51.7745290
  35.6382700   4.5044940  54.5812630  36.4001610   5.0741590  54.6872320
  35.6537070   3.9372140  55.3520940  19.1387040   3.0282870  58.8120290
  18.4835880   2.7594510  58.1679990  19.9764990   2.9187350  58.3622270
  36.6442670   5.3595040  59.4254560  37.0151500   4.5762360  59.0190530
  37.2844600   6.0484140  59.2471860  35.6901870   4.7979310  51.7385150
  35.9650710   5.7058190  51.6104370  35.5012610   4.7341840  52.6747140
  35.5867210   2.7348300  56.7314580  35.2110810   1.9676230  56.2995870
  34.8570330   3.1171000  57.2189510  33.6852480  11.4950220  58.3653150
  34.2811550  11.1734790  57.6887570  33.9430630  11.0222040  59.1566420
  34.2364690  12.1445520  62.1950880  33.7767660  12.8961330  61.8208900
  33.6077150  11.4251990  62.1365680  24.6660410  10.4533760  61.3699010
  25.1825430   9.8421120  60.8447270  25.3157790  10.9562540  61.8610020
  27.4055910  11.3442250  62.1967990  27.6933720  11.0896550  61.3201000
  27.9179130  10.7919610  62.7873560  19.3445310  11.5563150  57.7946360
  19.1767350  10.9233830  58.4928250  18.4779820  11.7622550  57.4440550
  20.9508010  10.2496380  55.2396500  20.4255630  10.6304410  54.5358460
  20.8752590  10.8747150  55.9606210  35.7073330  11.8083920  56.5610440
  35.8825520  11.1221660  55.9171360  35.0094900  12.3330970  56.1687110
  23.5500980  12.1978760  54.1145750  24.2819800  11.9138040  53.5669640
  23.8094650  11.9592040  55.0045130  22.7115770   8.3143490  54.1192080
  22.0824650   8.7828590  54.6677910  22.8263600   7.4692710  54.5538270
  28.2983530   4.1428170  42.1502550  27.5225630   3.6628610  42.4401120
  28.9496460   3.4633820  41.9758710  22.3149360   4.4547980  43.0278310
  21.4834240   4.1996690  43.4274820  22.9230340   4.5258750  43.7636230
  32.3190960   8.5488360  40.9301680  31.8572490   7.7775600  41.2588850
  33.1316510   8.5754430  41.4354130  22.2950620   8.4888070  43.2236330
  22.5978660   7.5985810  43.0446550  23.0394210   9.0458290  42.9958580
  28.5454270  10.8346370  40.5505670  27.9265710  11.2903870  39.9800110
  29.4006050  10.9897830  40.1495370  27.7392520   6.8185360  42.1572710
  27.6700800   5.8775300  41.9961840  28.5012380   6.9086770  42.7295280
  29.4117620   5.7185610  37.9437580  28.7934890   6.1835060  37.3800300
  29.9240870   6.4113090  38.3607090  24.2749380   5.2461480  44.6221180
  23.9418760   5.8730400  45.2642250  24.4516060   5.7723360  43.8422850
  23.4868480   7.2142280  46.4370360  24.1042480   7.8893360  46.1554810
  22.6261600   7.6230260  46.3457860  18.7800820   6.4042140  35.3177210
  18.4028800   6.8929240  34.5862110  19.0373890   7.0767420  35.9483740
  34.4046070   8.6781690  44.3525000  33.7209590   9.3480800  44.3441670
  34.9440360   8.8762340  43.5869860  31.9404810  10.5225820  43.0670180
  31.9531970  10.1188110  42.1992440  31.3880030  11.2973110  42.9631610
  33.2350230   7.2442040  38.1560350  33.1246560   6.3016370  38.2809770
  33.2318480   7.6057680  39.0423110  31.3390250   5.4255660  44.3952790
  31.7559040   5.2115770  43.5606250  32.0630070   5.6828450  44.9661410
  28.7770510   2.8707360  37.5122840  27.8499790   2.8044740  37.7411310
  28.9295330   3.8087490  37.3978080  35.2852350   3.8242880  44.4869030
  34.4570980   3.8935970  44.0119160  35.8802830   4.4097190  44.0184860
  32.8067800   4.4327660  38.0158090  32.1880220   4.0947210  37.3684390
  32.7892250   3.7887420  38.7237280  24.3827150   3.3972100  40.2942570
  23.9784150   2.6849350  39.7988470  24.4690270   3.0525340  41.1830610
  24.8508850   7.0839660  42.4581780  24.5537140   6.4785130  41.7789560
  25.8008670   7.1216970  42.3471140  32.9394460  10.6571530  46.1204880
  32.4625020  11.4643720  45.9277490  32.2556250  10.0049860  46.2731090
  23.9427280   6.8221350  49.1089580  23.0455810   7.0461320  49.3562980
  23.9680150   6.9456290  48.1600980  30.9832500   3.6714470  35.0230840
  31.4225780   2.8336900  34.8768660  31.6960920   4.3043870  35.1094980
  22.7698500   3.6934670  47.6846950  22.6306270   4.5657470  48.0534350
  21.8879860   3.3507480  47.5394890  29.0927880   8.6110540  38.9912080
  29.5323790   9.3534870  38.5767470  29.0314770   8.8537110  39.9151040
  24.5678850   9.6356370  49.8932100  24.5394280  10.0399320  49.0260530
  24.4043820   8.7066730  49.7303700  21.0831780   2.2917080  37.7949220
  20.9629380   3.0179170  37.1830490  20.7732670   1.5219990  37.3177130
  36.5193670  10.4183470  51.1896270  36.9953390  10.8966360  51.8685350
  37.1400830  10.3500960  50.4641770  18.7217150   5.4632220  43.6017860
  18.7997570   5.5980990  42.6573580  19.3358830   4.7548110  43.7945980
  19.9664780   7.1632410  40.0124040  19.5592860   7.3047000  39.1577640
  20.8577790   6.8792570  39.8095250  35.9226920   7.6096320  48.3496280
  36.0489980   7.3708200  47.4313460  35.9648300   6.7780860  48.8218360
  29.7843660  11.3124320  46.9191090  30.2988330  11.2232330  47.7213520
  28.9412740  11.6584020  47.2119000  31.7598060  11.5979660  36.3475090
  31.5999200  11.3082600  37.2456920  31.5944770  10.8219790  35.8120320
  24.2386440  11.3778190  38.1246710  24.0628920  10.4613730  37.9114510
  23.3842180  11.7365480  38.3644510  31.4624190   9.1067220  34.9073090
  30.7689350   9.1044510  34.2475370  32.2047050   8.6826540  34.4767260
  31.0274120  10.7329930  38.9821580  31.4831070   9.9519310  39.2960200
  31.3666640  11.4436750  39.5262760  18.7776670   6.5046390  46.1412320
  18.9407710   6.0351750  45.3231690  19.2429120   5.9969950  46.8061160
  25.2746470   1.9785800  34.4241400  24.7063370   1.5304050  33.7977310
  25.9835470   2.3378580  33.8906550  20.3515650   5.8797820  48.3008130
  19.9670440   5.2391490  48.8991090  20.6627840   6.5833940  48.8702860
  26.5012790   2.7274360  43.7816750  26.8682920   2.2532930  44.5278090
  26.3117850   3.6015930  44.1225090  24.2912160   1.7683000  46.1000960
  23.9869230   2.6474980  46.3251320  25.2458620   1.8282790  46.1358400
  22.8193950   5.9743990  36.6967810  22.0456210   5.4341610  36.5366530
  23.5488580   5.4550600  36.3585570  33.5781930   4.9709350  42.4894200
  34.2981050   5.4664640  42.0990310  33.3763750   4.2927240  41.8448070
  28.9600730   5.0418410  48.3763200  28.8938040   4.1214080  48.1220790
  28.3305870   5.1393850  49.0907840  22.8631350   5.6424370  40.3346620
  23.3810020   4.8392630  40.2803510  22.4115370   5.5803510  41.1763450
  27.7500850   6.9090650  35.6073920  28.0916550   7.6532880  35.1117240
  26.9213560   7.2221770  35.9698750  20.3475890   2.6085740  47.2472320
  19.9890830   3.2739590  47.8345660  20.0530450   1.7769290  47.6184940
  23.5489010   3.0669980  50.1311870  23.2489150   3.2127160  49.2339690
  24.3200250   2.5075270  50.0385260  28.8917460   7.8638980  48.1267000
  28.9062000   6.9319940  47.9085910  28.1842560   7.9498740  48.7656770
  34.0254530   2.0478800  34.3965610  33.9418250   2.4793020  33.5462050
  34.7448720   2.5077150  34.8292430  35.1028670   4.5046320  47.4735580
  34.3776860   5.0975100  47.2764970  35.6304130   4.4969860  46.6748950
  35.0541780   8.9021060  37.1247740  34.4117940   8.2476680  37.3991460
  34.6672440   9.3076150  36.3488410  30.6328260   6.2306490  40.9719430
  30.9852080   5.6334620  40.3120800  29.7490590   5.9050720  41.1427680
  26.7191540   6.9904180  38.3789840  27.4062670   7.5373390  38.7597430
  25.9323960   7.5344910  38.4139450  18.8583940   2.6077000  33.8706920
  19.7278790   2.8901800  34.1542840  18.3674260   3.4212870  33.7555730
  26.0218750   3.9950210  37.9915200  26.4781530   4.8055460  38.2175390
  25.6706960   3.6773350  38.8233690  28.3251360   9.5056550  45.2207500
  28.9693580   9.7115930  45.8980920  28.6880800   8.7444950  44.7678350
  29.5983440   7.5088900  43.9384950  30.2405670   6.8082060  44.0517120
  30.1232790   8.2887340  43.7581840  33.4439160   7.7937520  33.6624090
  33.2176740   7.0767960  34.2548730  33.0535360   7.5449960  32.8245840
  31.3721060   8.3083800  47.1421010  31.7077300   8.8950490  47.8198930
  30.4521400   8.1776510  47.3718800  19.2255190  11.8204380  34.4368550
  19.5852830  12.4193720  33.7825820  19.0847530  12.3664270  35.2103580
  33.0255410   5.7109460  35.3238250  32.7377110   6.1722150  36.1116130
  33.8207580   5.2507230  35.5922470  19.2097050  10.0859240  48.9110950
  19.3188170   9.1453980  48.7706340  18.5577610  10.3513990  48.2624680
  27.2009640   8.3575130  50.3109070  26.8806510   7.6384370  50.8554760
  26.5268000   9.0330200  50.3845130  25.2423810   9.2035580  35.2542220
  25.2333910   9.9365270  34.6386730  24.3222170   8.9567160  35.3469180
  20.8430450   4.4250470  35.9988980  20.2358400   5.1649370  36.0084280
  21.3179800   4.5149830  35.1727180  28.2283410   9.2663820  33.9167410
  28.3295390   9.0627810  32.9869390  27.3285150   9.0122100  34.1215190
  26.8701520  11.7850140  38.6115080  27.1243020  11.7471530  37.6894450
  25.9214000  11.6583470  38.6043330  32.8754100   2.7042020  40.1873590
  31.9344240   2.7192250  40.3621280  33.1898170   1.9177980  40.6333890
  22.8535740   4.3861620  33.7477550  23.6199010   4.2742980  34.3102980
  22.9310430   3.6899590  33.0954320  34.8779680   9.8750870  41.8627850
  35.0027100  10.6982040  42.3351660  35.7445240   9.6641600  41.5152000
  22.3497210  11.9682080  41.5344980  23.0859690  11.4197540  41.8053550
  22.7338130  12.8338090  41.3950970  19.2342690   8.0355650  37.4086490
  18.3082470   8.2776790  37.3991900  19.6999120   8.8629910  37.2871240
  21.3555490  11.1528150  50.7230560  22.1568220  11.4740200  51.1365960
  20.8407310  10.7923730  51.4450470  25.4599520  11.1412390  33.3570550
  26.2528130  11.4301220  32.9052340  24.9403870  10.7104560  32.6783030
  30.1920120   7.2608020  50.6705970  29.5858280   7.2839620  49.9301720
  29.8874230   6.5291060  51.2073220  31.6220490  10.9888310  49.2815380
  32.5742240  10.9046330  49.2315620  31.4748710  11.6530020  49.9549170
  34.5129690  10.3682520  34.7807290  34.2271200   9.9547660  33.9661470
  34.3149240  11.2970230  34.6607810  19.0753300   3.6401610  49.6666610
  19.5792320   3.0608890  50.2382840  18.3360720   3.9241840  50.2042980
  25.9776920   6.3615800  33.2212900  25.8727560   5.7468150  33.9474280
  25.8101140   5.8381690  32.4375910  26.1291240   5.0472600  49.2002130
  25.3636910   5.6157600  49.1156800  26.3107200   4.7548810  48.3070360
  29.2179650   5.4235830  33.8254890  28.6689750   5.8705130  34.4697630
  29.8398910   4.9185080  34.3492560  33.2714590   6.7777930  49.7577150
  34.0124060   7.1153690  49.2544610  32.5087270   6.9469990  49.2046920
  21.1076380   1.7831200  50.5616680  21.1481720   1.4845070  51.4701910
  21.9621880   2.1838810  50.4024200  24.8854770   4.3826750  35.7220190
  25.3071190   4.2166620  36.5651580  25.0105610   3.5726980  35.2275330
  27.3982410   3.4064360  32.9697290  27.9188070   2.6913380  32.6038440
  28.0450810   4.0450230  33.2697800  31.9460250   4.8292760  48.2932360
  32.3601270   4.9837840  49.1422780  31.0111250   4.9547980  48.4558140
  26.7075480   4.7813240  46.2628290  27.1263590   5.6245970  46.0904530
  25.7884110   4.9185280  46.0335070  29.0439380   2.5129420  47.6466130
  29.1635590   1.9170560  48.3860970  29.9033380   2.5499110  47.2267430
  31.3827280   3.0666610  46.2228640  30.8562500   3.5909230  45.6193780
  31.7258620   3.6994000  46.8538370  24.5582900  11.0866250  47.3786020
  24.0203990  11.8112310  47.0594720  24.8116860  10.6096590  46.5883360
  27.4145110  12.3217460  47.6372670  27.3403810  13.2252600  47.9445040
  26.5123950  12.0029360  47.6094740  27.9630440  11.4875970  35.2599030
  28.8581230  11.8260940  35.2817790  27.9948070  10.7655380  34.6323310
  21.6026600   6.8603020  33.4886030  22.0401470   7.4032690  34.1443610
  22.0874330   6.0349970  33.4982370  18.8172400   9.6492050  40.9406290
  19.1475410   8.7813110  40.7084930  19.2463400   9.8550570  41.7711250
  23.4134320   7.9801060  38.6008260  23.1129860   7.8566030  39.5012170
  23.3071810   7.1209650  38.1923990  19.3062610  10.5162640  43.6787920
  18.8693600  10.6963440  44.5112070  19.8740290  11.2737260  43.5369640
  34.9424790  10.0179640  47.9665230  34.3426780  10.0772200  47.2229150
  35.0718690   9.0784620  48.0962080  36.1826240   7.7597460  33.3034940
  35.3519200   7.8274110  33.7742170  36.3598070   8.6501580  33.0001800
  35.6382700   4.5044940  35.8069140  36.4001610   5.0741590  35.9128830
  35.6537070   3.9372140  36.5777450  19.1387040   3.0282870  40.0376800
  18.4835880   2.7594510  39.3936500  19.9764990   2.9187350  39.5878780
  36.6442670   5.3595040  40.6511070  37.0151500   4.5762360  40.2447040
  37.2844600   6.0484140  40.4728370  33.6276430   6.7431620  46.0641390
  32.8136270   7.1728780  46.3267180  34.0350630   7.3550030  45.4510440
  35.6901870   4.7979310  32.9641660  35.9650710   5.7058190  32.8360880
  35.5012610   4.7341840  33.9003650  35.5867210   2.7348300  37.9571090
  35.2110810   1.9676230  37.5252380  34.8570330   3.1171000  38.4446020
  20.1762970   3.4135440  44.5780140  20.5436010   3.3262840  45.4576160
  19.6073790   2.6501990  44.4787000  34.9766830   1.8819820  47.5910610
  34.7452920   1.6532570  46.6908560  35.2371380   2.8019370  47.5455500
  33.6852480  11.4950220  39.5909660  34.2811550  11.1734790  38.9144080
  33.9430630  11.0222040  40.3822930  21.5915050   7.9268130  49.7400290
  21.5484680   7.5561040  50.6214750  21.7226060   8.8645700  49.8802110
  25.2921080   9.4827720  45.3410010  25.0512440   9.7502280  44.4540530
  26.2323720   9.6533450  45.3960870  36.5525240  11.5022100  46.1420650
  36.0583520  11.8990970  45.4247780  35.9438530  10.8771310  46.5357930
  21.4303080  10.8730380  46.8598070  20.8363400  10.7415080  47.5988110
  21.4226920  10.0368520  46.3940170  34.2364690  12.1445520  43.4207390
  33.7767660  12.8961330  43.0465410  33.6077150  11.4251990  43.3622190
  21.0615310   8.2388760  45.8106110  20.3349370   7.6194050  45.7432060
  21.1224460   8.6329370  44.9404190  24.6660410  10.4533760  42.5955520
  25.1825430   9.8421120  42.0703780  25.3157790  10.9562540  43.0866530
  27.4055910  11.3442250  43.4224500  27.6933720  11.0896550  42.5457510
  27.9179130  10.7919610  44.0130070  19.3445310  11.5563150  39.0202870
  19.1767350  10.9233830  39.7184760  18.4779820  11.7622550  38.6697060
  20.9508010  10.2496380  36.4653010  20.4255630  10.6304410  35.7614970
  20.8752590  10.8747150  37.1862720  27.4728270  12.2658350  50.7892700
  28.3995580  12.0302620  50.8328660  27.4578700  13.0930350  50.3078730
  35.7073330  11.8083920  37.7866950  35.8825520  11.1221660  37.1427870
  35.0094900  12.3330970  37.3943620  23.5500980  12.1978760  35.3402260
  24.2819800  11.9138040  34.7926150  23.8094650  11.9592040  36.2301640
  22.7115770   8.3143490  35.3448590  22.0824650   8.7828590  35.8934420
  22.8263600   7.4692710  35.7794780  34.0405830  11.4928210  50.6133740
  34.8331150  10.9977440  50.4059700  34.3338980  12.1718350  51.2209350
  28.2983530   4.1428170  23.3759060  27.5225630   3.6628610  23.6657630
  28.9496460   3.4633820  23.2015220  22.3149360   4.4547980  24.2534820
  21.4834240   4.1996690  24.6531330  22.9230340   4.5258750  24.9892740
  32.3190960   8.5488360  22.1558190  31.8572490   7.7775600  22.4845360
  33.1316510   8.5754430  22.6610640  22.2950620   8.4888070  24.4492840
  22.5978660   7.5985810  24.2703060  23.0394210   9.0458290  24.2215090
  28.5454270  10.8346370  21.7762180  27.9265710  11.2903870  21.2056620
  29.4006050  10.9897830  21.3751880  27.7392520   6.8185360  23.3829220
  27.6700800   5.8775300  23.2218350  28.5012380   6.9086770  23.9551790
  29.4117620   5.7185610  19.1694090  28.7934890   6.1835060  18.6056810
  29.9240870   6.4113090  19.5863600  24.2749380   5.2461480  25.8477690
  23.9418760   5.8730400  26.4898760  24.4516060   5.7723360  25.0679360
  23.4868480   7.2142280  27.6626870  24.1042480   7.8893360  27.3811320
  22.6261600   7.6230260  27.5714370  18.7800820   6.4042140  16.5433720
  18.4028800   6.8929240  15.8118620  19.0373890   7.0767420  17.1740250
  34.4046070   8.6781690  25.5781510  33.7209590   9.3480800  25.5698180
  34.9440360   8.8762340  24.8126370  31.9404810  10.5225820  24.2926690
  31.9531970  10.1188110  23.4248950  31.3880030  11.2973110  24.1888120
  33.2350230   7.2442040  19.3816860  33.1246560   6.3016370  19.5066280
  33.2318480   7.6057680  20.2679620  31.3390250   5.4255660  25.6209300
  31.7559040   5.2115770  24.7862760  32.0630070   5.6828450  26.1917920
  28.7770510   2.8707360  18.7379350  27.8499790   2.8044740  18.9667820
  28.9295330   3.8087490  18.6234590  35.2852350   3.8242880  25.7125540
  34.4570980   3.8935970  25.2375670  35.8802830   4.4097190  25.2441370
  32.8067800   4.4327660  19.2414600  32.1880220   4.0947210  18.5940900
  32.7892250   3.7887420  19.9493790  24.3827150   3.3972100  21.5199080
  23.9784150   2.6849350  21.0244980  24.4690270   3.0525340  22.4087120
  24.8508850   7.0839660  23.6838290  24.5537140   6.4785130  23.0046070
  25.8008670   7.1216970  23.5727650  32.9394460  10.6571530  27.3461390
  32.4625020  11.4643720  27.1534000  32.2556250  10.0049860  27.4987600
  23.9427280   6.8221350  30.3346090  23.0455810   7.0461320  30.5819490
  23.9680150   6.9456290  29.3857490  30.9832500   3.6714470  16.2487350
  31.4225780   2.8336900  16.1025170  31.6960920   4.3043870  16.3351490
  22.7698500   3.6934670  28.9103460  22.6306270   4.5657470  29.2790860
  21.8879860   3.3507480  28.7651400  29.0927880   8.6110540  20.2168590
  29.5323790   9.3534870  19.8023980  29.0314770   8.8537110  21.1407550
  24.5678850   9.6356370  31.1188610  24.5394280  10.0399320  30.2517040
  24.4043820   8.7066730  30.9560210  21.0831780   2.2917080  19.0205730
  20.9629380   3.0179170  18.4087000  20.7732670   1.5219990  18.5433640
  36.5193670  10.4183470  32.4152780  36.9953390  10.8966360  33.0941860
  37.1400830  10.3500960  31.6898280  18.7217150   5.4632220  24.8274370
  18.7997570   5.5980990  23.8830090  19.3358830   4.7548110  25.0202490
  19.9664780   7.1632410  21.2380550  19.5592860   7.3047000  20.3834150
  20.8577790   6.8792570  21.0351760  35.9226920   7.6096320  29.5752790
  36.0489980   7.3708200  28.6569970  35.9648300   6.7780860  30.0474870
  29.7843660  11.3124320  28.1447600  30.2988330  11.2232330  28.9470030
  28.9412740  11.6584020  28.4375510  31.7598060  11.5979660  17.5731600
  31.5999200  11.3082600  18.4713430  31.5944770  10.8219790  17.0376830
  24.2386440  11.3778190  19.3503220  24.0628920  10.4613730  19.1371020
  23.3842180  11.7365480  19.5901020  31.4624190   9.1067220  16.1329600
  30.7689350   9.1044510  15.4731880  32.2047050   8.6826540  15.7023770
  31.0274120  10.7329930  20.2078090  31.4831070   9.9519310  20.5216710
  31.3666640  11.4436750  20.7519270  18.7776670   6.5046390  27.3668830
  18.9407710   6.0351750  26.5488200  19.2429120   5.9969950  28.0317670
  25.2746470   1.9785800  15.6497910  24.7063370   1.5304050  15.0233820
  25.9835470   2.3378580  15.1163060  20.3515650   5.8797820  29.5264640
  19.9670440   5.2391490  30.1247600  20.6627840   6.5833940  30.0959370
  26.5012790   2.7274360  25.0073260  26.8682920   2.2532930  25.7534600
  26.3117850   3.6015930  25.3481600  24.2912160   1.7683000  27.3257470
  23.9869230   2.6474980  27.5507830  25.2458620   1.8282790  27.3614910
  22.8193950   5.9743990  17.9224320  22.0456210   5.4341610  17.7623040
  23.5488580   5.4550600  17.5842080  33.5781930   4.9709350  23.7150710
  34.2981050   5.4664640  23.3246820  33.3763750   4.2927240  23.0704580
  28.9600730   5.0418410  29.6019710  28.8938040   4.1214080  29.3477300
  28.3305870   5.1393850  30.3164350  22.8631350   5.6424370  21.5603130
  23.3810020   4.8392630  21.5060020  22.4115370   5.5803510  22.4019960
  27.7500850   6.9090650  16.8330430  28.0916550   7.6532880  16.3373750
  26.9213560   7.2221770  17.1955260  20.3475890   2.6085740  28.4728830
  19.9890830   3.2739590  29.0602170  20.0530450   1.7769290  28.8441450
  23.5489010   3.0669980  31.3568380  23.2489150   3.2127160  30.4596200
  24.3200250   2.5075270  31.2641770  28.8917460   7.8638980  29.3523510
  28.9062000   6.9319940  29.1342420  28.1842560   7.9498740  29.9913280
  34.0254530   2.0478800  15.6222120  33.9418250   2.4793020  14.7718560
  34.7448720   2.5077150  16.0548940  35.1028670   4.5046320  28.6992090
  34.3776860   5.0975100  28.5021480  35.6304130   4.4969860  27.9005460
  35.0541780   8.9021060  18.3504250  34.4117940   8.2476680  18.6247970
  34.6672440   9.3076150  17.5744920  30.6328260   6.2306490  22.1975940
  30.9852080   5.6334620  21.5377310  29.7490590   5.9050720  22.3684190
  26.7191540   6.9904180  19.6046350  27.4062670   7.5373390  19.9853940
  25.9323960   7.5344910  19.6395960  18.8583940   2.6077000  15.0963430
  19.7278790   2.8901800  15.3799350  18.3674260   3.4212870  14.9812240
  26.0218750   3.9950210  19.2171710  26.4781530   4.8055460  19.4431900
  25.6706960   3.6773350  20.0490200  28.3251360   9.5056550  26.4464010
  28.9693580   9.7115930  27.1237430  28.6880800   8.7444950  25.9934860
  29.5983440   7.5088900  25.1641460  30.2405670   6.8082060  25.2773630
  30.1232790   8.2887340  24.9838350  33.4439160   7.7937520  14.8880600
  33.2176740   7.0767960  15.4805240  33.0535360   7.5449960  14.0502350
  31.3721060   8.3083800  28.3677520  31.7077300   8.8950490  29.0455440
  30.4521400   8.1776510  28.5975310  19.2255190  11.8204380  15.6625060
  19.5852830  12.4193720  15.0082330  19.0847530  12.3664270  16.4360090
  33.0255410   5.7109460  16.5494760  32.7377110   6.1722150  17.3372640
  33.8207580   5.2507230  16.8178980  19.2097050  10.0859240  30.1367460
  19.3188170   9.1453980  29.9962850  18.5577610  10.3513990  29.4881190
  27.2009640   8.3575130  31.5365580  26.8806510   7.6384370  32.0811270
  26.5268000   9.0330200  31.6101640  25.2423810   9.2035580  16.4798730
  25.2333910   9.9365270  15.8643240  24.3222170   8.9567160  16.5725690
  20.8430450   4.4250470  17.2245490  20.2358400   5.1649370  17.2340790
  21.3179800   4.5149830  16.3983690  28.2283410   9.2663820  15.1423920
  28.3295390   9.0627810  14.2125900  27.3285150   9.0122100  15.3471700
  26.8701520  11.7850140  19.8371590  27.1243020  11.7471530  18.9150960
  25.9214000  11.6583470  19.8299840  32.8754100   2.7042020  21.4130100
  31.9344240   2.7192250  21.5877790  33.1898170   1.9177980  21.8590400
  22.8535740   4.3861620  14.9734060  23.6199010   4.2742980  15.5359490
  22.9310430   3.6899590  14.3210830  34.8779680   9.8750870  23.0884360
  35.0027100  10.6982040  23.5608170  35.7445240   9.6641600  22.7408510
  22.3497210  11.9682080  22.7601490  23.0859690  11.4197540  23.0310060
  22.7338130  12.8338090  22.6207480  19.2342690   8.0355650  18.6343000
  18.3082470   8.2776790  18.6248410  19.6999120   8.8629910  18.5127750
  21.3555490  11.1528150  31.9487070  22.1568220  11.4740200  32.3622470
  20.8407310  10.7923730  32.6706980  25.4599520  11.1412390  14.5827060
  26.2528130  11.4301220  14.1308850  24.9403870  10.7104560  13.9039540
  30.1920120   7.2608020  31.8962480  29.5858280   7.2839620  31.1558230
  29.8874230   6.5291060  32.4329730  31.6220490  10.9888310  30.5071890
  32.5742240  10.9046330  30.4572130  31.4748710  11.6530020  31.1805680
  34.5129690  10.3682520  16.0063800  34.2271200   9.9547660  15.1917980
  34.3149240  11.2970230  15.8864320  19.0753300   3.6401610  30.8923120
  19.5792320   3.0608890  31.4639350  18.3360720   3.9241840  31.4299490
  25.9776920   6.3615800  14.4469410  25.8727560   5.7468150  15.1730790
  25.8101140   5.8381690  13.6632420  26.1291240   5.0472600  30.4258640
  25.3636910   5.6157600  30.3413310  26.3107200   4.7548810  29.5326870
  29.2179650   5.4235830  15.0511400  28.6689750   5.8705130  15.6954140
  29.8398910   4.9185080  15.5749070  33.2714590   6.7777930  30.9833660
  34.0124060   7.1153690  30.4801120  32.5087270   6.9469990  30.4303430
  21.1076380   1.7831200  31.7873190  21.1481720   1.4845070  32.6958420
  21.9621880   2.1838810  31.6280710  24.8854770   4.3826750  16.9476700
  25.3071190   4.2166620  17.7908090  25.0105610   3.5726980  16.4531840
  27.3982410   3.4064360  14.1953800  27.9188070   2.6913380  13.8294950
  28.0450810   4.0450230  14.4954310  31.9460250   4.8292760  29.5188870
  32.3601270   4.9837840  30.3679290  31.0111250   4.9547980  29.6814650
  26.7075480   4.7813240  27.4884800  27.1263590   5.6245970  27.3161040
  25.7884110   4.9185280  27.2591580  29.0439380   2.5129420  28.8722640
  29.1635590   1.9170560  29.6117480  29.9033380   2.5499110  28.4523940
  31.3827280   3.0666610  27.4485150  30.8562500   3.5909230  26.8450290
  31.7258620   3.6994000  28.0794880  24.5582900  11.0866250  28.6042530
  24.0203990  11.8112310  28.2851230  24.8116860  10.6096590  27.8139870
  27.4145110  12.3217460  28.8629180  27.3403810  13.2252600  29.1701550
  26.5123950  12.0029360  28.8351250  27.9630440  11.4875970  16.4855540
  28.8581230  11.8260940  16.5074300  27.9948070  10.7655380  15.8579820
  21.6026600   6.8603020  14.7142540  22.0401470   7.4032690  15.3700120
  22.0874330   6.0349970  14.7238880  18.8172400   9.6492050  22.1662800
  19.1475410   8.7813110  21.9341440  19.2463400   9.8550570  22.9967760
  23.4134320   7.9801060  19.8264770  23.1129860   7.8566030  20.7268680
  23.3071810   7.1209650  19.4180500  19.3062610  10.5162640  24.9044430
  18.8693600  10.6963440  25.7368580  19.8740290  11.2737260  24.7626150
  34.9424790  10.0179640  29.1921740  34.3426780  10.0772200  28.4485660
  35.0718690   9.0784620  29.3218590  36.1826240   7.7597460  14.5291450
  35.3519200   7.8274110  14.9998680  36.3598070   8.6501580  14.2258310
  35.6382700   4.5044940  17.0325650  36.4001610   5.0741590  17.1385340
  35.6537070   3.9372140  17.8033960  19.1387040   3.0282870  21.2633310
  18.4835880   2.7594510  20.6193010  19.9764990   2.9187350  20.8135290
  36.6442670   5.3595040  21.8767580  37.0151500   4.5762360  21.4703550
  37.2844600   6.0484140  21.6984880  33.6276430   6.7431620  27.2897900
  32.8136270   7.1728780  27.5523690  34.0350630   7.3550030  26.6766950
  35.6901870   4.7979310  14.1898170  35.9650710   5.7058190  14.0617390
  35.5012610   4.7341840  15.1260160  35.5867210   2.7348300  19.1827600
  35.2110810   1.9676230  18.7508890  34.8570330   3.1171000  19.6702530
  20.1762970   3.4135440  25.8036650  20.5436010   3.3262840  26.6832670
  19.6073790   2.6501990  25.7043510  34.9766830   1.8819820  28.8167120
  34.7452920   1.6532570  27.9165070  35.2371380   2.8019370  28.7712010
  33.6852480  11.4950220  20.8166170  34.2811550  11.1734790  20.1400590
  33.9430630  11.0222040  21.6079440  21.5915050   7.9268130  30.9656800
  21.5484680   7.5561040  31.8471260  21.7226060   8.8645700  31.1058620
  25.2921080   9.4827720  26.5666520  25.0512440   9.7502280  25.6797040
  26.2323720   9.6533450  26.6217380  36.5525240  11.5022100  27.3677160
  36.0583520  11.8990970  26.6504290  35.9438530  10.8771310  27.7614440
  21.4303080  10.8730380  28.0854580  20.8363400  10.7415080  28.8244620
  21.4226920  10.0368520  27.6196680  34.2364690  12.1445520  24.6463900
  33.7767660  12.8961330  24.2721920  33.6077150  11.4251990  24.5878700
  21.0615310   8.2388760  27.0362620  20.3349370   7.6194050  26.9688570
  21.1224460   8.6329370  26.1660700  24.6660410  10.4533760  23.8212030
  25.1825430   9.8421120  23.2960290  25.3157790  10.9562540  24.3123040
  27.4055910  11.3442250  24.6481010  27.6933720  11.0896550  23.7714020
  27.9179130  10.7919610  25.2386580  19.3445310  11.5563150  20.2459380
  19.1767350  10.9233830  20.9441270  18.4779820  11.7622550  19.8953570
  20.9508010  10.2496380  17.6909520  20.4255630  10.6304410  16.9871480
  20.8752590  10.8747150  18.4119230  27.4728270  12.2658350  32.0149210
  28.3995580  12.0302620  32.0585170  27.4578700  13.0930350  31.5335240
  35.7073330  11.8083920  19.0123460  35.8825520  11.1221660  18.3684380
  35.0094900  12.3330970  18.6200130  23.5500980  12.1978760  16.5658770
  24.2819800  11.9138040  16.0182660  23.8094650  11.9592040  17.4558150
  22.7115770   8.3143490  16.5705100  22.0824650   8.7828590  17.1190930
  22.8263600   7.4692710  17.0051290  34.0405830  11.4928210  31.8390250
  34.8331150  10.9977440  31.6316210  34.3338980  12.1718350  32.4465860
  28.2983530   4.1428170   4.6015570  27.5225630   3.6628610   4.8914140
  28.9496460   3.4633820   4.4271730  22.3149360   4.4547980   5.4791330
  21.4834240   4.1996690   5.8787840  22.9230340   4.5258750   6.2149250
  32.3190960   8.5488360   3.3814700  31.8572490   7.7775600   3.7101870
  33.1316510   8.5754430   3.8867150  22.2950620   8.4888070   5.6749350
  22.5978660   7.5985810   5.4959570  23.0394210   9.0458290   5.4471600
  28.5454270  10.8346370   3.0018690  27.9265710  11.2903870   2.4313130
  29.4006050  10.9897830   2.6008390  27.7392520   6.8185360   4.6085730
  27.6700800   5.8775300   4.4474860  28.5012380   6.9086770   5.1808300
  24.2749380   5.2461480   7.0734200  23.9418760   5.8730400   7.7155270
  24.4516060   5.7723360   6.2935870  23.4868480   7.2142280   8.8883380
  24.1042480   7.8893360   8.6067830  22.6261600   7.6230260   8.7970880
  34.4046070   8.6781690   6.8038020  33.7209590   9.3480800   6.7954690
  34.9440360   8.8762340   6.0382880  31.9404810  10.5225820   5.5183200
  31.9531970  10.1188110   4.6505460  31.3880030  11.2973110   5.4144630
  31.3390250   5.4255660   6.8465810  31.7559040   5.2115770   6.0119270
  32.0630070   5.6828450   7.4174430  35.2852350   3.8242880   6.9382050
  34.4570980   3.8935970   6.4632180  35.8802830   4.4097190   6.4697880
  24.3827150   3.3972100   2.7455590  23.9784150   2.6849350   2.2501490
  24.4690270   3.0525340   3.6343630  24.8508850   7.0839660   4.9094800
  24.5537140   6.4785130   4.2302580  25.8008670   7.1216970   4.7984160
  32.9394460  10.6571530   8.5717900  32.4625020  11.4643720   8.3790510
  32.2556250  10.0049860   8.7244110  23.9427280   6.8221350  11.5602600
  23.0455810   7.0461320  11.8076000  23.9680150   6.9456290  10.6114000
  22.7698500   3.6934670  10.1359970  22.6306270   4.5657470  10.5047370
  21.8879860   3.3507480   9.9907910  24.5678850   9.6356370  12.3445120
  24.5394280  10.0399320  11.4773550  24.4043820   8.7066730  12.1816720
  36.5193670  10.4183470  13.6409290  36.9953390  10.8966360  14.3198370
  37.1400830  10.3500960  12.9154790  18.7217150   5.4632220   6.0530880
  18.7997570   5.5980990   5.1086600  19.3358830   4.7548110   6.2459000
  19.9664780   7.1632410   2.4637060  19.5592860   7.3047000   1.6090660
  20.8577790   6.8792570   2.2608270  35.9226920   7.6096320  10.8009300
  36.0489980   7.3708200   9.8826480  35.9648300   6.7780860  11.2731380
  29.7843660  11.3124320   9.3704110  30.2988330  11.2232330  10.1726540
  28.9412740  11.6584020   9.6632020  18.7776670   6.5046390   8.5925340
  18.9407710   6.0351750   7.7744710  19.2429120   5.9969950   9.2574180
  20.3515650   5.8797820  10.7521150  19.9670440   5.2391490  11.3504110
  20.6627840   6.5833940  11.3215880  26.5012790   2.7274360   6.2329770
  26.8682920   2.2532930   6.9791110  26.3117850   3.6015930   6.5738110
  24.2912160   1.7683000   8.5513980  23.9869230   2.6474980   8.7764340
  25.2458620   1.8282790   8.5871420  33.5781930   4.9709350   4.9407220
  34.2981050   5.4664640   4.5503330  33.3763750   4.2927240   4.2961090
  28.9600730   5.0418410  10.8276220  28.8938040   4.1214080  10.5733810
  28.3305870   5.1393850  11.5420860  22.8631350   5.6424370   2.7859640
  23.3810020   4.8392630   2.7316530  22.4115370   5.5803510   3.6276470
  20.3475890   2.6085740   9.6985340  19.9890830   3.2739590  10.2858680
  20.0530450   1.7769290  10.0697960  23.5489010   3.0669980  12.5824890
  23.2489150   3.2127160  11.6852710  24.3200250   2.5075270  12.4898280
  28.8917460   7.8638980  10.5780020  28.9062000   6.9319940  10.3598930
  28.1842560   7.9498740  11.2169790  35.1028670   4.5046320   9.9248600
  34.3776860   5.0975100   9.7277990  35.6304130   4.4969860   9.1261970
  30.6328260   6.2306490   3.4232450  30.9852080   5.6334620   2.7633820
  29.7490590   5.9050720   3.5940700  28.3251360   9.5056550   7.6720520
  28.9693580   9.7115930   8.3493940  28.6880800   8.7444950   7.2191370
  29.5983440   7.5088900   6.3897970  30.2405670   6.8082060   6.5030140
  30.1232790   8.2887340   6.2094860  31.3721060   8.3083800   9.5934030
  31.7077300   8.8950490  10.2711950  30.4521400   8.1776510   9.8231820
  19.2097050  10.0859240  11.3623970  19.3188170   9.1453980  11.2219360
  18.5577610  10.3513990  10.7137700  27.2009640   8.3575130  12.7622090
  26.8806510   7.6384370  13.3067780  26.5268000   9.0330200  12.8358150
  32.8754100   2.7042020   2.6386610  31.9344240   2.7192250   2.8134300
  33.1898170   1.9177980   3.0846910  34.8779680   9.8750870   4.3140870
  35.0027100  10.6982040   4.7864680  35.7445240   9.6641600   3.9665020
  22.3497210  11.9682080   3.9858000  23.0859690  11.4197540   4.2566570
  22.7338130  12.8338090   3.8463990  21.3555490  11.1528150  13.1743580
  22.1568220  11.4740200  13.5878980  20.8407310  10.7923730  13.8963490
  30.1920120   7.2608020  13.1218990  29.5858280   7.2839620  12.3814740
  29.8874230   6.5291060  13.6586240  31.6220490  10.9888310  11.7328400
  32.5742240  10.9046330  11.6828640  31.4748710  11.6530020  12.4062190
  19.0753300   3.6401610  12.1179630  19.5792320   3.0608890  12.6895860
  18.3360720   3.9241840  12.6556000  26.1291240   5.0472600  11.6515150
  25.3636910   5.6157600  11.5669820  26.3107200   4.7548810  10.7583380
  33.2714590   6.7777930  12.2090170  34.0124060   7.1153690  11.7057630
  32.5087270   6.9469990  11.6559940  21.1076380   1.7831200  13.0129700
  21.1481720   1.4845070  13.9214930  21.9621880   2.1838810  12.8537220
  31.9460250   4.8292760  10.7445380  32.3601270   4.9837840  11.5935800
  31.0111250   4.9547980  10.9071160  26.7075480   4.7813240   8.7141310
  27.1263590   5.6245970   8.5417550  25.7884110   4.9185280   8.4848090
  29.0439380   2.5129420  10.0979150  29.1635590   1.9170560  10.8373990
  29.9033380   2.5499110   9.6780450  31.3827280   3.0666610   8.6741660
  30.8562500   3.5909230   8.0706800  31.7258620   3.6994000   9.3051390
  24.5582900  11.0866250   9.8299040  24.0203990  11.8112310   9.5107740
  24.8116860  10.6096590   9.0396380  27.4145110  12.3217460  10.0885690
  27.3403810  13.2252600  10.3958060  26.5123950  12.0029360  10.0607760
  18.8172400   9.6492050   3.3919310  19.1475410   8.7813110   3.1597950
  19.2463400   9.8550570   4.2224270  19.3062610  10.5162640   6.1300940
  18.8693600  10.6963440   6.9625090  19.8740290  11.2737260   5.9882660
  34.9424790  10.0179640  10.4178250  34.3426780  10.0772200   9.6742170
  35.0718690   9.0784620  10.5475100  19.1387040   3.0282870   2.4889820
  18.4835880   2.7594510   1.8449520  19.9764990   2.9187350   2.0391800
  36.6442670   5.3595040   3.1024090  37.0151500   4.5762360   2.6960060
  37.2844600   6.0484140   2.9241390  33.6276430   6.7431620   8.5154410
  32.8136270   7.1728780   8.7780200  34.0350630   7.3550030   7.9023460
  20.1762970   3.4135440   7.0293160  20.5436010   3.3262840   7.9089180
  19.6073790   2.6501990   6.9300020  34.9766830   1.8819820  10.0423630
  34.7452920   1.6532570   9.1421580  35.2371380   2.8019370   9.9968520
  21.5915050   7.9268130  12.1913310  21.5484680   7.5561040  13.0727770
  21.7226060   8.8645700  12.3315130  25.2921080   9.4827720   7.7923030
  25.0512440   9.7502280   6.9053550  26.2323720   9.6533450   7.8473890
  36.5525240  11.5022100   8.5933670  36.0583520  11.8990970   7.8760800
  35.9438530  10.8771310   8.9870950  21.4303080  10.8730380   9.3111090
  20.8363400  10.7415080  10.0501130  21.4226920  10.0368520   8.8453190
  34.2364690  12.1445520   5.8720410  33.7767660  12.8961330   5.4978430
  33.6077150  11.4251990   5.8135210  21.0615310   8.2388760   8.2619130
  20.3349370   7.6194050   8.1945080  21.1224460   8.6329370   7.3917210
  24.6660410  10.4533760   5.0468540  25.1825430   9.8421120   4.5216800
  25.3157790  10.9562540   5.5379550  27.4055910  11.3442250   5.8737520
  27.6933720  11.0896550   4.9970530  27.9179130  10.7919610   6.4643090
  27.4728270  12.2658350  13.2405720  28.3995580  12.0302620  13.2841680
  27.4578700  13.0930350  12.7591750  34.0405830  11.4928210  13.0646760
  34.8331150  10.9977440  12.8572720  34.3338980  12.1718350  13.6722370
  11.3922000  96.2366600  59.0436770  11.3116050  95.3221210  58.7728480
  10.9786420  96.7333670  58.3376480   9.5240040  98.0145620  60.9246040
   8.7482140  97.5346060  61.2144610  10.1752970  97.3351270  60.7502200
   3.5405870  98.3265430  61.8021800   2.7090750  98.0714140  62.2018310
   4.1486850  98.3976200  62.5379720   9.9954200  93.4973190  61.1585130
  10.3719020  92.6245070  61.0458800   9.8973710  93.8331890  60.2675570
   4.1259210  91.8698820  56.6202570   4.2325960  92.7702550  56.9271330
   3.2151570  91.8216790  56.3297220  13.7778320  90.9923630  58.0913470
  14.5987940  90.5020200  58.1338950  13.8112400  91.5821290  58.8445310
   5.9666940  94.8385190  60.9527750   6.4745160  95.3366160  61.5932770
   6.4980180  94.0620390  60.7767110  14.0139800  92.9324010  60.8641010
  13.3095370  93.2208900  61.4444120  14.3751960  93.7424120  60.5040570
   3.9318370  91.1893710  63.2261620   4.2735180  92.0335760  62.9315490
   2.9934180  91.3377450  63.3426960  17.0826720  92.3778800  61.2550220
  16.1351630  92.4117780  61.3865650  17.4076710  93.1917750  61.6399580
   7.6146260  88.6775980  59.5506210   7.9221240  88.1222870  58.8341710
   6.6846960  88.8120440  59.3679200  10.0027020  96.7424810  56.2866330
   9.0756300  96.6762190  56.5154800  10.1551840  97.6804940  56.1721570
   9.9896100  93.0141810  53.2833490   9.0499770  93.1755770  53.3685950
  10.3079360  93.7327490  52.7369480  16.5108860  97.6960330  63.2612520
  15.6827490  97.7653420  62.7862650  17.1059340  98.2814640  62.7928350
  14.0324310  98.3045110  56.7901580  13.4136730  97.9664660  56.1427880
  14.0148760  97.6604870  57.4980770   5.6083660  97.2689550  59.0686060
   5.2040660  96.5566800  58.5731960   5.6946780  96.9242790  59.9574100
  12.2089010  97.5431920  53.7974330  12.6482290  96.7054350  53.6512150
  12.9217430  98.1761320  53.8838470  15.7906150  88.7974730  52.1115370
  15.4778810  88.8901560  53.0114440  16.5518620  89.3755760  52.0612800
   2.3088290  96.1634530  56.5692710   2.1885890  96.8896620  55.9573980
   1.9989180  95.3937440  56.0920620   4.7751950  89.5069600  59.9516380
   4.3320100  90.2879140  59.6200900   5.3336940  89.8299490  60.6587320
   7.8910770  89.1280300  54.8322210   7.2664950  89.1240170  55.5575520
   7.8040890  88.2611260  54.4358180   6.8127850  90.0516930  61.8105980
   7.1100180  90.9579760  61.7298000   7.3613410  89.5635710  61.1965550
   4.5666170  94.6303170  57.6797630   4.3407090  94.4140340  58.5844250
   3.7858700  95.0631630  57.3343600  11.7963930  94.6366540  56.2788280
  11.1972820  95.3602340  56.0951900  12.3443540  94.5743320  55.4964730
  10.4028800  93.2730080  58.3091560  10.7958370  93.5902280  57.4960250
  10.7645650  92.3941960  58.4236080  10.9883940  95.8635830  62.4042340
  10.2565060  96.3722640  62.7532440  10.5908280  95.0465810  62.1031120
   7.4261330  92.5390030  60.8094830   7.4297390  92.0979980  59.9599370
   8.3212450  92.8607360  60.9166650   3.2763710  92.4216520  59.7689040
   2.9363760  92.8991750  60.5256090   2.5141030  91.9681640  59.4090140
   7.4881480  93.5402110  53.8001590   7.6094300  93.4988590  54.7487410
   7.1029990  94.4026260  53.6448320  11.4509850  91.3169510  61.8165280
  11.4682590  91.7678160  62.6607130  11.2025430  90.4175150  62.0298720
   6.5002980  95.8503250  53.1984890   5.9319880  95.4021500  52.5720800
   7.2091980  96.2096030  52.6650040   7.7269300  96.5991810  62.5560240
   8.0939430  96.1250380  63.3021580   7.5374360  97.4733380  62.8968580
  10.2648380  90.2364760  55.4067080   9.4512990  89.7377930  55.3312390
  10.0710330  91.0763010  54.9903430  12.9796770  94.6084410  53.7029240
  13.8676390  94.9201640  53.5280580  12.9501860  93.7356660  53.3109820
  15.2511040  95.9196250  53.1709100  15.1674760  96.3510470  52.3205540
  15.9705230  96.3794600  53.6035920   7.2475260  97.8667660  56.7658690
   7.7038040  98.6772910  56.9918880   6.8963470  97.5490800  57.5977180
   3.1487040  88.2105310  57.2381210   3.0201670  88.2023210  58.1866130
   2.3249060  88.5488400  56.8872220  15.0081780  91.4175680  55.2576920
  14.3794940  91.5221350  54.5435150  14.5133700  91.6372460  56.0470800
   6.9765810  93.6961630  56.6734800   6.2681960  94.1647970  57.1148410
   7.2610290  93.0383640  57.3079990  11.0081240  90.4212290  58.1130590
  10.8849020  90.4398420  57.1640100  11.9565800  90.4691230  58.2328990
   5.1800830  92.0046710  54.0485510   6.0291360  92.4416860  53.9825700
   4.8132100  92.3166970  54.8757570  14.1010610  96.5759470  58.9617080
  13.1600750  96.5909700  59.1364770  14.4154680  95.7895430  59.4077380
   4.0792250  98.2579070  52.5221040   4.8455520  98.1460430  53.0846470
   4.1566940  97.5617040  51.8697810   2.7739010  95.6904140  53.2053930
   2.8542600  94.7431650  53.3171330   3.6658760  96.0211020  53.3114590
   6.1111280  98.2544200  54.4963680   6.5327700  98.0884070  55.3395070
   6.2362120  97.4444430  54.0018820   8.6238920  97.2781810  51.7440780
   9.1444580  96.5630830  51.3781930   9.2707320  97.9167680  52.0441290
   5.0070180  94.3277430  51.4421840   4.8059240  93.4644790  51.8035180
   4.8362230  94.2410790  50.5043440  12.4858490  89.1385660  53.9708720
  12.7660780  88.2953560  54.3268140  11.7124220  89.3708770  54.4847470
   3.8052980  91.4278050  51.4299720   4.1078880  91.4345480  50.5218870
   4.5447570  91.0775910  51.9267380   7.0237910  90.3712670  52.4155920
   6.6759910  89.6936660  51.8358370   7.2250680  89.9102180  53.2299310
  13.3133990  91.6941610  53.0338780  13.7318870  91.5072590  52.1935440
  13.0070050  90.8420660  53.3441710  16.8123720  96.6065750  56.7314580
  16.4367320  95.8393680  56.2995870  16.0826840  96.9888450  57.2189510
  16.0874680  94.8323240  60.0321820  16.6112160  94.3385890  59.4011990
  16.6734100  94.9673600  60.7769390   1.7683000  89.2204120  51.7042650
   2.4911130  89.7613060  52.0223870   2.0407520  88.9467540  50.8284190
  15.5774650  94.0896590  55.9714230  16.0733770  93.8567460  56.7563110
  15.3790720  93.2508430  55.5551870  17.0061810  92.7257540  58.5051910
  16.8961090  92.5713580  59.4434180  17.7669400  92.1978480  58.2627320
  17.8952080  90.5565460  51.7458050  18.8201390  90.4246640  51.5376340
  17.8727870  90.6358280  52.6994500  17.9690570  91.3276120  54.3714760
  17.1742070  91.2621240  54.9007670  18.1733850  92.2626760  54.3600110
   9.8489430  88.9549900  62.7764500   9.0661220  89.4295400  63.0561260
   9.5552360  88.0504730  62.6677680  14.4010500  89.6573000  60.8213590
  14.8418590  89.6018100  59.9735190  14.1318090  90.5731010  60.8923770
  16.2649070  89.2888240  58.8322410  16.2037470  88.3449460  58.6853430
  17.0441100  89.3968330  59.3775870   7.7343650  91.3736650  58.2880530
   6.9218160  90.9993540  57.9476410   8.2385290  90.6181730  58.5901720
  12.2368630  88.0379100  59.5263600  12.8398000  88.6099310  60.0012120
  11.4961620  88.6018540  59.3037500  15.3803230  88.4400660  54.8003880
  15.5753860  89.3384110  55.0671310  14.5933100  88.2087740  55.2936830
   3.5654990  89.7861430  53.8380190   4.0947750  88.9991230  53.7088140
   4.1983310  90.4652620  54.0715720   5.7592830  89.5236570  56.8925580
   5.1295570  88.8223880  57.0595710   5.2197970  90.2840700  56.6758740
  11.3922000  96.2366600  40.2693280  11.3116050  95.3221210  39.9984990
  10.9786420  96.7333670  39.5632990   9.5240040  98.0145620  42.1502550
   8.7482140  97.5346060  42.4401120  10.1752970  97.3351270  41.9758710
   3.5405870  98.3265430  43.0278310   2.7090750  98.0714140  43.4274820
   4.1486850  98.3976200  43.7636230   9.9954200  93.4973190  42.3841640
  10.3719020  92.6245070  42.2715310   9.8973710  93.8331890  41.4932080
   4.1259210  91.8698820  37.8459080   4.2325960  92.7702550  38.1527840
   3.2151570  91.8216790  37.5553730  13.7778320  90.9923630  39.3169980
  14.5987940  90.5020200  39.3595460  13.8112400  91.5821290  40.0701820
   5.9666940  94.8385190  42.1784260   6.4745160  95.3366160  42.8189280
   6.4980180  94.0620390  42.0023620  18.0677870  93.0090380  45.8813610
  17.3630040  93.3972090  45.3628720  18.3335790  93.7040670  46.4834540
   4.2503040  89.4783750  46.4447680   4.2521480  89.9956140  45.6393580
   3.4207350  89.0013930  46.4217610  14.0139800  92.9324010  42.0897520
  13.3095370  93.2208900  42.6700630  14.3751960  93.7424120  41.7297080
   3.9318370  91.1893710  44.4518130   4.2735180  92.0335760  44.1572000
   2.9934180  91.3377450  44.5683470  17.0826720  92.3778800  42.4806730
  16.1351630  92.4117780  42.6122160  17.4076710  93.1917750  42.8656090
   7.6146260  88.6775980  40.7762720   7.9221240  88.1222870  40.0598220
   6.6846960  88.8120440  40.5935710  10.0027020  96.7424810  37.5122840
   9.0756300  96.6762190  37.7411310  10.1551840  97.6804940  37.3978080
   9.9896100  93.0141810  34.5090000   9.0499770  93.1755770  34.5942460
  10.3079360  93.7327490  33.9625990  16.5108860  97.6960330  44.4869030
  15.6827490  97.7653420  44.0119160  17.1059340  98.2814640  44.0184860
  14.0324310  98.3045110  38.0158090  13.4136730  97.9664660  37.3684390
  14.0148760  97.6604870  38.7237280  13.4750870  94.4829650  45.4323900
  13.0622050  95.3083360  45.6863890  12.7426820  93.8974690  45.2400260
   5.6083660  97.2689550  40.2942570   5.2040660  96.5566800  39.7988470
   5.6946780  96.9242790  41.1830610   4.3212280  94.0432760  44.0741610
   4.8726870  94.1528100  43.2994860   4.8355790  94.4170360  44.7896840
  12.2089010  97.5431920  35.0230840  12.6482290  96.7054350  34.8768660
  12.9217430  98.1761320  35.1094980   3.9955010  97.5652120  47.6846950
   3.8562780  98.4374920  48.0534350   3.1136370  97.2224930  47.5394890
  15.7906150  88.7974730  33.3371880  15.4778810  88.8901560  34.2370950
  16.5518620  89.3755760  33.2869310   2.3088290  96.1634530  37.7949220
   2.1885890  96.8896620  37.1830490   1.9989180  95.3937440  37.3177130
  17.0007440  93.5346230  49.3146020  16.3851710  94.0425900  48.7861480
  16.6803860  92.6344560  49.2571960   4.7751950  89.5069600  41.1772890
   4.3320100  90.2879140  40.8457410   5.3336940  89.8299490  41.8843830
   9.0621760  92.3738120  46.7808210   8.6001130  92.5821140  47.5928150
   8.6599870  91.5597470  46.4778880  14.0626270  93.5947070  47.9104870
  13.2119860  93.2952820  48.2313940  13.9028060  93.8389080  46.9988690
  11.1575980  95.0948820  50.0103660  11.4829390  94.2612570  49.6705890
  11.9456310  95.6177340  50.1581990   7.8910770  89.1280300  36.0578720
   7.2664950  89.1240170  36.7832030   7.8040890  88.2611260  35.6614690
   6.8127850  90.0516930  43.0362490   7.1100180  90.9579760  42.9554510
   7.3613410  89.5635710  42.4222060   4.5666170  94.6303170  38.9054140
   4.3407090  94.4140340  39.8100760   3.7858700  95.0631630  38.5600110
  11.7963930  94.6366540  37.5044790  11.1972820  95.3602340  37.3208410
  12.3443540  94.5743320  36.7221240   7.0065380  95.5288750  49.5714410
   6.9108980  94.5883480  49.4214810   7.8497360  95.7503820  49.1762480
  10.4028800  93.2730080  39.5348070  10.7958370  93.5902280  38.7216760
  10.7645650  92.3941960  39.6492590   8.7120970  92.0237390  50.7944930
   8.0219290  91.8309590  51.4291020   9.4553270  92.3072030  51.3269230
  10.9883940  95.8635830  43.6298850  10.2565060  96.3722640  43.9788950
  10.5908280  95.0465810  43.3287630   7.4261330  92.5390030  42.0351340
   7.4297390  92.0979980  41.1855880   8.3212450  92.8607360  42.1423160
   3.2763710  92.4216520  40.9945550   2.9363760  92.8991750  41.7512600
   2.5141030  91.9681640  40.6346650   7.4881480  93.5402110  35.0258100
   7.6094300  93.4988590  35.9743920   7.1029990  94.4026260  34.8704830
  11.4509850  91.3169510  43.0421790  11.4682590  91.7678160  43.8863640
  11.2025430  90.4175150  43.2555230   6.5002980  95.8503250  34.4241400
   5.9319880  95.4021500  33.7977310   7.2091980  96.2096030  33.8906550
  14.8780600  88.7301690  48.8808170  15.2026370  87.9991350  49.4066150
  14.9137110  88.4115330  47.9789160   7.7269300  96.5991810  43.7816750
   8.0939430  96.1250380  44.5278090   7.5374360  97.4733380  44.1225090
   5.5168670  95.6400450  46.1000960   5.2125740  96.5192430  46.3251320
   6.4715130  95.7000240  46.1358400  10.2648380  90.2364760  36.6323590
   9.4512990  89.7377930  36.5568900  10.0710330  91.0763010  36.2159940
  12.9796770  94.6084410  34.9285750  13.8676390  94.9201640  34.7537090
  12.9501860  93.7356660  34.5366330   4.7745520  96.9387430  50.1311870
   4.4745660  97.0844610  49.2339690   5.5456760  96.3792720  50.0385260
  15.2511040  95.9196250  34.3965610  15.1674760  96.3510470  33.5462050
  15.9705230  96.3794600  34.8292430   7.2475260  97.8667660  37.9915200
   7.7038040  98.6772910  38.2175390   6.8963470  97.5490800  38.8233690
   3.1487040  88.2105310  38.4637720   3.0201670  88.2023210  39.4122640
   2.3249060  88.5488400  38.1128730  11.6419750  92.4618740  45.6745870
  12.0100570  91.6413950  46.0025440  10.7817950  92.5220630  46.0901520
  15.0081780  91.4175680  36.4833430  14.3794940  91.5221350  35.7691660
  14.5133700  91.6372460  37.2727310   6.9765810  93.6961630  37.8991310
   6.2681960  94.1647970  38.3404920   7.2610290  93.0383640  38.5336500
   8.6021740  95.1158330  45.8983840   9.1006990  95.5904150  46.5635690
   8.7444690  94.1921850  46.1053870  11.0081240  90.4212290  39.3387100
  10.8849020  90.4398420  38.3896610  11.9565800  90.4691230  39.4585500
   5.1800830  92.0046710  35.2742020   6.0291360  92.4416860  35.2082210
   4.8132100  92.3166970  36.1014080  15.8088600  91.3326290  46.7412230
  15.3062200  92.0731690  47.0806040  16.6245260  91.7210290  46.4249020
  14.1010610  96.5759470  40.1873590  13.1600750  96.5909700  40.3621280
  14.4154680  95.7895430  40.6333890   4.0792250  98.2579070  33.7477550
   4.8455520  98.1460430  34.3102980   4.1566940  97.5617040  33.0954320
   2.7739010  95.6904140  34.4310440   2.8542600  94.7431650  34.5427840
   3.6658760  96.0211020  34.5371100   2.3332890  95.6548650  50.5616680
   2.3738230  95.3562520  51.4701910   3.1878390  96.0556260  50.4024200
   6.1111280  98.2544200  35.7220190   6.5327700  98.0884070  36.5651580
   6.2362120  97.4444430  35.2275330   4.2738700  94.2340750  48.5291170
   3.7435160  93.7431700  47.9014510   4.9426770  94.6624950  47.9949100
   8.6238920  97.2781810  32.9697290   9.1444580  96.5630830  32.6038440
   9.2707320  97.9167680  33.2697800  13.6438930  96.0406370  50.2971510
  14.2259700  95.2858690  50.2091990  13.8200700  96.5713810  49.5202990
   4.7611000  91.2003120  48.6088460   4.6667870  90.5823870  47.8839330
   4.1808390  91.9269410  48.3818370   7.5272440  89.7576360  45.6415850
   7.0789740  89.7800620  44.7961400   6.8937640  89.3595380  46.2386150
  10.2695890  96.3846870  47.6466130  10.3892100  95.7888010  48.3860970
  11.1289890  96.4216560  47.2267430  12.6083790  96.9384060  46.2228640
  12.0819010  97.4626680  45.6193780  12.9515130  97.5711450  46.8538370
   5.0070180  94.3277430  32.6678350   4.8059240  93.4644790  33.0291690
   4.8362230  94.2410790  31.7299950   7.0364660  92.9268220  48.9041950
   7.6264350  92.6184070  49.5919770   6.2184900  92.4547970  49.0601850
  11.8558090  92.5434030  49.1374970  11.1673610  91.8815570  49.0724960
  12.5764110  92.0972300  49.5823430  12.4858490  89.1385660  35.1965230
  12.7660780  88.2953560  35.5524650  11.7124220  89.3708770  35.7103980
   3.8052980  91.4278050  32.6556230   4.1078880  91.4345480  31.7475380
   4.5447570  91.0775910  33.1523890   7.0237910  90.3712670  33.6412430
   6.6759910  89.6936660  33.0614880   7.2250680  89.9102180  34.4555820
  13.3133990  91.6941610  34.2595290  13.7318870  91.5072590  33.4191950
  13.0070050  90.8420660  34.5698220  16.8123720  96.6065750  37.9571090
  16.4367320  95.8393680  37.5252380  16.0826840  96.9888450  38.4446020
  16.2023340  95.7537270  47.5910610  15.9709430  95.5250020  46.6908560
  16.4627890  96.6736820  47.5455500  14.6411410  90.9793700  50.3690310
  15.5181590  90.9877100  50.7524310  14.6532250  90.2424540  49.7582660
  16.0874680  94.8323240  41.2578330  16.6112160  94.3385890  40.6268500
  16.6734100  94.9673600  42.0025900  16.2664400  94.9163110  44.7797880
  15.3167110  94.8826650  44.8942870  16.4477410  95.8263220  44.5447650
   1.7683000  89.2204120  32.9299160   2.4911130  89.7613060  33.2480380
   2.0407520  88.9467540  32.0540700  15.5774650  94.0896590  37.1970740
  16.0733770  93.8567460  37.9819620  15.3790720  93.2508430  36.7808380
  17.0061810  92.7257540  39.7308420  16.8961090  92.5713580  40.6690690
  17.7669400  92.1978480  39.4883830  15.3527530  88.6651670  46.1891420
  15.9899750  89.2785810  46.5550610  15.5002420  88.7012330  45.2440650
  17.8952080  90.5565460  32.9714560  18.8201390  90.4246640  32.7632850
  17.8727870  90.6358280  33.9251010  17.9690570  91.3276120  35.5971270
  17.1742070  91.2621240  36.1264180  18.1733850  92.2626760  35.5856620
   8.7232010  89.8177860  49.0966520   8.6620900  90.4099690  49.8461930
   9.6632390  89.7103820  48.9516780  11.3606570  89.4747920  48.7358810
  11.9746980  89.7927210  48.0739890  11.9056130  88.9896510  49.3554670
   1.8827830  88.1542180  48.8497870   2.4310820  87.9730230  48.0863980
   1.9483140  87.3636290  49.3854180  12.1014610  88.0380060  45.0628100
  11.2274450  88.3715170  44.8601030  11.9925360  87.5653240  45.8879970
  13.0086590  90.2450930  46.4469820  12.6799950  89.4302690  46.0671550
  13.9568890  90.2020740  46.3235510   9.8489430  88.9549900  44.0021010
   9.0661220  89.4295400  44.2817770   9.5552360  88.0504730  43.8934190
  14.4010500  89.6573000  42.0470100  14.8418590  89.6018100  41.1991700
  14.1318090  90.5731010  42.1180280  16.2649070  89.2888240  40.0578920
  16.2037470  88.3449460  39.9109940  17.0441100  89.3968330  40.6032380
   7.7343650  91.3736650  39.5137040   6.9218160  90.9993540  39.1732920
   8.2385290  90.6181730  39.8158230  12.2368630  88.0379100  40.7520110
  12.8398000  88.6099310  41.2268630  11.4961620  88.6018540  40.5294010
  15.3803230  88.4400660  36.0260390  15.5753860  89.3384110  36.2927820
  14.5933100  88.2087740  36.5193340   3.5654990  89.7861430  35.0636700
   4.0947750  88.9991230  34.9344650   4.1983310  90.4652620  35.2972230
   5.7592830  89.5236570  38.1182090   5.1295570  88.8223880  38.2852220
   5.2197970  90.2840700  37.9015250   5.8848390  88.8020550  50.5534580
   5.6032660  89.3054150  49.7895400   6.2668090  88.0042300  50.1876710
  12.4863850  88.2174130  51.1315050  12.3729300  88.5368740  52.0266570
  13.3033590  88.6186640  50.8352330  11.3922000  96.2366600  21.4949790
  11.3116050  95.3221210  21.2241500  10.9786420  96.7333670  20.7889500
   9.5240040  98.0145620  23.3759060   8.7482140  97.5346060  23.6657630
  10.1752970  97.3351270  23.2015220   3.5405870  98.3265430  24.2534820
   2.7090750  98.0714140  24.6531330   4.1486850  98.3976200  24.9892740
   9.9954200  93.4973190  23.6098150  10.3719020  92.6245070  23.4971820
   9.8973710  93.8331890  22.7188590   4.1259210  91.8698820  19.0715590
   4.2325960  92.7702550  19.3784350   3.2151570  91.8216790  18.7810240
  13.7778320  90.9923630  20.5426490  14.5987940  90.5020200  20.5851970
  13.8112400  91.5821290  21.2958330   5.9666940  94.8385190  23.4040770
   6.4745160  95.3366160  24.0445790   6.4980180  94.0620390  23.2280130
  18.0677870  93.0090380  27.1070120  17.3630040  93.3972090  26.5885230
  18.3335790  93.7040670  27.7091050   4.2503040  89.4783750  27.6704190
   4.2521480  89.9956140  26.8650090   3.4207350  89.0013930  27.6474120
  14.0139800  92.9324010  23.3154030  13.3095370  93.2208900  23.8957140
  14.3751960  93.7424120  22.9553590   3.9318370  91.1893710  25.6774640
   4.2735180  92.0335760  25.3828510   2.9934180  91.3377450  25.7939980
  17.0826720  92.3778800  23.7063240  16.1351630  92.4117780  23.8378670
  17.4076710  93.1917750  24.0912600   7.6146260  88.6775980  22.0019230
   7.9221240  88.1222870  21.2854730   6.6846960  88.8120440  21.8192220
  10.0027020  96.7424810  18.7379350   9.0756300  96.6762190  18.9667820
  10.1551840  97.6804940  18.6234590   9.9896100  93.0141810  15.7346510
   9.0499770  93.1755770  15.8198970  10.3079360  93.7327490  15.1882500
  16.5108860  97.6960330  25.7125540  15.6827490  97.7653420  25.2375670
  17.1059340  98.2814640  25.2441370  14.0324310  98.3045110  19.2414600
  13.4136730  97.9664660  18.5940900  14.0148760  97.6604870  19.9493790
  13.4750870  94.4829650  26.6580410  13.0622050  95.3083360  26.9120400
  12.7426820  93.8974690  26.4656770   5.6083660  97.2689550  21.5199080
   5.2040660  96.5566800  21.0244980   5.6946780  96.9242790  22.4087120
   4.3212280  94.0432760  25.2998120   4.8726870  94.1528100  24.5251370
   4.8355790  94.4170360  26.0153350  12.2089010  97.5431920  16.2487350
  12.6482290  96.7054350  16.1025170  12.9217430  98.1761320  16.3351490
   3.9955010  97.5652120  28.9103460   3.8562780  98.4374920  29.2790860
   3.1136370  97.2224930  28.7651400  15.7906150  88.7974730  14.5628390
  15.4778810  88.8901560  15.4627460  16.5518620  89.3755760  14.5125820
   2.3088290  96.1634530  19.0205730   2.1885890  96.8896620  18.4087000
   1.9989180  95.3937440  18.5433640  17.0007440  93.5346230  30.5402530
  16.3851710  94.0425900  30.0117990  16.6803860  92.6344560  30.4828470
   4.7751950  89.5069600  22.4029400   4.3320100  90.2879140  22.0713920
   5.3336940  89.8299490  23.1100340   9.0621760  92.3738120  28.0064720
   8.6001130  92.5821140  28.8184660   8.6599870  91.5597470  27.7035390
  14.0626270  93.5947070  29.1361380  13.2119860  93.2952820  29.4570450
  13.9028060  93.8389080  28.2245200  11.1575980  95.0948820  31.2360170
  11.4829390  94.2612570  30.8962400  11.9456310  95.6177340  31.3838500
   7.8910770  89.1280300  17.2835230   7.2664950  89.1240170  18.0088540
   7.8040890  88.2611260  16.8871200   6.8127850  90.0516930  24.2619000
   7.1100180  90.9579760  24.1811020   7.3613410  89.5635710  23.6478570
   4.5666170  94.6303170  20.1310650   4.3407090  94.4140340  21.0357270
   3.7858700  95.0631630  19.7856620  11.7963930  94.6366540  18.7301300
  11.1972820  95.3602340  18.5464920  12.3443540  94.5743320  17.9477750
   7.0065380  95.5288750  30.7970920   6.9108980  94.5883480  30.6471320
   7.8497360  95.7503820  30.4018990  10.4028800  93.2730080  20.7604580
  10.7958370  93.5902280  19.9473270  10.7645650  92.3941960  20.8749100
   8.7120970  92.0237390  32.0201440   8.0219290  91.8309590  32.6547530
   9.4553270  92.3072030  32.5525740  10.9883940  95.8635830  24.8555360
  10.2565060  96.3722640  25.2045460  10.5908280  95.0465810  24.5544140
   7.4261330  92.5390030  23.2607850   7.4297390  92.0979980  22.4112390
   8.3212450  92.8607360  23.3679670   3.2763710  92.4216520  22.2202060
   2.9363760  92.8991750  22.9769110   2.5141030  91.9681640  21.8603160
   7.4881480  93.5402110  16.2514610   7.6094300  93.4988590  17.2000430
   7.1029990  94.4026260  16.0961340  11.4509850  91.3169510  24.2678300
  11.4682590  91.7678160  25.1120150  11.2025430  90.4175150  24.4811740
   6.5002980  95.8503250  15.6497910   5.9319880  95.4021500  15.0233820
   7.2091980  96.2096030  15.1163060  14.8780600  88.7301690  30.1064680
  15.2026370  87.9991350  30.6322660  14.9137110  88.4115330  29.2045670
   7.7269300  96.5991810  25.0073260   8.0939430  96.1250380  25.7534600
   7.5374360  97.4733380  25.3481600   5.5168670  95.6400450  27.3257470
   5.2125740  96.5192430  27.5507830   6.4715130  95.7000240  27.3614910
  10.2648380  90.2364760  17.8580100   9.4512990  89.7377930  17.7825410
  10.0710330  91.0763010  17.4416450  12.9796770  94.6084410  16.1542260
  13.8676390  94.9201640  15.9793600  12.9501860  93.7356660  15.7622840
   4.7745520  96.9387430  31.3568380   4.4745660  97.0844610  30.4596200
   5.5456760  96.3792720  31.2641770  15.2511040  95.9196250  15.6222120
  15.1674760  96.3510470  14.7718560  15.9705230  96.3794600  16.0548940
   7.2475260  97.8667660  19.2171710   7.7038040  98.6772910  19.4431900
   6.8963470  97.5490800  20.0490200   3.1487040  88.2105310  19.6894230
   3.0201670  88.2023210  20.6379150   2.3249060  88.5488400  19.3385240
  11.6419750  92.4618740  26.9002380  12.0100570  91.6413950  27.2281950
  10.7817950  92.5220630  27.3158030  15.0081780  91.4175680  17.7089940
  14.3794940  91.5221350  16.9948170  14.5133700  91.6372460  18.4983820
   6.9765810  93.6961630  19.1247820   6.2681960  94.1647970  19.5661430
   7.2610290  93.0383640  19.7593010   8.6021740  95.1158330  27.1240350
   9.1006990  95.5904150  27.7892200   8.7444690  94.1921850  27.3310380
  11.0081240  90.4212290  20.5643610  10.8849020  90.4398420  19.6153120
  11.9565800  90.4691230  20.6842010   5.1800830  92.0046710  16.4998530
   6.0291360  92.4416860  16.4338720   4.8132100  92.3166970  17.3270590
  15.8088600  91.3326290  27.9668740  15.3062200  92.0731690  28.3062550
  16.6245260  91.7210290  27.6505530  14.1010610  96.5759470  21.4130100
  13.1600750  96.5909700  21.5877790  14.4154680  95.7895430  21.8590400
   4.0792250  98.2579070  14.9734060   4.8455520  98.1460430  15.5359490
   4.1566940  97.5617040  14.3210830   2.7739010  95.6904140  15.6566950
   2.8542600  94.7431650  15.7684350   3.6658760  96.0211020  15.7627610
   2.3332890  95.6548650  31.7873190   2.3738230  95.3562520  32.6958420
   3.1878390  96.0556260  31.6280710   6.1111280  98.2544200  16.9476700
   6.5327700  98.0884070  17.7908090   6.2362120  97.4444430  16.4531840
   4.2738700  94.2340750  29.7547680   3.7435160  93.7431700  29.1271020
   4.9426770  94.6624950  29.2205610   8.6238920  97.2781810  14.1953800
   9.1444580  96.5630830  13.8294950   9.2707320  97.9167680  14.4954310
  13.6438930  96.0406370  31.5228020  14.2259700  95.2858690  31.4348500
  13.8200700  96.5713810  30.7459500   4.7611000  91.2003120  29.8344970
   4.6667870  90.5823870  29.1095840   4.1808390  91.9269410  29.6074880
   7.5272440  89.7576360  26.8672360   7.0789740  89.7800620  26.0217910
   6.8937640  89.3595380  27.4642660  10.2695890  96.3846870  28.8722640
  10.3892100  95.7888010  29.6117480  11.1289890  96.4216560  28.4523940
  12.6083790  96.9384060  27.4485150  12.0819010  97.4626680  26.8450290
  12.9515130  97.5711450  28.0794880   5.0070180  94.3277430  13.8934860
   4.8059240  93.4644790  14.2548200   4.8362230  94.2410790  12.9556460
   7.0364660  92.9268220  30.1298460   7.6264350  92.6184070  30.8176280
   6.2184900  92.4547970  30.2858360  11.8558090  92.5434030  30.3631480
  11.1673610  91.8815570  30.2981470  12.5764110  92.0972300  30.8079940
  12.4858490  89.1385660  16.4221740  12.7660780  88.2953560  16.7781160
  11.7124220  89.3708770  16.9360490   3.8052980  91.4278050  13.8812740
   4.1078880  91.4345480  12.9731890   4.5447570  91.0775910  14.3780400
   7.0237910  90.3712670  14.8668940   6.6759910  89.6936660  14.2871390
   7.2250680  89.9102180  15.6812330  13.3133990  91.6941610  15.4851800
  13.7318870  91.5072590  14.6448460  13.0070050  90.8420660  15.7954730
  16.8123720  96.6065750  19.1827600  16.4367320  95.8393680  18.7508890
  16.0826840  96.9888450  19.6702530  16.2023340  95.7537270  28.8167120
  15.9709430  95.5250020  27.9165070  16.4627890  96.6736820  28.7712010
  14.6411410  90.9793700  31.5946820  15.5181590  90.9877100  31.9780820
  14.6532250  90.2424540  30.9839170  16.0874680  94.8323240  22.4834840
  16.6112160  94.3385890  21.8525010  16.6734100  94.9673600  23.2282410
  16.2664400  94.9163110  26.0054390  15.3167110  94.8826650  26.1199380
  16.4477410  95.8263220  25.7704160   1.7683000  89.2204120  14.1555670
   2.4911130  89.7613060  14.4736890   2.0407520  88.9467540  13.2797210
  15.5774650  94.0896590  18.4227250  16.0733770  93.8567460  19.2076130
  15.3790720  93.2508430  18.0064890  17.0061810  92.7257540  20.9564930
  16.8961090  92.5713580  21.8947200  17.7669400  92.1978480  20.7140340
  15.3527530  88.6651670  27.4147930  15.9899750  89.2785810  27.7807120
  15.5002420  88.7012330  26.4697160  17.8952080  90.5565460  14.1971070
  18.8201390  90.4246640  13.9889360  17.8727870  90.6358280  15.1507520
  17.9690570  91.3276120  16.8227780  17.1742070  91.2621240  17.3520690
  18.1733850  92.2626760  16.8113130   8.7232010  89.8177860  30.3223030
   8.6620900  90.4099690  31.0718440   9.6632390  89.7103820  30.1773290
  11.3606570  89.4747920  29.9615320  11.9746980  89.7927210  29.2996400
  11.9056130  88.9896510  30.5811180   1.8827830  88.1542180  30.0754380
   2.4310820  87.9730230  29.3120490   1.9483140  87.3636290  30.6110690
  12.1014610  88.0380060  26.2884610  11.2274450  88.3715170  26.0857540
  11.9925360  87.5653240  27.1136480  13.0086590  90.2450930  27.6726330
  12.6799950  89.4302690  27.2928060  13.9568890  90.2020740  27.5492020
   9.8489430  88.9549900  25.2277520   9.0661220  89.4295400  25.5074280
   9.5552360  88.0504730  25.1190700  14.4010500  89.6573000  23.2726610
  14.8418590  89.6018100  22.4248210  14.1318090  90.5731010  23.3436790
  16.2649070  89.2888240  21.2835430  16.2037470  88.3449460  21.1366450
  17.0441100  89.3968330  21.8288890   7.7343650  91.3736650  20.7393550
   6.9218160  90.9993540  20.3989430   8.2385290  90.6181730  21.0414740
  12.2368630  88.0379100  21.9776620  12.8398000  88.6099310  22.4525140
  11.4961620  88.6018540  21.7550520  15.3803230  88.4400660  17.2516900
  15.5753860  89.3384110  17.5184330  14.5933100  88.2087740  17.7449850
   3.5654990  89.7861430  16.2893210   4.0947750  88.9991230  16.1601160
   4.1983310  90.4652620  16.5228740   5.7592830  89.5236570  19.3438600
   5.1295570  88.8223880  19.5108730   5.2197970  90.2840700  19.1271760
   5.8848390  88.8020550  31.7791090   5.6032660  89.3054150  31.0151910
   6.2668090  88.0042300  31.4133220  12.4863850  88.2174130  32.3571560
  12.3729300  88.5368740  33.2523080  13.3033590  88.6186640  32.0608840
  11.3922000  96.2366600   2.7206300  11.3116050  95.3221210   2.4498010
  10.9786420  96.7333670   2.0146010   9.5240040  98.0145620   4.6015570
   8.7482140  97.5346060   4.8914140  10.1752970  97.3351270   4.4271730
   3.5405870  98.3265430   5.4791330   2.7090750  98.0714140   5.8787840
   4.1486850  98.3976200   6.2149250   9.9954200  93.4973190   4.8354660
  10.3719020  92.6245070   4.7228330   9.8973710  93.8331890   3.9445100
  13.7778320  90.9923630   1.7683000  14.5987940  90.5020200   1.8108480
  13.8112400  91.5821290   2.5214840   5.9666940  94.8385190   4.6297280
   6.4745160  95.3366160   5.2702300   6.4980180  94.0620390   4.4536640
  18.0677870  93.0090380   8.3326630  17.3630040  93.3972090   7.8141740
  18.3335790  93.7040670   8.9347560   4.2503040  89.4783750   8.8960700
   4.2521480  89.9956140   8.0906600   3.4207350  89.0013930   8.8730630
  14.0139800  92.9324010   4.5410540  13.3095370  93.2208900   5.1213650
  14.3751960  93.7424120   4.1810100   3.9318370  91.1893710   6.9031150
   4.2735180  92.0335760   6.6085020   2.9934180  91.3377450   7.0196490
  17.0826720  92.3778800   4.9319750  16.1351630  92.4117780   5.0635180
  17.4076710  93.1917750   5.3169110   7.6146260  88.6775980   3.2275740
   7.9221240  88.1222870   2.5111240   6.6846960  88.8120440   3.0448730
  16.5108860  97.6960330   6.9382050  15.6827490  97.7653420   6.4632180
  17.1059340  98.2814640   6.4697880  13.4750870  94.4829650   7.8836920
  13.0622050  95.3083360   8.1376910  12.7426820  93.8974690   7.6913280
   5.6083660  97.2689550   2.7455590   5.2040660  96.5566800   2.2501490
   5.6946780  96.9242790   3.6343630   4.3212280  94.0432760   6.5254630
   4.8726870  94.1528100   5.7507880   4.8355790  94.4170360   7.2409860
   3.9955010  97.5652120  10.1359970   3.8562780  98.4374920  10.5047370
   3.1136370  97.2224930   9.9907910  17.0007440  93.5346230  11.7659040
  16.3851710  94.0425900  11.2374500  16.6803860  92.6344560  11.7084980
   4.7751950  89.5069600   3.6285910   4.3320100  90.2879140   3.2970430
   5.3336940  89.8299490   4.3356850   9.0621760  92.3738120   9.2321230
   8.6001130  92.5821140  10.0441170   8.6599870  91.5597470   8.9291900
  14.0626270  93.5947070  10.3617890  13.2119860  93.2952820  10.6826960
  13.9028060  93.8389080   9.4501710  11.1575980  95.0948820  12.4616680
  11.4829390  94.2612570  12.1218910  11.9456310  95.6177340  12.6095010
   6.8127850  90.0516930   5.4875510   7.1100180  90.9579760   5.4067530
   7.3613410  89.5635710   4.8735080   7.0065380  95.5288750  12.0227430
   6.9108980  94.5883480  11.8727830   7.8497360  95.7503820  11.6275500
   8.7120970  92.0237390  13.2457950   8.0219290  91.8309590  13.8804040
   9.4553270  92.3072030  13.7782250  10.9883940  95.8635830   6.0811870
  10.2565060  96.3722640   6.4301970  10.5908280  95.0465810   5.7800650
   7.4261330  92.5390030   4.4864360   7.4297390  92.0979980   3.6368900
   8.3212450  92.8607360   4.5936180   3.2763710  92.4216520   3.4458570
   2.9363760  92.8991750   4.2025620   2.5141030  91.9681640   3.0859670
  11.4509850  91.3169510   5.4934810  11.4682590  91.7678160   6.3376660
  11.2025430  90.4175150   5.7068250  14.8780600  88.7301690  11.3321190
  15.2026370  87.9991350  11.8579170  14.9137110  88.4115330  10.4302180
   7.7269300  96.5991810   6.2329770   8.0939430  96.1250380   6.9791110
   7.5374360  97.4733380   6.5738110   5.5168670  95.6400450   8.5513980
   5.2125740  96.5192430   8.7764340   6.4715130  95.7000240   8.5871420
   4.7745520  96.9387430  12.5824890   4.4745660  97.0844610  11.6852710
   5.5456760  96.3792720  12.4898280  11.6419750  92.4618740   8.1258890
  12.0100570  91.6413950   8.4538460  10.7817950  92.5220630   8.5414540
   8.6021740  95.1158330   8.3496860   9.1006990  95.5904150   9.0148710
   8.7444690  94.1921850   8.5566890  15.8088600  91.3326290   9.1925250
  15.3062200  92.0731690   9.5319060  16.6245260  91.7210290   8.8762040
  14.1010610  96.5759470   2.6386610  13.1600750  96.5909700   2.8134300
  14.4154680  95.7895430   3.0846910   2.3332890  95.6548650  13.0129700
   2.3738230  95.3562520  13.9214930   3.1878390  96.0556260  12.8537220
   4.2738700  94.2340750  10.9804190   3.7435160  93.7431700  10.3527530
   4.9426770  94.6624950  10.4462120  13.6438930  96.0406370  12.7484530
  14.2259700  95.2858690  12.6605010  13.8200700  96.5713810  11.9716010
   4.7611000  91.2003120  11.0601480   4.6667870  90.5823870  10.3352350
   4.1808390  91.9269410  10.8331390   7.5272440  89.7576360   8.0928870
   7.0789740  89.7800620   7.2474420   6.8937640  89.3595380   8.6899170
  10.2695890  96.3846870  10.0979150  10.3892100  95.7888010  10.8373990
  11.1289890  96.4216560   9.6780450  12.6083790  96.9384060   8.6741660
  12.0819010  97.4626680   8.0706800  12.9515130  97.5711450   9.3051390
   7.0364660  92.9268220  11.3554970   7.6264350  92.6184070  12.0432790
   6.2184900  92.4547970  11.5114870  11.8558090  92.5434030  11.5887990
  11.1673610  91.8815570  11.5237980  12.5764110  92.0972300  12.0336450
  16.2023340  95.7537270  10.0423630  15.9709430  95.5250020   9.1421580
  16.4627890  96.6736820   9.9968520  14.6411410  90.9793700  12.8203330
  15.5181590  90.9877100  13.2037330  14.6532250  90.2424540  12.2095680
  16.0874680  94.8323240   3.7091350  16.6112160  94.3385890   3.0781520
  16.6734100  94.9673600   4.4538920  16.2664400  94.9163110   7.2310900
  15.3167110  94.8826650   7.3455890  16.4477410  95.8263220   6.9960670
  17.0061810  92.7257540   2.1821440  16.8961090  92.5713580   3.1203710
  17.7669400  92.1978480   1.9396850  15.3527530  88.6651670   8.6404440
  15.9899750  89.2785810   9.0063630  15.5002420  88.7012330   7.6953670
   8.7232010  89.8177860  11.5479540   8.6620900  90.4099690  12.2974950
   9.6632390  89.7103820  11.4029800  11.3606570  89.4747920  11.1871830
  11.9746980  89.7927210  10.5252910  11.9056130  88.9896510  11.8067690
   1.8827830  88.1542180  11.3010890   2.4310820  87.9730230  10.5377000
   1.9483140  87.3636290  11.8367200  12.1014610  88.0380060   7.5141120
  11.2274450  88.3715170   7.3114050  11.9925360  87.5653240   8.3392990
  13.0086590  90.2450930   8.8982840  12.6799950  89.4302690   8.5184570
  13.9568890  90.2020740   8.7748530   9.8489430  88.9549900   6.4534030
   9.0661220  89.4295400   6.7330790   9.5552360  88.0504730   6.3447210
  14.4010500  89.6573000   4.4983120  14.8418590  89.6018100   3.6504720
  14.1318090  90.5731010   4.5693300  16.2649070  89.2888240   2.5091940
  16.2037470  88.3449460   2.3622960  17.0441100  89.3968330   3.0545400
   7.7343650  91.3736650   1.9650060   6.9218160  90.9993540   1.6245940
   8.2385290  90.6181730   2.2671250  12.2368630  88.0379100   3.2033130
  12.8398000  88.6099310   3.6781650  11.4961620  88.6018540   2.9807030
   5.8848390  88.8020550  13.0047600   5.6032660  89.3054150  12.2408420
   6.2668090  88.0042300  12.6389730  12.4863850  88.2174130  13.5828070
  12.3729300  88.5368740  14.4779590  13.3033590  88.6186640  13.2865350
  11.3922000  77.4623110  59.0436770  11.3116050  76.5477720  58.7728480
  10.9786420  77.9590180  58.3376480   9.5240040  79.2402130  60.9246040
   8.7482140  78.7602570  61.2144610  10.1752970  78.5607780  60.7502200
   3.5405870  79.5521940  61.8021800   2.7090750  79.2970650  62.2018310
   4.1486850  79.6232710  62.5379720  13.5447470  83.6462320  59.7045170
  13.0829000  82.8749560  60.0332340  14.3573020  83.6728390  60.2097620
   3.5207130  83.5862030  61.9979820   3.8235170  82.6959770  61.8190040
   4.2650720  84.1432250  61.7702070   9.7710780  85.9320330  59.3249160
   9.1522220  86.3877830  58.7543600  10.6262560  86.0871790  58.9238860
   8.9649030  81.9159320  60.9316200   8.8957310  80.9749260  60.7705330
   9.7268890  82.0060730  61.5038770   9.9954200  74.7229700  61.1585130
  10.3719020  73.8501580  61.0458800   9.8973710  75.0588400  60.2675570
   4.1259210  73.0955330  56.6202570   4.2325960  73.9959060  56.9271330
   3.2151570  73.0473300  56.3297220  13.7778320  72.2180140  58.0913470
  14.5987940  71.7276710  58.1338950  13.8112400  72.8077800  58.8445310
   5.9666940  76.0641700  60.9527750   6.4745160  76.5622670  61.5932770
   6.4980180  75.2876900  60.7767110  10.6374130  80.8159570  56.7181070
  10.0191400  81.2809020  56.1543790  11.1497380  81.5087050  57.1350580
  14.0139800  74.1580520  60.8641010  13.3095370  74.4465410  61.4444120
  14.3751960  74.9680630  60.5040570   3.9318370  72.4150220  63.2261620
   4.2735180  73.2592270  62.9315490   2.9934180  72.5633960  63.3426960
  15.6302580  83.7755650  63.1268490  14.9466100  84.4454760  63.1185160
  16.1696870  83.9736300  62.3613350  17.0826720  73.6035310  61.2550220
  16.1351630  73.6374290  61.3865650  17.4076710  74.4174260  61.6399580
   7.6146260  69.9032490  59.5506210   7.9221240  69.3479380  58.8341710
   6.6846960  70.0376950  59.3679200  13.1661320  85.6199780  61.8413670
  13.1788480  85.2162070  60.9735930  12.6136540  86.3947070  61.7375100
  14.4606740  82.3416000  56.9303840  14.3503070  81.3990330  57.0553260
  14.4574990  82.7031640  57.8166600  10.0027020  77.9681320  56.2866330
   9.0756300  77.9018700  56.5154800  10.1551840  78.9061450  56.1721570
   9.9896100  74.2398320  53.2833490   9.0499770  74.4012280  53.3685950
  10.3079360  74.9584000  52.7369480  16.5108860  78.9216840  63.2612520
  15.6827490  78.9909930  62.7862650  17.1059340  79.5071150  62.7928350
  14.0324310  79.5301620  56.7901580  13.4136730  79.1921170  56.1427880
  14.0148760  78.8861380  57.4980770   5.6083660  78.4946060  59.0686060
   5.2040660  77.7823310  58.5731960   5.6946780  78.1499300  59.9574100
   6.0765360  82.1813620  61.2325270   5.7793650  81.5759090  60.5533050
   7.0265180  82.2190930  61.1214630  12.2089010  78.7688430  53.7974330
  12.6482290  77.9310860  53.6512150  12.9217430  79.4017830  53.8838470
  10.3184390  83.7084500  57.7655570  10.7580300  84.4508830  57.3510960
  10.2571280  83.9511070  58.6894530  15.7906150  70.0231240  52.1115370
  15.4778810  70.1158070  53.0114440  16.5518620  70.6012270  52.0612800
   2.3088290  77.3891040  56.5692710   2.1885890  78.1153130  55.9573980
   1.9989180  76.6193950  56.0920620  12.9854570  86.6953620  55.1218580
  12.8255710  86.4056560  56.0200410  12.8201280  85.9193750  54.5863810
   5.4642950  86.4752150  56.8990200   5.2885430  85.5587690  56.6858000
   4.6098690  86.8339440  57.1388000  12.6880700  84.2041180  53.6816580
  11.9945860  84.2018470  53.0218860  13.4303560  83.7800500  53.2510750
  12.2530630  85.8303890  57.7565070  12.7087580  85.0493270  58.0703690
  12.5923150  86.5410710  58.3006250   4.7751950  70.7326110  59.9516380
   4.3320100  71.5135650  59.6200900   5.3336940  71.0556000  60.6587320
   7.8910770  70.3536810  54.8322210   7.2664950  70.3496680  55.5575520
   7.8040890  69.4867770  54.4358180   6.8127850  71.2773440  61.8105980
   7.1100180  72.1836270  61.7298000   7.3613410  70.7892220  61.1965550
   4.5666170  75.8559680  57.6797630   4.3407090  75.6396850  58.5844250
   3.7858700  76.2888140  57.3343600  11.7963930  75.8623050  56.2788280
  11.1972820  76.5858850  56.0951900  12.3443540  75.7999830  55.4964730
  10.4028800  74.4986590  58.3091560  10.7958370  74.8158790  57.4960250
  10.7645650  73.6198470  58.4236080  10.9883940  77.0892340  62.4042340
  10.2565060  77.5979150  62.7532440  10.5908280  76.2722320  62.1031120
   7.4261330  73.7646540  60.8094830   7.4297390  73.3236490  59.9599370
   8.3212450  74.0863870  60.9166650   3.2763710  73.6473030  59.7689040
   2.9363760  74.1248260  60.5256090   2.5141030  73.1938150  59.4090140
   7.4881480  74.7658620  53.8001590   7.6094300  74.7245100  54.7487410
   7.1029990  75.6282770  53.6448320  11.4509850  72.5426020  61.8165280
  11.4682590  72.9934670  62.6607130  11.2025430  71.6431660  62.0298720
   6.5002980  77.0759760  53.1984890   5.9319880  76.6278010  52.5720800
   7.2091980  77.4352540  52.6650040   7.7269300  77.8248320  62.5560240
   8.0939430  77.3506890  63.3021580   7.5374360  78.6989890  62.8968580
   4.0450460  81.0717950  55.4711300   3.2712720  80.5315570  55.3110020
   4.7745090  80.5524560  55.1329060  14.8038440  80.0683310  61.2637690
  15.5237560  80.5638600  60.8733800  14.6020260  79.3901200  60.6191560
  10.2648380  71.4621270  55.4067080   9.4512990  70.9634440  55.3312390
  10.0710330  72.3019520  54.9903430  12.9796770  75.8340920  53.7029240
  13.8676390  76.1458150  53.5280580  12.9501860  74.9613170  53.3109820
   4.0887860  80.7398330  59.1090110   4.6066530  79.9366590  59.0547000
   3.6371880  80.6777470  59.9506940   8.9757360  82.0064610  54.3817410
   9.3173060  82.7506840  53.8860730   8.1470070  82.3195730  54.7442240
  15.2511040  77.1452760  53.1709100  15.1674760  77.5766980  52.3205540
  15.9705230  77.6051110  53.6035920  16.2798290  83.9995020  55.8991230
  15.6374450  83.3450640  56.1734950  15.8928950  84.4050110  55.1231900
  11.8584770  81.3280450  59.7462920  12.2108590  80.7308580  59.0864290
  10.9747100  81.0024680  59.9171170   7.9448050  82.0878140  57.1533330
   8.6319180  82.6347350  57.5340920   7.1580470  82.6318870  57.1882940
   7.2475260  79.0924170  56.7658690   7.7038040  79.9029420  56.9918880
   6.8963470  78.7747310  57.5977180   3.1487040  69.4361820  57.2381210
   3.0201670  69.4279720  58.1866130   2.3249060  69.7744910  56.8872220
  10.8239950  82.6062860  62.7128440  11.4662180  81.9056020  62.8260610
  11.3489300  83.3861300  62.5325330  14.6695670  82.8911480  52.4367580
  14.4433250  82.1741920  53.0292220  14.2791870  82.6423920  51.5989330
  14.2511920  80.8083420  54.0981740  13.9633620  81.2696110  54.8859620
  15.0464090  80.3481190  54.3665960   6.4680320  84.3009540  54.0285710
   6.4590420  85.0339230  53.4130220   5.5478680  84.0541120  54.1212670
  15.0081780  72.6432190  55.2576920  14.3794940  72.7477860  54.5435150
  14.5133700  72.8628970  56.0470800   9.4539920  84.3637780  52.6910900
   9.5551900  84.1601770  51.7612880   8.5541660  84.1096060  52.8958680
   6.9765810  74.9218140  56.6734800   6.2681960  75.3904480  57.1148410
   7.2610290  74.2640150  57.3079990  11.0081240  71.6468800  58.1130590
  10.8849020  71.6654930  57.1640100  11.9565800  71.6947740  58.2328990
   8.0958030  86.8824100  57.3858570   8.3499530  86.8445490  56.4637940
   7.1470510  86.7557430  57.3786820   5.1800830  73.2303220  54.0485510
   6.0291360  73.6673370  53.9825700   4.8132100  73.5423480  54.8757570
  14.1010610  77.8015980  58.9617080  13.1600750  77.8166210  59.1364770
  14.4154680  77.0151940  59.4077380   4.0792250  79.4835580  52.5221040
   4.8455520  79.3716940  53.0846470   4.1566940  78.7873550  51.8697810
   2.7739010  76.9160650  53.2053930   2.8542600  75.9688160  53.3171330
   3.6658760  77.2467530  53.3114590  16.1036190  84.9724830  60.6371340
  16.2283610  85.7956000  61.1095150  16.9701750  84.7615560  60.2895490
   3.5753720  87.0656040  60.3088470   4.3116200  86.5171500  60.5797040
   3.9594640  87.9312050  60.1694460   6.6856030  86.2386350  52.1314040
   7.4784640  86.5275180  51.6795830   6.1660380  85.8078520  51.4526520
  15.7386200  85.4656480  53.5550780  15.4527710  85.0521620  52.7404960
  15.5405750  86.3944190  53.4351300   7.2033430  81.4589760  51.9956390
   7.0984070  80.8442110  52.7217770   7.0357650  80.9355650  51.2119400
  10.4436160  80.5209790  52.5998380   9.8946260  80.9679090  53.2441120
  11.0655420  80.0159040  53.1236050   6.1111280  79.4800710  54.4963680
   6.5327700  79.3140580  55.3395070   6.2362120  78.6700940  54.0018820
   8.6238920  78.5038320  51.7440780   9.1444580  77.7887340  51.3781930
   9.2707320  79.1424190  52.0441290   5.0070180  75.5533940  51.4421840
   4.8059240  74.6901300  51.8035180   4.8362230  75.4667300  50.5043440
  12.4858490  70.3642170  53.9708720  12.7660780  69.5210070  54.3268140
  11.7124220  70.5965280  54.4847470   3.8052980  72.6534560  51.4299720
   4.1078880  72.6601990  50.5218870   4.5447570  72.3032420  51.9267380
   7.0237910  71.5969180  52.4155920   6.6759910  70.9193170  51.8358370
   7.2250680  71.1358690  53.2299310   9.1886950  86.5849930  54.0342520
  10.0837740  86.9234900  54.0561280   9.2204580  85.8629340  53.4066800
   2.8283110  81.9576980  52.2629520   3.2657980  82.5006650  52.9187100
   3.3130840  81.1323930  52.2725860   4.6390830  83.0775020  57.3751750
   4.3386370  82.9539990  58.2755660   4.5328320  82.2183610  56.9667480
  17.4082750  82.8571420  52.0778430  16.5775710  82.9248070  52.5485660
  17.5854580  83.7475540  51.7745290  16.8639210  79.6018900  54.5812630
  17.6258120  80.1715550  54.6872320  16.8793580  79.0346100  55.3520940
  17.8699180  80.4569000  59.4254560  18.2408010  79.6736320  59.0190530
  18.5101110  81.1458100  59.2471860  16.9158380  79.8953270  51.7385150
  17.1907220  80.8032150  51.6104370  16.7269120  79.8315800  52.6747140
  13.3133990  72.9198120  53.0338780  13.7318870  72.7329100  52.1935440
  13.0070050  72.0677170  53.3441710  16.8123720  77.8322260  56.7314580
  16.4367320  77.0650190  56.2995870  16.0826840  78.2144960  57.2189510
  16.0874680  76.0579750  60.0321820  16.6112160  75.5642400  59.4011990
  16.6734100  76.1930110  60.7769390   1.7683000  70.4460630  51.7042650
   2.4911130  70.9869570  52.0223870   2.0407520  70.1724050  50.8284190
  15.5774650  75.3153100  55.9714230  16.0733770  75.0823970  56.7563110
  15.3790720  74.4764940  55.5551870  17.0061810  73.9514050  58.5051910
  16.8961090  73.7970090  59.4434180  17.7669400  73.4234990  58.2627320
  17.8952080  71.7821970  51.7458050  18.8201390  71.6503150  51.5376340
  17.8727870  71.8614790  52.6994500  17.9690570  72.5532630  54.3714760
  17.1742070  72.4877750  54.9007670  18.1733850  73.4883270  54.3600110
  14.9108990  86.5924180  58.3653150  15.5068060  86.2708750  57.6887570
  15.1687140  86.1196000  59.1566420  15.4621200  87.2419480  62.1950880
  15.0024170  87.9935290  61.8208900  14.8333660  86.5225950  62.1365680
   5.8916920  85.5507720  61.3699010   6.4081940  84.9395080  60.8447270
   6.5414300  86.0536500  61.8610020   8.6312420  86.4416210  62.1967990
   8.9190230  86.1870510  61.3201000   9.1435640  85.8893570  62.7873560
   9.8489430  70.1806410  62.7764500   9.0661220  70.6551910  63.0561260
   9.5552360  69.2761240  62.6677680  14.4010500  70.8829510  60.8213590
  14.8418590  70.8274610  59.9735190  14.1318090  71.7987520  60.8923770
  16.2649070  70.5144750  58.8322410  16.2037470  69.5705970  58.6853430
  17.0441100  70.6224840  59.3775870   7.7343650  72.5993160  58.2880530
   6.9218160  72.2250050  57.9476410   8.2385290  71.8438240  58.5901720
  12.2368630  69.2635610  59.5263600  12.8398000  69.8355820  60.0012120
  11.4961620  69.8275050  59.3037500  15.3803230  69.6657170  54.8003880
  15.5753860  70.5640620  55.0671310  14.5933100  69.4344250  55.2936830
   3.5654990  71.0117940  53.8380190   4.0947750  70.2247740  53.7088140
   4.1983310  71.6909130  54.0715720   5.7592830  70.7493080  56.8925580
   5.1295570  70.0480390  57.0595710   5.2197970  71.5097210  56.6758740
  16.9329840  86.9057880  56.5610440  17.1082030  86.2195620  55.9171360
  16.2351410  87.4304930  56.1687110   4.7757490  87.2952720  54.1145750
   5.5076310  87.0112000  53.5669640   5.0351160  87.0566000  55.0045130
   3.9372280  83.4117450  54.1192080   3.3081160  83.8802550  54.6677910
   4.0520110  82.5666670  54.5538270  11.3922000  77.4623110  40.2693280
  11.3116050  76.5477720  39.9984990  10.9786420  77.9590180  39.5632990
   9.5240040  79.2402130  42.1502550   8.7482140  78.7602570  42.4401120
  10.1752970  78.5607780  41.9758710   3.5405870  79.5521940  43.0278310
   2.7090750  79.2970650  43.4274820   4.1486850  79.6232710  43.7636230
  13.5447470  83.6462320  40.9301680  13.0829000  82.8749560  41.2588850
  14.3573020  83.6728390  41.4354130   3.5207130  83.5862030  43.2236330
   3.8235170  82.6959770  43.0446550   4.2650720  84.1432250  42.9958580
   9.7710780  85.9320330  40.5505670   9.1522220  86.3877830  39.9800110
  10.6262560  86.0871790  40.1495370   8.9649030  81.9159320  42.1572710
   8.8957310  80.9749260  41.9961840   9.7268890  82.0060730  42.7295280
   9.9954200  74.7229700  42.3841640  10.3719020  73.8501580  42.2715310
   9.8973710  75.0588400  41.4932080   4.1259210  73.0955330  37.8459080
   4.2325960  73.9959060  38.1527840   3.2151570  73.0473300  37.5553730
  13.7778320  72.2180140  39.3169980  14.5987940  71.7276710  39.3595460
  13.8112400  72.8077800  40.0701820   5.9666940  76.0641700  42.1784260
   6.4745160  76.5622670  42.8189280   6.4980180  75.2876900  42.0023620
  18.0677870  74.2346890  45.8813610  17.3630040  74.6228600  45.3628720
  18.3335790  74.9297180  46.4834540   4.2503040  70.7040260  46.4447680
   4.2521480  71.2212650  45.6393580   3.4207350  70.2270440  46.4217610
  10.6374130  80.8159570  37.9437580  10.0191400  81.2809020  37.3800300
  11.1497380  81.5087050  38.3607090   5.5005890  80.3435440  44.6221180
   5.1675270  80.9704360  45.2642250   5.6772570  80.8697320  43.8422850
  14.0139800  74.1580520  42.0897520  13.3095370  74.4465410  42.6700630
  14.3751960  74.9680630  41.7297080   3.9318370  72.4150220  44.4518130
   4.2735180  73.2592270  44.1572000   2.9934180  72.5633960  44.5683470
   4.7124990  82.3116240  46.4370360   5.3298990  82.9867320  46.1554810
   3.8518110  82.7204220  46.3457860  15.6302580  83.7755650  44.3525000
  14.9466100  84.4454760  44.3441670  16.1696870  83.9736300  43.5869860
  17.0826720  73.6035310  42.4806730  16.1351630  73.6374290  42.6122160
  17.4076710  74.4174260  42.8656090   7.6146260  69.9032490  40.7762720
   7.9221240  69.3479380  40.0598220   6.6846960  70.0376950  40.5935710
  13.1661320  85.6199780  43.0670180  13.1788480  85.2162070  42.1992440
  12.6136540  86.3947070  42.9631610  14.4606740  82.3416000  38.1560350
  14.3503070  81.3990330  38.2809770  14.4574990  82.7031640  39.0423110
  12.5646760  80.5229620  44.3952790  12.9815550  80.3089730  43.5606250
  13.2886580  80.7802410  44.9661410  10.0027020  77.9681320  37.5122840
   9.0756300  77.9018700  37.7411310  10.1551840  78.9061450  37.3978080
   9.9896100  74.2398320  34.5090000   9.0499770  74.4012280  34.5942460
  10.3079360  74.9584000  33.9625990  16.5108860  78.9216840  44.4869030
  15.6827490  78.9909930  44.0119160  17.1059340  79.5071150  44.0184860
  14.0324310  79.5301620  38.0158090  13.4136730  79.1921170  37.3684390
  14.0148760  78.8861380  38.7237280  13.4750870  75.7086160  45.4323900
  13.0622050  76.5339870  45.6863890  12.7426820  75.1231200  45.2400260
   5.6083660  78.4946060  40.2942570   5.2040660  77.7823310  39.7988470
   5.6946780  78.1499300  41.1830610   6.0765360  82.1813620  42.4581780
   5.7793650  81.5759090  41.7789560   7.0265180  82.2190930  42.3471140
   4.3212280  75.2689270  44.0741610   4.8726870  75.3784610  43.2994860
   4.8355790  75.6426870  44.7896840  14.1650970  85.7545490  46.1204880
  13.6881530  86.5617680  45.9277490  13.4812760  85.1023820  46.2731090
   5.1683790  81.9195310  49.1089580   4.2712320  82.1435280  49.3562980
   5.1936660  82.0430250  48.1600980  12.2089010  78.7688430  35.0230840
  12.6482290  77.9310860  34.8768660  12.9217430  79.4017830  35.1094980
   3.9955010  78.7908630  47.6846950   3.8562780  79.6631430  48.0534350
   3.1136370  78.4481440  47.5394890  10.3184390  83.7084500  38.9912080
  10.7580300  84.4508830  38.5767470  10.2571280  83.9511070  39.9151040
   5.7935360  84.7330330  49.8932100   5.7650790  85.1373280  49.0260530
   5.6300330  83.8040690  49.7303700  15.7906150  70.0231240  33.3371880
  15.4778810  70.1158070  34.2370950  16.5518620  70.6012270  33.2869310
   2.3088290  77.3891040  37.7949220   2.1885890  78.1153130  37.1830490
   1.9989180  76.6193950  37.3177130  17.7450180  85.5157430  51.1896270
  18.2209900  85.9940320  51.8685350  18.3657340  85.4474920  50.4641770
  17.1483430  82.7070280  48.3496280  17.2746490  82.4682160  47.4313460
  17.1904810  81.8754820  48.8218360  11.0100170  86.4098280  46.9191090
  11.5244840  86.3206290  47.7213520  10.1669250  86.7557980  47.2119000
  12.9854570  86.6953620  36.3475090  12.8255710  86.4056560  37.2456920
  12.8201280  85.9193750  35.8120320   5.4642950  86.4752150  38.1246710
   5.2885430  85.5587690  37.9114510   4.6098690  86.8339440  38.3644510
  12.6880700  84.2041180  34.9073090  11.9945860  84.2018470  34.2475370
  13.4303560  83.7800500  34.4767260  12.2530630  85.8303890  38.9821580
  12.7087580  85.0493270  39.2960200  12.5923150  86.5410710  39.5262760
  17.0007440  74.7602740  49.3146020  16.3851710  75.2682410  48.7861480
  16.6803860  73.8601070  49.2571960   4.7751950  70.7326110  41.1772890
   4.3320100  71.5135650  40.8457410   5.3336940  71.0556000  41.8843830
   9.0621760  73.5994630  46.7808210   8.6001130  73.8077650  47.5928150
   8.6599870  72.7853980  46.4778880  14.0626270  74.8203580  47.9104870
  13.2119860  74.5209330  48.2313940  13.9028060  75.0645590  46.9988690
  11.1575980  76.3205330  50.0103660  11.4829390  75.4869080  49.6705890
  11.9456310  76.8433850  50.1581990   7.8910770  70.3536810  36.0578720
   7.2664950  70.3496680  36.7832030   7.8040890  69.4867770  35.6614690
   6.8127850  71.2773440  43.0362490   7.1100180  72.1836270  42.9554510
   7.3613410  70.7892220  42.4222060   4.5666170  75.8559680  38.9054140
   4.3407090  75.6396850  39.8100760   3.7858700  76.2888140  38.5600110
  11.7963930  75.8623050  37.5044790  11.1972820  76.5858850  37.3208410
  12.3443540  75.7999830  36.7221240   7.0065380  76.7545260  49.5714410
   6.9108980  75.8139990  49.4214810   7.8497360  76.9760330  49.1762480
  10.4028800  74.4986590  39.5348070  10.7958370  74.8158790  38.7216760
  10.7645650  73.6198470  39.6492590   8.7120970  73.2493900  50.7944930
   8.0219290  73.0566100  51.4291020   9.4553270  73.5328540  51.3269230
  10.9883940  77.0892340  43.6298850  10.2565060  77.5979150  43.9788950
  10.5908280  76.2722320  43.3287630   7.4261330  73.7646540  42.0351340
   7.4297390  73.3236490  41.1855880   8.3212450  74.0863870  42.1423160
   3.2763710  73.6473030  40.9945550   2.9363760  74.1248260  41.7512600
   2.5141030  73.1938150  40.6346650   7.4881480  74.7658620  35.0258100
   7.6094300  74.7245100  35.9743920   7.1029990  75.6282770  34.8704830
  11.4509850  72.5426020  43.0421790  11.4682590  72.9934670  43.8863640
  11.2025430  71.6431660  43.2555230   6.5002980  77.0759760  34.4241400
   5.9319880  76.6278010  33.7977310   7.2091980  77.4352540  33.8906550
  14.8780600  69.9558200  48.8808170  15.2026370  69.2247860  49.4066150
  14.9137110  69.6371840  47.9789160   7.7269300  77.8248320  43.7816750
   8.0939430  77.3506890  44.5278090   7.5374360  78.6989890  44.1225090
   5.5168670  76.8656960  46.1000960   5.2125740  77.7448940  46.3251320
   6.4715130  76.9256750  46.1358400   4.0450460  81.0717950  36.6967810
   3.2712720  80.5315570  36.5366530   4.7745090  80.5524560  36.3585570
  14.8038440  80.0683310  42.4894200  15.5237560  80.5638600  42.0990310
  14.6020260  79.3901200  41.8448070  10.2648380  71.4621270  36.6323590
   9.4512990  70.9634440  36.5568900  10.0710330  72.3019520  36.2159940
  10.1857240  80.1392370  48.3763200  10.1194550  79.2188040  48.1220790
   9.5562380  80.2367810  49.0907840  12.9796770  75.8340920  34.9285750
  13.8676390  76.1458150  34.7537090  12.9501860  74.9613170  34.5366330
   4.0887860  80.7398330  40.3346620   4.6066530  79.9366590  40.2803510
   3.6371880  80.6777470  41.1763450   8.9757360  82.0064610  35.6073920
   9.3173060  82.7506840  35.1117240   8.1470070  82.3195730  35.9698750
   4.7745520  78.1643940  50.1311870   4.4745660  78.3101120  49.2339690
   5.5456760  77.6049230  50.0385260  10.1173970  82.9612940  48.1267000
  10.1318510  82.0293900  47.9085910   9.4099070  83.0472700  48.7656770
  15.2511040  77.1452760  34.3965610  15.1674760  77.5766980  33.5462050
  15.9705230  77.6051110  34.8292430  16.3285180  79.6020280  47.4735580
  15.6033370  80.1949060  47.2764970  16.8560640  79.5943820  46.6748950
  16.2798290  83.9995020  37.1247740  15.6374450  83.3450640  37.3991460
  15.8928950  84.4050110  36.3488410  11.8584770  81.3280450  40.9719430
  12.2108590  80.7308580  40.3120800  10.9747100  81.0024680  41.1427680
   7.9448050  82.0878140  38.3789840   8.6319180  82.6347350  38.7597430
   7.1580470  82.6318870  38.4139450   7.2475260  79.0924170  37.9915200
   7.7038040  79.9029420  38.2175390   6.8963470  78.7747310  38.8233690
   9.5507870  84.6030510  45.2207500  10.1950090  84.8089890  45.8980920
   9.9137310  83.8418910  44.7678350   3.1487040  69.4361820  38.4637720
   3.0201670  69.4279720  39.4122640   2.3249060  69.7744910  38.1128730
  10.8239950  82.6062860  43.9384950  11.4662180  81.9056020  44.0517120
  11.3489300  83.3861300  43.7581840  14.6695670  82.8911480  33.6624090
  14.4433250  82.1741920  34.2548730  14.2791870  82.6423920  32.8245840
  12.5977570  83.4057760  47.1421010  12.9333810  83.9924450  47.8198930
  11.6777910  83.2750470  47.3718800  14.2511920  80.8083420  35.3238250
  13.9633620  81.2696110  36.1116130  15.0464090  80.3481190  35.5922470
   8.4266150  83.4549090  50.3109070   8.1063020  82.7358330  50.8554760
   7.7524510  84.1304160  50.3845130   6.4680320  84.3009540  35.2542220
   6.4590420  85.0339230  34.6386730   5.5478680  84.0541120  35.3469180
  11.6419750  73.6875250  45.6745870  12.0100570  72.8670460  46.0025440
  10.7817950  73.7477140  46.0901520  15.0081780  72.6432190  36.4833430
  14.3794940  72.7477860  35.7691660  14.5133700  72.8628970  37.2727310
   9.4539920  84.3637780  33.9167410   9.5551900  84.1601770  32.9869390
   8.5541660  84.1096060  34.1215190   6.9765810  74.9218140  37.8991310
   6.2681960  75.3904480  38.3404920   7.2610290  74.2640150  38.5336500
   8.6021740  76.3414840  45.8983840   9.1006990  76.8160660  46.5635690
   8.7444690  75.4178360  46.1053870  11.0081240  71.6468800  39.3387100
  10.8849020  71.6654930  38.3896610  11.9565800  71.6947740  39.4585500
   8.0958030  86.8824100  38.6115080   8.3499530  86.8445490  37.6894450
   7.1470510  86.7557430  38.6043330   5.1800830  73.2303220  35.2742020
   6.0291360  73.6673370  35.2082210   4.8132100  73.5423480  36.1014080
  15.8088600  72.5582800  46.7412230  15.3062200  73.2988200  47.0806040
  16.6245260  72.9466800  46.4249020  14.1010610  77.8015980  40.1873590
  13.1600750  77.8166210  40.3621280  14.4154680  77.0151940  40.6333890
   4.0792250  79.4835580  33.7477550   4.8455520  79.3716940  34.3102980
   4.1566940  78.7873550  33.0954320   2.7739010  76.9160650  34.4310440
   2.8542600  75.9688160  34.5427840   3.6658760  77.2467530  34.5371100
  16.1036190  84.9724830  41.8627850  16.2283610  85.7956000  42.3351660
  16.9701750  84.7615560  41.5152000   3.5753720  87.0656040  41.5344980
   4.3116200  86.5171500  41.8053550   3.9594640  87.9312050  41.3950970
   2.5812000  86.2502110  50.7230560   3.3824730  86.5714160  51.1365960
   2.0663820  85.8897690  51.4450470   6.6856030  86.2386350  33.3570550
   7.4784640  86.5275180  32.9052340   6.1660380  85.8078520  32.6783030
  11.4176630  82.3581980  50.6705970  10.8114790  82.3813580  49.9301720
  11.1130740  81.6265020  51.2073220  12.8477000  86.0862270  49.2815380
  13.7998750  86.0020290  49.2315620  12.7005220  86.7503980  49.9549170
  15.7386200  85.4656480  34.7807290  15.4527710  85.0521620  33.9661470
  15.5405750  86.3944190  34.6607810   7.2033430  81.4589760  33.2212900
   7.0984070  80.8442110  33.9474280   7.0357650  80.9355650  32.4375910
   7.3547750  80.1446560  49.2002130   6.5893420  80.7131560  49.1156800
   7.5363710  79.8522770  48.3070360  10.4436160  80.5209790  33.8254890
   9.8946260  80.9679090  34.4697630  11.0655420  80.0159040  34.3492560
  14.4971100  81.8751890  49.7577150  15.2380570  82.2127650  49.2544610
  13.7343780  82.0443950  49.2046920   2.3332890  76.8805160  50.5616680
   2.3738230  76.5819030  51.4701910   3.1878390  77.2812770  50.4024200
   6.1111280  79.4800710  35.7220190   6.5327700  79.3140580  36.5651580
   6.2362120  78.6700940  35.2275330   4.2738700  75.4597260  48.5291170
   3.7435160  74.9688210  47.9014510   4.9426770  75.8881460  47.9949100
   8.6238920  78.5038320  32.9697290   9.1444580  77.7887340  32.6038440
   9.2707320  79.1424190  33.2697800  13.1716760  79.9266720  48.2932360
  13.5857780  80.0811800  49.1422780  12.2367760  80.0521940  48.4558140
  13.6438930  77.2662880  50.2971510  14.2259700  76.5115200  50.2091990
  13.8200700  77.7970320  49.5202990   4.7611000  72.4259630  48.6088460
   4.6667870  71.8080380  47.8839330   4.1808390  73.1525920  48.3818370
   7.5272440  70.9832870  45.6415850   7.0789740  71.0057130  44.7961400
   6.8937640  70.5851890  46.2386150   7.9331990  79.8787200  46.2628290
   8.3520100  80.7219930  46.0904530   7.0140620  80.0159240  46.0335070
  10.2695890  77.6103380  47.6466130  10.3892100  77.0144520  48.3860970
  11.1289890  77.6473070  47.2267430  12.6083790  78.1640570  46.2228640
  12.0819010  78.6883190  45.6193780  12.9515130  78.7967960  46.8538370
   5.0070180  75.5533940  32.6678350   4.8059240  74.6901300  33.0291690
   4.8362230  75.4667300  31.7299950   5.7839410  86.1840210  47.3786020
   5.2460500  86.9086270  47.0594720   6.0373370  85.7070550  46.5883360
   7.0364660  74.1524730  48.9041950   7.6264350  73.8440580  49.5919770
   6.2184900  73.6804480  49.0601850  11.8558090  73.7690540  49.1374970
  11.1673610  73.1072080  49.0724960  12.5764110  73.3228810  49.5823430
  12.4858490  70.3642170  35.1965230  12.7660780  69.5210070  35.5524650
  11.7124220  70.5965280  35.7103980   3.8052980  72.6534560  32.6556230
   4.1078880  72.6601990  31.7475380   4.5447570  72.3032420  33.1523890
   8.6401620  87.4191420  47.6372670   8.5660320  88.3226560  47.9445040
   7.7380460  87.1003320  47.6094740   7.0237910  71.5969180  33.6412430
   6.6759910  70.9193170  33.0614880   7.2250680  71.1358690  34.4555820
   9.1886950  86.5849930  35.2599030  10.0837740  86.9234900  35.2817790
   9.2204580  85.8629340  34.6323310   2.8283110  81.9576980  33.4886030
   3.2657980  82.5006650  34.1443610   3.3130840  81.1323930  33.4982370
   4.6390830  83.0775020  38.6008260   4.3386370  82.9539990  39.5012170
   4.5328320  82.2183610  38.1923990  16.1681300  85.1153600  47.9665230
  15.5683290  85.1746160  47.2229150  16.2975200  84.1758580  48.0962080
  17.4082750  82.8571420  33.3034940  16.5775710  82.9248070  33.7742170
  17.5854580  83.7475540  33.0001800  16.8639210  79.6018900  35.8069140
  17.6258120  80.1715550  35.9128830  16.8793580  79.0346100  36.5777450
  17.8699180  80.4569000  40.6511070  18.2408010  79.6736320  40.2447040
  18.5101110  81.1458100  40.4728370  14.8532940  81.8405580  46.0641390
  14.0392780  82.2702740  46.3267180  15.2607140  82.4523990  45.4510440
  16.9158380  79.8953270  32.9641660  17.1907220  80.8032150  32.8360880
  16.7269120  79.8315800  33.9003650  13.3133990  72.9198120  34.2595290
  13.7318870  72.7329100  33.4191950  13.0070050  72.0677170  34.5698220
  16.8123720  77.8322260  37.9571090  16.4367320  77.0650190  37.5252380
  16.0826840  78.2144960  38.4446020  16.2023340  76.9793780  47.5910610
  15.9709430  76.7506530  46.6908560  16.4627890  77.8993330  47.5455500
  14.6411410  72.2050210  50.3690310  15.5181590  72.2133610  50.7524310
  14.6532250  71.4681050  49.7582660  16.0874680  76.0579750  41.2578330
  16.6112160  75.5642400  40.6268500  16.6734100  76.1930110  42.0025900
  16.2664400  76.1419620  44.7797880  15.3167110  76.1083160  44.8942870
  16.4477410  77.0519730  44.5447650   1.7683000  70.4460630  32.9299160
   2.4911130  70.9869570  33.2480380   2.0407520  70.1724050  32.0540700
  15.5774650  75.3153100  37.1970740  16.0733770  75.0823970  37.9819620
  15.3790720  74.4764940  36.7808380  17.0061810  73.9514050  39.7308420
  16.8961090  73.7970090  40.6690690  17.7669400  73.4234990  39.4883830
  15.3527530  69.8908180  46.1891420  15.9899750  70.5042320  46.5550610
  15.5002420  69.9268840  45.2440650  17.8952080  71.7821970  32.9714560
  18.8201390  71.6503150  32.7632850  17.8727870  71.8614790  33.9251010
  17.9690570  72.5532630  35.5971270  17.1742070  72.4877750  36.1264180
  18.1733850  73.4883270  35.5856620  14.9108990  86.5924180  39.5909660
  15.5068060  86.2708750  38.9144080  15.1687140  86.1196000  40.3822930
   2.8171560  83.0242090  49.7400290   2.7741190  82.6535000  50.6214750
   2.9482570  83.9619660  49.8802110   6.5177590  84.5801680  45.3410010
   6.2768950  84.8476240  44.4540530   7.4580230  84.7507410  45.3960870
   8.7232010  71.0434370  49.0966520   8.6620900  71.6356200  49.8461930
   9.6632390  70.9360330  48.9516780  11.3606570  70.7004430  48.7358810
  11.9746980  71.0183720  48.0739890  11.9056130  70.2153020  49.3554670
  17.7781750  86.5996060  46.1420650  17.2840030  86.9964930  45.4247780
  17.1695040  85.9745270  46.5357930   1.8827830  69.3798690  48.8497870
   2.4310820  69.1986740  48.0863980   1.9483140  68.5892800  49.3854180
   2.6559590  85.9704340  46.8598070   2.0619910  85.8389040  47.5988110
   2.6483430  85.1342480  46.3940170  12.1014610  69.2636570  45.0628100
  11.2274450  69.5971680  44.8601030  11.9925360  68.7909750  45.8879970
  13.0086590  71.4707440  46.4469820  12.6799950  70.6559200  46.0671550
  13.9568890  71.4277250  46.3235510  15.4621200  87.2419480  43.4207390
  15.0024170  87.9935290  43.0465410  14.8333660  86.5225950  43.3622190
   5.8916920  85.5507720  42.5955520   6.4081940  84.9395080  42.0703780
   6.5414300  86.0536500  43.0866530   8.6312420  86.4416210  43.4224500
   8.9190230  86.1870510  42.5457510   9.1435640  85.8893570  44.0130070
   9.8489430  70.1806410  44.0021010   9.0661220  70.6551910  44.2817770
   9.5552360  69.2761240  43.8934190  14.4010500  70.8829510  42.0470100
  14.8418590  70.8274610  41.1991700  14.1318090  71.7987520  42.1180280
  16.2649070  70.5144750  40.0578920  16.2037470  69.5705970  39.9109940
  17.0441100  70.6224840  40.6032380   7.7343650  72.5993160  39.5137040
   6.9218160  72.2250050  39.1732920   8.2385290  71.8438240  39.8158230
  12.2368630  69.2635610  40.7520110  12.8398000  69.8355820  41.2268630
  11.4961620  69.8275050  40.5294010  15.3803230  69.6657170  36.0260390
  15.5753860  70.5640620  36.2927820  14.5933100  69.4344250  36.5193340
   3.5654990  71.0117940  35.0636700   4.0947750  70.2247740  34.9344650
   4.1983310  71.6909130  35.2972230   5.7592830  70.7493080  38.1182090
   5.1295570  70.0480390  38.2852220   5.2197970  71.5097210  37.9015250
   8.6984780  87.3632310  50.7892700   9.6252090  87.1276580  50.8328660
   8.6835210  88.1904310  50.3078730  16.9329840  86.9057880  37.7866950
  17.1082030  86.2195620  37.1427870  16.2351410  87.4304930  37.3943620
   5.8848390  70.0277060  50.5534580   5.6032660  70.5310660  49.7895400
   6.2668090  69.2298810  50.1876710   4.7757490  87.2952720  35.3402260
   5.5076310  87.0112000  34.7926150   5.0351160  87.0566000  36.2301640
   3.9372280  83.4117450  35.3448590   3.3081160  83.8802550  35.8934420
   4.0520110  82.5666670  35.7794780  12.4863850  69.4430640  51.1315050
  12.3729300  69.7625250  52.0266570  13.3033590  69.8443150  50.8352330
  15.2662340  86.5902170  50.6133740  16.0587660  86.0951400  50.4059700
  15.5595490  87.2692310  51.2209350  11.3922000  77.4623110  21.4949790
  11.3116050  76.5477720  21.2241500  10.9786420  77.9590180  20.7889500
   9.5240040  79.2402130  23.3759060   8.7482140  78.7602570  23.6657630
  10.1752970  78.5607780  23.2015220   3.5405870  79.5521940  24.2534820
   2.7090750  79.2970650  24.6531330   4.1486850  79.6232710  24.9892740
  13.5447470  83.6462320  22.1558190  13.0829000  82.8749560  22.4845360
  14.3573020  83.6728390  22.6610640   3.5207130  83.5862030  24.4492840
   3.8235170  82.6959770  24.2703060   4.2650720  84.1432250  24.2215090
   9.7710780  85.9320330  21.7762180   9.1522220  86.3877830  21.2056620
  10.6262560  86.0871790  21.3751880   8.9649030  81.9159320  23.3829220
   8.8957310  80.9749260  23.2218350   9.7268890  82.0060730  23.9551790
   9.9954200  74.7229700  23.6098150  10.3719020  73.8501580  23.4971820
   9.8973710  75.0588400  22.7188590   4.1259210  73.0955330  19.0715590
   4.2325960  73.9959060  19.3784350   3.2151570  73.0473300  18.7810240
  13.7778320  72.2180140  20.5426490  14.5987940  71.7276710  20.5851970
  13.8112400  72.8077800  21.2958330   5.9666940  76.0641700  23.4040770
   6.4745160  76.5622670  24.0445790   6.4980180  75.2876900  23.2280130
  18.0677870  74.2346890  27.1070120  17.3630040  74.6228600  26.5885230
  18.3335790  74.9297180  27.7091050   4.2503040  70.7040260  27.6704190
   4.2521480  71.2212650  26.8650090   3.4207350  70.2270440  27.6474120
  10.6374130  80.8159570  19.1694090  10.0191400  81.2809020  18.6056810
  11.1497380  81.5087050  19.5863600   5.5005890  80.3435440  25.8477690
   5.1675270  80.9704360  26.4898760   5.6772570  80.8697320  25.0679360
  14.0139800  74.1580520  23.3154030  13.3095370  74.4465410  23.8957140
  14.3751960  74.9680630  22.9553590   3.9318370  72.4150220  25.6774640
   4.2735180  73.2592270  25.3828510   2.9934180  72.5633960  25.7939980
   4.7124990  82.3116240  27.6626870   5.3298990  82.9867320  27.3811320
   3.8518110  82.7204220  27.5714370  15.6302580  83.7755650  25.5781510
  14.9466100  84.4454760  25.5698180  16.1696870  83.9736300  24.8126370
  17.0826720  73.6035310  23.7063240  16.1351630  73.6374290  23.8378670
  17.4076710  74.4174260  24.0912600   7.6146260  69.9032490  22.0019230
   7.9221240  69.3479380  21.2854730   6.6846960  70.0376950  21.8192220
  13.1661320  85.6199780  24.2926690  13.1788480  85.2162070  23.4248950
  12.6136540  86.3947070  24.1888120  14.4606740  82.3416000  19.3816860
  14.3503070  81.3990330  19.5066280  14.4574990  82.7031640  20.2679620
  12.5646760  80.5229620  25.6209300  12.9815550  80.3089730  24.7862760
  13.2886580  80.7802410  26.1917920  10.0027020  77.9681320  18.7379350
   9.0756300  77.9018700  18.9667820  10.1551840  78.9061450  18.6234590
   9.9896100  74.2398320  15.7346510   9.0499770  74.4012280  15.8198970
  10.3079360  74.9584000  15.1882500  16.5108860  78.9216840  25.7125540
  15.6827490  78.9909930  25.2375670  17.1059340  79.5071150  25.2441370
  14.0324310  79.5301620  19.2414600  13.4136730  79.1921170  18.5940900
  14.0148760  78.8861380  19.9493790  13.4750870  75.7086160  26.6580410
  13.0622050  76.5339870  26.9120400  12.7426820  75.1231200  26.4656770
   5.6083660  78.4946060  21.5199080   5.2040660  77.7823310  21.0244980
   5.6946780  78.1499300  22.4087120   6.0765360  82.1813620  23.6838290
   5.7793650  81.5759090  23.0046070   7.0265180  82.2190930  23.5727650
   4.3212280  75.2689270  25.2998120   4.8726870  75.3784610  24.5251370
   4.8355790  75.6426870  26.0153350  14.1650970  85.7545490  27.3461390
  13.6881530  86.5617680  27.1534000  13.4812760  85.1023820  27.4987600
   5.1683790  81.9195310  30.3346090   4.2712320  82.1435280  30.5819490
   5.1936660  82.0430250  29.3857490  12.2089010  78.7688430  16.2487350
  12.6482290  77.9310860  16.1025170  12.9217430  79.4017830  16.3351490
   3.9955010  78.7908630  28.9103460   3.8562780  79.6631430  29.2790860
   3.1136370  78.4481440  28.7651400  10.3184390  83.7084500  20.2168590
  10.7580300  84.4508830  19.8023980  10.2571280  83.9511070  21.1407550
   5.7935360  84.7330330  31.1188610   5.7650790  85.1373280  30.2517040
   5.6300330  83.8040690  30.9560210  15.7906150  70.0231240  14.5628390
  15.4778810  70.1158070  15.4627460  16.5518620  70.6012270  14.5125820
   2.3088290  77.3891040  19.0205730   2.1885890  78.1153130  18.4087000
   1.9989180  76.6193950  18.5433640  17.7450180  85.5157430  32.4152780
  18.2209900  85.9940320  33.0941860  18.3657340  85.4474920  31.6898280
  17.1483430  82.7070280  29.5752790  17.2746490  82.4682160  28.6569970
  17.1904810  81.8754820  30.0474870  11.0100170  86.4098280  28.1447600
  11.5244840  86.3206290  28.9470030  10.1669250  86.7557980  28.4375510
  12.9854570  86.6953620  17.5731600  12.8255710  86.4056560  18.4713430
  12.8201280  85.9193750  17.0376830   5.4642950  86.4752150  19.3503220
   5.2885430  85.5587690  19.1371020   4.6098690  86.8339440  19.5901020
  12.6880700  84.2041180  16.1329600  11.9945860  84.2018470  15.4731880
  13.4303560  83.7800500  15.7023770  12.2530630  85.8303890  20.2078090
  12.7087580  85.0493270  20.5216710  12.5923150  86.5410710  20.7519270
  17.0007440  74.7602740  30.5402530  16.3851710  75.2682410  30.0117990
  16.6803860  73.8601070  30.4828470   4.7751950  70.7326110  22.4029400
   4.3320100  71.5135650  22.0713920   5.3336940  71.0556000  23.1100340
   9.0621760  73.5994630  28.0064720   8.6001130  73.8077650  28.8184660
   8.6599870  72.7853980  27.7035390  14.0626270  74.8203580  29.1361380
  13.2119860  74.5209330  29.4570450  13.9028060  75.0645590  28.2245200
  11.1575980  76.3205330  31.2360170  11.4829390  75.4869080  30.8962400
  11.9456310  76.8433850  31.3838500   7.8910770  70.3536810  17.2835230
   7.2664950  70.3496680  18.0088540   7.8040890  69.4867770  16.8871200
   6.8127850  71.2773440  24.2619000   7.1100180  72.1836270  24.1811020
   7.3613410  70.7892220  23.6478570   4.5666170  75.8559680  20.1310650
   4.3407090  75.6396850  21.0357270   3.7858700  76.2888140  19.7856620
  11.7963930  75.8623050  18.7301300  11.1972820  76.5858850  18.5464920
  12.3443540  75.7999830  17.9477750   7.0065380  76.7545260  30.7970920
   6.9108980  75.8139990  30.6471320   7.8497360  76.9760330  30.4018990
  10.4028800  74.4986590  20.7604580  10.7958370  74.8158790  19.9473270
  10.7645650  73.6198470  20.8749100   8.7120970  73.2493900  32.0201440
   8.0219290  73.0566100  32.6547530   9.4553270  73.5328540  32.5525740
  10.9883940  77.0892340  24.8555360  10.2565060  77.5979150  25.2045460
  10.5908280  76.2722320  24.5544140   7.4261330  73.7646540  23.2607850
   7.4297390  73.3236490  22.4112390   8.3212450  74.0863870  23.3679670
   3.2763710  73.6473030  22.2202060   2.9363760  74.1248260  22.9769110
   2.5141030  73.1938150  21.8603160   7.4881480  74.7658620  16.2514610
   7.6094300  74.7245100  17.2000430   7.1029990  75.6282770  16.0961340
  11.4509850  72.5426020  24.2678300  11.4682590  72.9934670  25.1120150
  11.2025430  71.6431660  24.4811740   6.5002980  77.0759760  15.6497910
   5.9319880  76.6278010  15.0233820   7.2091980  77.4352540  15.1163060
  14.8780600  69.9558200  30.1064680  15.2026370  69.2247860  30.6322660
  14.9137110  69.6371840  29.2045670   7.7269300  77.8248320  25.0073260
   8.0939430  77.3506890  25.7534600   7.5374360  78.6989890  25.3481600
   5.5168670  76.8656960  27.3257470   5.2125740  77.7448940  27.5507830
   6.4715130  76.9256750  27.3614910   4.0450460  81.0717950  17.9224320
   3.2712720  80.5315570  17.7623040   4.7745090  80.5524560  17.5842080
  14.8038440  80.0683310  23.7150710  15.5237560  80.5638600  23.3246820
  14.6020260  79.3901200  23.0704580  10.2648380  71.4621270  17.8580100
   9.4512990  70.9634440  17.7825410  10.0710330  72.3019520  17.4416450
  10.1857240  80.1392370  29.6019710  10.1194550  79.2188040  29.3477300
   9.5562380  80.2367810  30.3164350  12.9796770  75.8340920  16.1542260
  13.8676390  76.1458150  15.9793600  12.9501860  74.9613170  15.7622840
   4.0887860  80.7398330  21.5603130   4.6066530  79.9366590  21.5060020
   3.6371880  80.6777470  22.4019960   8.9757360  82.0064610  16.8330430
   9.3173060  82.7506840  16.3373750   8.1470070  82.3195730  17.1955260
   4.7745520  78.1643940  31.3568380   4.4745660  78.3101120  30.4596200
   5.5456760  77.6049230  31.2641770  10.1173970  82.9612940  29.3523510
  10.1318510  82.0293900  29.1342420   9.4099070  83.0472700  29.9913280
  15.2511040  77.1452760  15.6222120  15.1674760  77.5766980  14.7718560
  15.9705230  77.6051110  16.0548940  16.3285180  79.6020280  28.6992090
  15.6033370  80.1949060  28.5021480  16.8560640  79.5943820  27.9005460
  16.2798290  83.9995020  18.3504250  15.6374450  83.3450640  18.6247970
  15.8928950  84.4050110  17.5744920  11.8584770  81.3280450  22.1975940
  12.2108590  80.7308580  21.5377310  10.9747100  81.0024680  22.3684190
   7.9448050  82.0878140  19.6046350   8.6319180  82.6347350  19.9853940
   7.1580470  82.6318870  19.6395960   7.2475260  79.0924170  19.2171710
   7.7038040  79.9029420  19.4431900   6.8963470  78.7747310  20.0490200
   9.5507870  84.6030510  26.4464010  10.1950090  84.8089890  27.1237430
   9.9137310  83.8418910  25.9934860   3.1487040  69.4361820  19.6894230
   3.0201670  69.4279720  20.6379150   2.3249060  69.7744910  19.3385240
  10.8239950  82.6062860  25.1641460  11.4662180  81.9056020  25.2773630
  11.3489300  83.3861300  24.9838350  14.6695670  82.8911480  14.8880600
  14.4433250  82.1741920  15.4805240  14.2791870  82.6423920  14.0502350
  12.5977570  83.4057760  28.3677520  12.9333810  83.9924450  29.0455440
  11.6777910  83.2750470  28.5975310  14.2511920  80.8083420  16.5494760
  13.9633620  81.2696110  17.3372640  15.0464090  80.3481190  16.8178980
   8.4266150  83.4549090  31.5365580   8.1063020  82.7358330  32.0811270
   7.7524510  84.1304160  31.6101640   6.4680320  84.3009540  16.4798730
   6.4590420  85.0339230  15.8643240   5.5478680  84.0541120  16.5725690
  11.6419750  73.6875250  26.9002380  12.0100570  72.8670460  27.2281950
  10.7817950  73.7477140  27.3158030  15.0081780  72.6432190  17.7089940
  14.3794940  72.7477860  16.9948170  14.5133700  72.8628970  18.4983820
   9.4539920  84.3637780  15.1423920   9.5551900  84.1601770  14.2125900
   8.5541660  84.1096060  15.3471700   6.9765810  74.9218140  19.1247820
   6.2681960  75.3904480  19.5661430   7.2610290  74.2640150  19.7593010
   8.6021740  76.3414840  27.1240350   9.1006990  76.8160660  27.7892200
   8.7444690  75.4178360  27.3310380  11.0081240  71.6468800  20.5643610
  10.8849020  71.6654930  19.6153120  11.9565800  71.6947740  20.6842010
   8.0958030  86.8824100  19.8371590   8.3499530  86.8445490  18.9150960
   7.1470510  86.7557430  19.8299840   5.1800830  73.2303220  16.4998530
   6.0291360  73.6673370  16.4338720   4.8132100  73.5423480  17.3270590
  15.8088600  72.5582800  27.9668740  15.3062200  73.2988200  28.3062550
  16.6245260  72.9466800  27.6505530  14.1010610  77.8015980  21.4130100
  13.1600750  77.8166210  21.5877790  14.4154680  77.0151940  21.8590400
   4.0792250  79.4835580  14.9734060   4.8455520  79.3716940  15.5359490
   4.1566940  78.7873550  14.3210830   2.7739010  76.9160650  15.6566950
   2.8542600  75.9688160  15.7684350   3.6658760  77.2467530  15.7627610
  16.1036190  84.9724830  23.0884360  16.2283610  85.7956000  23.5608170
  16.9701750  84.7615560  22.7408510   3.5753720  87.0656040  22.7601490
   4.3116200  86.5171500  23.0310060   3.9594640  87.9312050  22.6207480
   2.5812000  86.2502110  31.9487070   3.3824730  86.5714160  32.3622470
   2.0663820  85.8897690  32.6706980   6.6856030  86.2386350  14.5827060
   7.4784640  86.5275180  14.1308850   6.1660380  85.8078520  13.9039540
  11.4176630  82.3581980  31.8962480  10.8114790  82.3813580  31.1558230
  11.1130740  81.6265020  32.4329730  12.8477000  86.0862270  30.5071890
  13.7998750  86.0020290  30.4572130  12.7005220  86.7503980  31.1805680
  15.7386200  85.4656480  16.0063800  15.4527710  85.0521620  15.1917980
  15.5405750  86.3944190  15.8864320   7.2033430  81.4589760  14.4469410
   7.0984070  80.8442110  15.1730790   7.0357650  80.9355650  13.6632420
   7.3547750  80.1446560  30.4258640   6.5893420  80.7131560  30.3413310
   7.5363710  79.8522770  29.5326870  10.4436160  80.5209790  15.0511400
   9.8946260  80.9679090  15.6954140  11.0655420  80.0159040  15.5749070
  14.4971100  81.8751890  30.9833660  15.2380570  82.2127650  30.4801120
  13.7343780  82.0443950  30.4303430   2.3332890  76.8805160  31.7873190
   2.3738230  76.5819030  32.6958420   3.1878390  77.2812770  31.6280710
   6.1111280  79.4800710  16.9476700   6.5327700  79.3140580  17.7908090
   6.2362120  78.6700940  16.4531840   4.2738700  75.4597260  29.7547680
   3.7435160  74.9688210  29.1271020   4.9426770  75.8881460  29.2205610
   8.6238920  78.5038320  14.1953800   9.1444580  77.7887340  13.8294950
   9.2707320  79.1424190  14.4954310  13.1716760  79.9266720  29.5188870
  13.5857780  80.0811800  30.3679290  12.2367760  80.0521940  29.6814650
  13.6438930  77.2662880  31.5228020  14.2259700  76.5115200  31.4348500
  13.8200700  77.7970320  30.7459500   4.7611000  72.4259630  29.8344970
   4.6667870  71.8080380  29.1095840   4.1808390  73.1525920  29.6074880
   7.5272440  70.9832870  26.8672360   7.0789740  71.0057130  26.0217910
   6.8937640  70.5851890  27.4642660   7.9331990  79.8787200  27.4884800
   8.3520100  80.7219930  27.3161040   7.0140620  80.0159240  27.2591580
  10.2695890  77.6103380  28.8722640  10.3892100  77.0144520  29.6117480
  11.1289890  77.6473070  28.4523940  12.6083790  78.1640570  27.4485150
  12.0819010  78.6883190  26.8450290  12.9515130  78.7967960  28.0794880
   5.0070180  75.5533940  13.8934860   4.8059240  74.6901300  14.2548200
   4.8362230  75.4667300  12.9556460   5.7839410  86.1840210  28.6042530
   5.2460500  86.9086270  28.2851230   6.0373370  85.7070550  27.8139870
   7.0364660  74.1524730  30.1298460   7.6264350  73.8440580  30.8176280
   6.2184900  73.6804480  30.2858360  11.8558090  73.7690540  30.3631480
  11.1673610  73.1072080  30.2981470  12.5764110  73.3228810  30.8079940
  12.4858490  70.3642170  16.4221740  12.7660780  69.5210070  16.7781160
  11.7124220  70.5965280  16.9360490   3.8052980  72.6534560  13.8812740
   4.1078880  72.6601990  12.9731890   4.5447570  72.3032420  14.3780400
   8.6401620  87.4191420  28.8629180   8.5660320  88.3226560  29.1701550
   7.7380460  87.1003320  28.8351250   7.0237910  71.5969180  14.8668940
   6.6759910  70.9193170  14.2871390   7.2250680  71.1358690  15.6812330
   9.1886950  86.5849930  16.4855540  10.0837740  86.9234900  16.5074300
   9.2204580  85.8629340  15.8579820   2.8283110  81.9576980  14.7142540
   3.2657980  82.5006650  15.3700120   3.3130840  81.1323930  14.7238880
   4.6390830  83.0775020  19.8264770   4.3386370  82.9539990  20.7268680
   4.5328320  82.2183610  19.4180500  16.1681300  85.1153600  29.1921740
  15.5683290  85.1746160  28.4485660  16.2975200  84.1758580  29.3218590
  17.4082750  82.8571420  14.5291450  16.5775710  82.9248070  14.9998680
  17.5854580  83.7475540  14.2258310  16.8639210  79.6018900  17.0325650
  17.6258120  80.1715550  17.1385340  16.8793580  79.0346100  17.8033960
  17.8699180  80.4569000  21.8767580  18.2408010  79.6736320  21.4703550
  18.5101110  81.1458100  21.6984880  14.8532940  81.8405580  27.2897900
  14.0392780  82.2702740  27.5523690  15.2607140  82.4523990  26.6766950
  16.9158380  79.8953270  14.1898170  17.1907220  80.8032150  14.0617390
  16.7269120  79.8315800  15.1260160  13.3133990  72.9198120  15.4851800
  13.7318870  72.7329100  14.6448460  13.0070050  72.0677170  15.7954730
  16.8123720  77.8322260  19.1827600  16.4367320  77.0650190  18.7508890
  16.0826840  78.2144960  19.6702530  16.2023340  76.9793780  28.8167120
  15.9709430  76.7506530  27.9165070  16.4627890  77.8993330  28.7712010
  14.6411410  72.2050210  31.5946820  15.5181590  72.2133610  31.9780820
  14.6532250  71.4681050  30.9839170  16.0874680  76.0579750  22.4834840
  16.6112160  75.5642400  21.8525010  16.6734100  76.1930110  23.2282410
  16.2664400  76.1419620  26.0054390  15.3167110  76.1083160  26.1199380
  16.4477410  77.0519730  25.7704160   1.7683000  70.4460630  14.1555670
   2.4911130  70.9869570  14.4736890   2.0407520  70.1724050  13.2797210
  15.5774650  75.3153100  18.4227250  16.0733770  75.0823970  19.2076130
  15.3790720  74.4764940  18.0064890  17.0061810  73.9514050  20.9564930
  16.8961090  73.7970090  21.8947200  17.7669400  73.4234990  20.7140340
  15.3527530  69.8908180  27.4147930  15.9899750  70.5042320  27.7807120
  15.5002420  69.9268840  26.4697160  17.8952080  71.7821970  14.1971070
  18.8201390  71.6503150  13.9889360  17.8727870  71.8614790  15.1507520
  17.9690570  72.5532630  16.8227780  17.1742070  72.4877750  17.3520690
  18.1733850  73.4883270  16.8113130  14.9108990  86.5924180  20.8166170
  15.5068060  86.2708750  20.1400590  15.1687140  86.1196000  21.6079440
   2.8171560  83.0242090  30.9656800   2.7741190  82.6535000  31.8471260
   2.9482570  83.9619660  31.1058620   6.5177590  84.5801680  26.5666520
   6.2768950  84.8476240  25.6797040   7.4580230  84.7507410  26.6217380
   8.7232010  71.0434370  30.3223030   8.6620900  71.6356200  31.0718440
   9.6632390  70.9360330  30.1773290  11.3606570  70.7004430  29.9615320
  11.9746980  71.0183720  29.2996400  11.9056130  70.2153020  30.5811180
  17.7781750  86.5996060  27.3677160  17.2840030  86.9964930  26.6504290
  17.1695040  85.9745270  27.7614440   1.8827830  69.3798690  30.0754380
   2.4310820  69.1986740  29.3120490   1.9483140  68.5892800  30.6110690
   2.6559590  85.9704340  28.0854580   2.0619910  85.8389040  28.8244620
   2.6483430  85.1342480  27.6196680  12.1014610  69.2636570  26.2884610
  11.2274450  69.5971680  26.0857540  11.9925360  68.7909750  27.1136480
  13.0086590  71.4707440  27.6726330  12.6799950  70.6559200  27.2928060
  13.9568890  71.4277250  27.5492020  15.4621200  87.2419480  24.6463900
  15.0024170  87.9935290  24.2721920  14.8333660  86.5225950  24.5878700
   5.8916920  85.5507720  23.8212030   6.4081940  84.9395080  23.2960290
   6.5414300  86.0536500  24.3123040   8.6312420  86.4416210  24.6481010
   8.9190230  86.1870510  23.7714020   9.1435640  85.8893570  25.2386580
   9.8489430  70.1806410  25.2277520   9.0661220  70.6551910  25.5074280
   9.5552360  69.2761240  25.1190700  14.4010500  70.8829510  23.2726610
  14.8418590  70.8274610  22.4248210  14.1318090  71.7987520  23.3436790
  16.2649070  70.5144750  21.2835430  16.2037470  69.5705970  21.1366450
  17.0441100  70.6224840  21.8288890   7.7343650  72.5993160  20.7393550
   6.9218160  72.2250050  20.3989430   8.2385290  71.8438240  21.0414740
  12.2368630  69.2635610  21.9776620  12.8398000  69.8355820  22.4525140
  11.4961620  69.8275050  21.7550520  15.3803230  69.6657170  17.2516900
  15.5753860  70.5640620  17.5184330  14.5933100  69.4344250  17.7449850
   3.5654990  71.0117940  16.2893210   4.0947750  70.2247740  16.1601160
   4.1983310  71.6909130  16.5228740   5.7592830  70.7493080  19.3438600
   5.1295570  70.0480390  19.5108730   5.2197970  71.5097210  19.1271760
   8.6984780  87.3632310  32.0149210   9.6252090  87.1276580  32.0585170
   8.6835210  88.1904310  31.5335240  16.9329840  86.9057880  19.0123460
  17.1082030  86.2195620  18.3684380  16.2351410  87.4304930  18.6200130
   5.8848390  70.0277060  31.7791090   5.6032660  70.5310660  31.0151910
   6.2668090  69.2298810  31.4133220   4.7757490  87.2952720  16.5658770
   5.5076310  87.0112000  16.0182660   5.0351160  87.0566000  17.4558150
   3.9372280  83.4117450  16.5705100   3.3081160  83.8802550  17.1190930
   4.0520110  82.5666670  17.0051290  12.4863850  69.4430640  32.3571560
  12.3729300  69.7625250  33.2523080  13.3033590  69.8443150  32.0608840
  15.2662340  86.5902170  31.8390250  16.0587660  86.0951400  31.6316210
  15.5595490  87.2692310  32.4465860  11.3922000  77.4623110   2.7206300
  11.3116050  76.5477720   2.4498010  10.9786420  77.9590180   2.0146010
   9.5240040  79.2402130   4.6015570   8.7482140  78.7602570   4.8914140
  10.1752970  78.5607780   4.4271730   3.5405870  79.5521940   5.4791330
   2.7090750  79.2970650   5.8787840   4.1486850  79.6232710   6.2149250
  13.5447470  83.6462320   3.3814700  13.0829000  82.8749560   3.7101870
  14.3573020  83.6728390   3.8867150   3.5207130  83.5862030   5.6749350
   3.8235170  82.6959770   5.4959570   4.2650720  84.1432250   5.4471600
   9.7710780  85.9320330   3.0018690   9.1522220  86.3877830   2.4313130
  10.6262560  86.0871790   2.6008390   8.9649030  81.9159320   4.6085730
   8.8957310  80.9749260   4.4474860   9.7268890  82.0060730   5.1808300
   9.9954200  74.7229700   4.8354660  10.3719020  73.8501580   4.7228330
   9.8973710  75.0588400   3.9445100  13.7778320  72.2180140   1.7683000
  14.5987940  71.7276710   1.8108480  13.8112400  72.8077800   2.5214840
   5.9666940  76.0641700   4.6297280   6.4745160  76.5622670   5.2702300
   6.4980180  75.2876900   4.4536640  18.0677870  74.2346890   8.3326630
  17.3630040  74.6228600   7.8141740  18.3335790  74.9297180   8.9347560
   4.2503040  70.7040260   8.8960700   4.2521480  71.2212650   8.0906600
   3.4207350  70.2270440   8.8730630   5.5005890  80.3435440   7.0734200
   5.1675270  80.9704360   7.7155270   5.6772570  80.8697320   6.2935870
  14.0139800  74.1580520   4.5410540  13.3095370  74.4465410   5.1213650
  14.3751960  74.9680630   4.1810100   3.9318370  72.4150220   6.9031150
   4.2735180  73.2592270   6.6085020   2.9934180  72.5633960   7.0196490
   4.7124990  82.3116240   8.8883380   5.3298990  82.9867320   8.6067830
   3.8518110  82.7204220   8.7970880  15.6302580  83.7755650   6.8038020
  14.9466100  84.4454760   6.7954690  16.1696870  83.9736300   6.0382880
  17.0826720  73.6035310   4.9319750  16.1351630  73.6374290   5.0635180
  17.4076710  74.4174260   5.3169110   7.6146260  69.9032490   3.2275740
   7.9221240  69.3479380   2.5111240   6.6846960  70.0376950   3.0448730
  13.1661320  85.6199780   5.5183200  13.1788480  85.2162070   4.6505460
  12.6136540  86.3947070   5.4144630  12.5646760  80.5229620   6.8465810
  12.9815550  80.3089730   6.0119270  13.2886580  80.7802410   7.4174430
  16.5108860  78.9216840   6.9382050  15.6827490  78.9909930   6.4632180
  17.1059340  79.5071150   6.4697880  13.4750870  75.7086160   7.8836920
  13.0622050  76.5339870   8.1376910  12.7426820  75.1231200   7.6913280
   5.6083660  78.4946060   2.7455590   5.2040660  77.7823310   2.2501490
   5.6946780  78.1499300   3.6343630   6.0765360  82.1813620   4.9094800
   5.7793650  81.5759090   4.2302580   7.0265180  82.2190930   4.7984160
   4.3212280  75.2689270   6.5254630   4.8726870  75.3784610   5.7507880
   4.8355790  75.6426870   7.2409860  14.1650970  85.7545490   8.5717900
  13.6881530  86.5617680   8.3790510  13.4812760  85.1023820   8.7244110
   5.1683790  81.9195310  11.5602600   4.2712320  82.1435280  11.8076000
   5.1936660  82.0430250  10.6114000   3.9955010  78.7908630  10.1359970
   3.8562780  79.6631430  10.5047370   3.1136370  78.4481440   9.9907910
   5.7935360  84.7330330  12.3445120   5.7650790  85.1373280  11.4773550
   5.6300330  83.8040690  12.1816720  17.7450180  85.5157430  13.6409290
  18.2209900  85.9940320  14.3198370  18.3657340  85.4474920  12.9154790
  17.1483430  82.7070280  10.8009300  17.2746490  82.4682160   9.8826480
  17.1904810  81.8754820  11.2731380  11.0100170  86.4098280   9.3704110
  11.5244840  86.3206290  10.1726540  10.1669250  86.7557980   9.6632020
  17.0007440  74.7602740  11.7659040  16.3851710  75.2682410  11.2374500
  16.6803860  73.8601070  11.7084980   4.7751950  70.7326110   3.6285910
   4.3320100  71.5135650   3.2970430   5.3336940  71.0556000   4.3356850
   9.0621760  73.5994630   9.2321230   8.6001130  73.8077650  10.0441170
   8.6599870  72.7853980   8.9291900  14.0626270  74.8203580  10.3617890
  13.2119860  74.5209330  10.6826960  13.9028060  75.0645590   9.4501710
  11.1575980  76.3205330  12.4616680  11.4829390  75.4869080  12.1218910
  11.9456310  76.8433850  12.6095010   6.8127850  71.2773440   5.4875510
   7.1100180  72.1836270   5.4067530   7.3613410  70.7892220   4.8735080
   7.0065380  76.7545260  12.0227430   6.9108980  75.8139990  11.8727830
   7.8497360  76.9760330  11.6275500   8.7120970  73.2493900  13.2457950
   8.0219290  73.0566100  13.8804040   9.4553270  73.5328540  13.7782250
  10.9883940  77.0892340   6.0811870  10.2565060  77.5979150   6.4301970
  10.5908280  76.2722320   5.7800650   7.4261330  73.7646540   4.4864360
   7.4297390  73.3236490   3.6368900   8.3212450  74.0863870   4.5936180
   3.2763710  73.6473030   3.4458570   2.9363760  74.1248260   4.2025620
   2.5141030  73.1938150   3.0859670  11.4509850  72.5426020   5.4934810
  11.4682590  72.9934670   6.3376660  11.2025430  71.6431660   5.7068250
  14.8780600  69.9558200  11.3321190  15.2026370  69.2247860  11.8579170
  14.9137110  69.6371840  10.4302180   7.7269300  77.8248320   6.2329770
   8.0939430  77.3506890   6.9791110   7.5374360  78.6989890   6.5738110
   5.5168670  76.8656960   8.5513980   5.2125740  77.7448940   8.7764340
   6.4715130  76.9256750   8.5871420  14.8038440  80.0683310   4.9407220
  15.5237560  80.5638600   4.5503330  14.6020260  79.3901200   4.2961090
  10.1857240  80.1392370  10.8276220  10.1194550  79.2188040  10.5733810
   9.5562380  80.2367810  11.5420860   4.0887860  80.7398330   2.7859640
   4.6066530  79.9366590   2.7316530   3.6371880  80.6777470   3.6276470
   4.7745520  78.1643940  12.5824890   4.4745660  78.3101120  11.6852710
   5.5456760  77.6049230  12.4898280  10.1173970  82.9612940  10.5780020
  10.1318510  82.0293900  10.3598930   9.4099070  83.0472700  11.2169790
  16.3285180  79.6020280   9.9248600  15.6033370  80.1949060   9.7277990
  16.8560640  79.5943820   9.1261970  11.8584770  81.3280450   3.4232450
  12.2108590  80.7308580   2.7633820  10.9747100  81.0024680   3.5940700
   9.5507870  84.6030510   7.6720520  10.1950090  84.8089890   8.3493940
   9.9137310  83.8418910   7.2191370  10.8239950  82.6062860   6.3897970
  11.4662180  81.9056020   6.5030140  11.3489300  83.3861300   6.2094860
  12.5977570  83.4057760   9.5934030  12.9333810  83.9924450  10.2711950
  11.6777910  83.2750470   9.8231820   8.4266150  83.4549090  12.7622090
   8.1063020  82.7358330  13.3067780   7.7524510  84.1304160  12.8358150
  11.6419750  73.6875250   8.1258890  12.0100570  72.8670460   8.4538460
  10.7817950  73.7477140   8.5414540   8.6021740  76.3414840   8.3496860
   9.1006990  76.8160660   9.0148710   8.7444690  75.4178360   8.5566890
  15.8088600  72.5582800   9.1925250  15.3062200  73.2988200   9.5319060
  16.6245260  72.9466800   8.8762040  14.1010610  77.8015980   2.6386610
  13.1600750  77.8166210   2.8134300  14.4154680  77.0151940   3.0846910
  16.1036190  84.9724830   4.3140870  16.2283610  85.7956000   4.7864680
  16.9701750  84.7615560   3.9665020   3.5753720  87.0656040   3.9858000
   4.3116200  86.5171500   4.2566570   3.9594640  87.9312050   3.8463990
   2.5812000  86.2502110  13.1743580   3.3824730  86.5714160  13.5878980
   2.0663820  85.8897690  13.8963490  11.4176630  82.3581980  13.1218990
  10.8114790  82.3813580  12.3814740  11.1130740  81.6265020  13.6586240
  12.8477000  86.0862270  11.7328400  13.7998750  86.0020290  11.6828640
  12.7005220  86.7503980  12.4062190   7.3547750  80.1446560  11.6515150
   6.5893420  80.7131560  11.5669820   7.5363710  79.8522770  10.7583380
  14.4971100  81.8751890  12.2090170  15.2380570  82.2127650  11.7057630
  13.7343780  82.0443950  11.6559940   2.3332890  76.8805160  13.0129700
   2.3738230  76.5819030  13.9214930   3.1878390  77.2812770  12.8537220
   4.2738700  75.4597260  10.9804190   3.7435160  74.9688210  10.3527530
   4.9426770  75.8881460  10.4462120  13.1716760  79.9266720  10.7445380
  13.5857780  80.0811800  11.5935800  12.2367760  80.0521940  10.9071160
  13.6438930  77.2662880  12.7484530  14.2259700  76.5115200  12.6605010
  13.8200700  77.7970320  11.9716010   4.7611000  72.4259630  11.0601480
   4.6667870  71.8080380  10.3352350   4.1808390  73.1525920  10.8331390
   7.5272440  70.9832870   8.0928870   7.0789740  71.0057130   7.2474420
   6.8937640  70.5851890   8.6899170   7.9331990  79.8787200   8.7141310
   8.3520100  80.7219930   8.5417550   7.0140620  80.0159240   8.4848090
  10.2695890  77.6103380  10.0979150  10.3892100  77.0144520  10.8373990
  11.1289890  77.6473070   9.6780450  12.6083790  78.1640570   8.6741660
  12.0819010  78.6883190   8.0706800  12.9515130  78.7967960   9.3051390
   5.7839410  86.1840210   9.8299040   5.2460500  86.9086270   9.5107740
   6.0373370  85.7070550   9.0396380   7.0364660  74.1524730  11.3554970
   7.6264350  73.8440580  12.0432790   6.2184900  73.6804480  11.5114870
  11.8558090  73.7690540  11.5887990  11.1673610  73.1072080  11.5237980
  12.5764110  73.3228810  12.0336450   8.6401620  87.4191420  10.0885690
   8.5660320  88.3226560  10.3958060   7.7380460  87.1003320  10.0607760
  16.1681300  85.1153600  10.4178250  15.5683290  85.1746160   9.6742170
  16.2975200  84.1758580  10.5475100  17.8699180  80.4569000   3.1024090
  18.2408010  79.6736320   2.6960060  18.5101110  81.1458100   2.9241390
  14.8532940  81.8405580   8.5154410  14.0392780  82.2702740   8.7780200
  15.2607140  82.4523990   7.9023460  16.2023340  76.9793780  10.0423630
  15.9709430  76.7506530   9.1421580  16.4627890  77.8993330   9.9968520
  14.6411410  72.2050210  12.8203330  15.5181590  72.2133610  13.2037330
  14.6532250  71.4681050  12.2095680  16.0874680  76.0579750   3.7091350
  16.6112160  75.5642400   3.0781520  16.6734100  76.1930110   4.4538920
  16.2664400  76.1419620   7.2310900  15.3167110  76.1083160   7.3455890
  16.4477410  77.0519730   6.9960670  17.0061810  73.9514050   2.1821440
  16.8961090  73.7970090   3.1203710  17.7669400  73.4234990   1.9396850
  15.3527530  69.8908180   8.6404440  15.9899750  70.5042320   9.0063630
  15.5002420  69.9268840   7.6953670   2.8171560  83.0242090  12.1913310
   2.7741190  82.6535000  13.0727770   2.9482570  83.9619660  12.3315130
   6.5177590  84.5801680   7.7923030   6.2768950  84.8476240   6.9053550
   7.4580230  84.7507410   7.8473890   8.7232010  71.0434370  11.5479540
   8.6620900  71.6356200  12.2974950   9.6632390  70.9360330  11.4029800
  11.3606570  70.7004430  11.1871830  11.9746980  71.0183720  10.5252910
  11.9056130  70.2153020  11.8067690  17.7781750  86.5996060   8.5933670
  17.2840030  86.9964930   7.8760800  17.1695040  85.9745270   8.9870950
   1.8827830  69.3798690  11.3010890   2.4310820  69.1986740  10.5377000
   1.9483140  68.5892800  11.8367200   2.6559590  85.9704340   9.3111090
   2.0619910  85.8389040  10.0501130   2.6483430  85.1342480   8.8453190
  12.1014610  69.2636570   7.5141120  11.2274450  69.5971680   7.3114050
  11.9925360  68.7909750   8.3392990  13.0086590  71.4707440   8.8982840
  12.6799950  70.6559200   8.5184570  13.9568890  71.4277250   8.7748530
  15.4621200  87.2419480   5.8720410  15.0024170  87.9935290   5.4978430
  14.8333660  86.5225950   5.8135210   5.8916920  85.5507720   5.0468540
   6.4081940  84.9395080   4.5216800   6.5414300  86.0536500   5.5379550
   8.6312420  86.4416210   5.8737520   8.9190230  86.1870510   4.9970530
   9.1435640  85.8893570   6.4643090   9.8489430  70.1806410   6.4534030
   9.0661220  70.6551910   6.7330790   9.5552360  69.2761240   6.3447210
  14.4010500  70.8829510   4.4983120  14.8418590  70.8274610   3.6504720
  14.1318090  71.7987520   4.5693300  16.2649070  70.5144750   2.5091940
  16.2037470  69.5705970   2.3622960  17.0441100  70.6224840   3.0545400
   7.7343650  72.5993160   1.9650060   6.9218160  72.2250050   1.6245940
   8.2385290  71.8438240   2.2671250  12.2368630  69.2635610   3.2033130
  12.8398000  69.8355820   3.6781650  11.4961620  69.8275050   2.9807030
   8.6984780  87.3632310  13.2405720   9.6252090  87.1276580  13.2841680
   8.6835210  88.1904310  12.7591750   5.8848390  70.0277060  13.0047600
   5.6032660  70.5310660  12.2408420   6.2668090  69.2298810  12.6389730
  12.4863850  69.4430640  13.5828070  12.3729300  69.7625250  14.4779590
  13.3033590  69.8443150  13.2865350  15.2662340  86.5902170  13.0646760
  16.0587660  86.0951400  12.8572720  15.5595490  87.2692310  13.6722370
  11.3922000  58.6879620  59.0436770  11.3116050  57.7734230  58.7728480
  10.9786420  59.1846690  58.3376480   9.5240040  60.4658640  60.9246040
   8.7482140  59.9859080  61.2144610  10.1752970  59.7864290  60.7502200
   3.5405870  60.7778450  61.8021800   2.7090750  60.5227160  62.2018310
   4.1486850  60.8489220  62.5379720  13.5447470  64.8718830  59.7045170
  13.0829000  64.1006070  60.0332340  14.3573020  64.8984900  60.2097620
   3.5207130  64.8118540  61.9979820   3.8235170  63.9216280  61.8190040
   4.2650720  65.3688760  61.7702070   9.7710780  67.1576840  59.3249160
   9.1522220  67.6134340  58.7543600  10.6262560  67.3128300  58.9238860
   8.9649030  63.1415830  60.9316200   8.8957310  62.2005770  60.7705330
   9.7268890  63.2317240  61.5038770   9.9954200  55.9486210  61.1585130
  10.3719020  55.0758090  61.0458800   9.8973710  56.2844910  60.2675570
   4.1259210  54.3211840  56.6202570   4.2325960  55.2215570  56.9271330
   3.2151570  54.2729810  56.3297220  13.7778320  53.4436650  58.0913470
  14.5987940  52.9533220  58.1338950  13.8112400  54.0334310  58.8445310
   5.9666940  57.2898210  60.9527750   6.4745160  57.7879180  61.5932770
   6.4980180  56.5133410  60.7767110  10.6374130  62.0416080  56.7181070
  10.0191400  62.5065530  56.1543790  11.1497380  62.7343560  57.1350580
  14.0139800  55.3837030  60.8641010  13.3095370  55.6721920  61.4444120
  14.3751960  56.1937140  60.5040570   3.9318370  53.6406730  63.2261620
   4.2735180  54.4848780  62.9315490   2.9934180  53.7890470  63.3426960
  15.6302580  65.0012160  63.1268490  14.9466100  65.6711270  63.1185160
  16.1696870  65.1992810  62.3613350  17.0826720  54.8291820  61.2550220
  16.1351630  54.8630800  61.3865650  17.4076710  55.6430770  61.6399580
   7.6146260  51.1289000  59.5506210   7.9221240  50.5735890  58.8341710
   6.6846960  51.2633460  59.3679200  13.1661320  66.8456290  61.8413670
  13.1788480  66.4418580  60.9735930  12.6136540  67.6203580  61.7375100
  14.4606740  63.5672510  56.9303840  14.3503070  62.6246840  57.0553260
  14.4574990  63.9288150  57.8166600  10.0027020  59.1937830  56.2866330
   9.0756300  59.1275210  56.5154800  10.1551840  60.1317960  56.1721570
   9.9896100  55.4654830  53.2833490   9.0499770  55.6268790  53.3685950
  10.3079360  56.1840510  52.7369480  16.5108860  60.1473350  63.2612520
  15.6827490  60.2166440  62.7862650  17.1059340  60.7327660  62.7928350
  14.0324310  60.7558130  56.7901580  13.4136730  60.4177680  56.1427880
  14.0148760  60.1117890  57.4980770   5.6083660  59.7202570  59.0686060
   5.2040660  59.0079820  58.5731960   5.6946780  59.3755810  59.9574100
   6.0765360  63.4070130  61.2325270   5.7793650  62.8015600  60.5533050
   7.0265180  63.4447440  61.1214630  12.2089010  59.9944940  53.7974330
  12.6482290  59.1567370  53.6512150  12.9217430  60.6274340  53.8838470
  10.3184390  64.9341010  57.7655570  10.7580300  65.6765340  57.3510960
  10.2571280  65.1767580  58.6894530  15.7906150  51.2487750  52.1115370
  15.4778810  51.3414580  53.0114440  16.5518620  51.8268780  52.0612800
   2.3088290  58.6147550  56.5692710   2.1885890  59.3409640  55.9573980
   1.9989180  57.8450460  56.0920620  12.9854570  67.9210130  55.1218580
  12.8255710  67.6313070  56.0200410  12.8201280  67.1450260  54.5863810
   5.4642950  67.7008660  56.8990200   5.2885430  66.7844200  56.6858000
   4.6098690  68.0595950  57.1388000  12.6880700  65.4297690  53.6816580
  11.9945860  65.4274980  53.0218860  13.4303560  65.0057010  53.2510750
  12.2530630  67.0560400  57.7565070  12.7087580  66.2749780  58.0703690
  12.5923150  67.7667220  58.3006250   4.7751950  51.9582620  59.9516380
   4.3320100  52.7392160  59.6200900   5.3336940  52.2812510  60.6587320
   7.8910770  51.5793320  54.8322210   7.2664950  51.5753190  55.5575520
   7.8040890  50.7124280  54.4358180   6.8127850  52.5029950  61.8105980
   7.1100180  53.4092780  61.7298000   7.3613410  52.0148730  61.1965550
   4.5666170  57.0816190  57.6797630   4.3407090  56.8653360  58.5844250
   3.7858700  57.5144650  57.3343600  11.7963930  57.0879560  56.2788280
  11.1972820  57.8115360  56.0951900  12.3443540  57.0256340  55.4964730
  10.4028800  55.7243100  58.3091560  10.7958370  56.0415300  57.4960250
  10.7645650  54.8454980  58.4236080  10.9883940  58.3148850  62.4042340
  10.2565060  58.8235660  62.7532440  10.5908280  57.4978830  62.1031120
   7.4261330  54.9903050  60.8094830   7.4297390  54.5493000  59.9599370
   8.3212450  55.3120380  60.9166650   3.2763710  54.8729540  59.7689040
   2.9363760  55.3504770  60.5256090   2.5141030  54.4194660  59.4090140
   7.4881480  55.9915130  53.8001590   7.6094300  55.9501610  54.7487410
   7.1029990  56.8539280  53.6448320  11.4509850  53.7682530  61.8165280
  11.4682590  54.2191180  62.6607130  11.2025430  52.8688170  62.0298720
   6.5002980  58.3016270  53.1984890   5.9319880  57.8534520  52.5720800
   7.2091980  58.6609050  52.6650040   7.7269300  59.0504830  62.5560240
   8.0939430  58.5763400  63.3021580   7.5374360  59.9246400  62.8968580
   4.0450460  62.2974460  55.4711300   3.2712720  61.7572080  55.3110020
   4.7745090  61.7781070  55.1329060  14.8038440  61.2939820  61.2637690
  15.5237560  61.7895110  60.8733800  14.6020260  60.6157710  60.6191560
  10.2648380  52.6877780  55.4067080   9.4512990  52.1890950  55.3312390
  10.0710330  53.5276030  54.9903430  12.9796770  57.0597430  53.7029240
  13.8676390  57.3714660  53.5280580  12.9501860  56.1869680  53.3109820
   4.0887860  61.9654840  59.1090110   4.6066530  61.1623100  59.0547000
   3.6371880  61.9033980  59.9506940   8.9757360  63.2321120  54.3817410
   9.3173060  63.9763350  53.8860730   8.1470070  63.5452240  54.7442240
  15.2511040  58.3709270  53.1709100  15.1674760  58.8023490  52.3205540
  15.9705230  58.8307620  53.6035920  16.2798290  65.2251530  55.8991230
  15.6374450  64.5707150  56.1734950  15.8928950  65.6306620  55.1231900
  11.8584770  62.5536960  59.7462920  12.2108590  61.9565090  59.0864290
  10.9747100  62.2281190  59.9171170   7.9448050  63.3134650  57.1533330
   8.6319180  63.8603860  57.5340920   7.1580470  63.8575380  57.1882940
   7.2475260  60.3180680  56.7658690   7.7038040  61.1285930  56.9918880
   6.8963470  60.0003820  57.5977180   3.1487040  50.6618330  57.2381210
   3.0201670  50.6536230  58.1866130   2.3249060  51.0001420  56.8872220
  10.8239950  63.8319370  62.7128440  11.4662180  63.1312530  62.8260610
  11.3489300  64.6117810  62.5325330  14.6695670  64.1167990  52.4367580
  14.4433250  63.3998430  53.0292220  14.2791870  63.8680430  51.5989330
  14.2511920  62.0339930  54.0981740  13.9633620  62.4952620  54.8859620
  15.0464090  61.5737700  54.3665960   6.4680320  65.5266050  54.0285710
   6.4590420  66.2595740  53.4130220   5.5478680  65.2797630  54.1212670
  15.0081780  53.8688700  55.2576920  14.3794940  53.9734370  54.5435150
  14.5133700  54.0885480  56.0470800   9.4539920  65.5894290  52.6910900
   9.5551900  65.3858280  51.7612880   8.5541660  65.3352570  52.8958680
   6.9765810  56.1474650  56.6734800   6.2681960  56.6160990  57.1148410
   7.2610290  55.4896660  57.3079990  11.0081240  52.8725310  58.1130590
  10.8849020  52.8911440  57.1640100  11.9565800  52.9204250  58.2328990
   8.0958030  68.1080610  57.3858570   8.3499530  68.0702000  56.4637940
   7.1470510  67.9813940  57.3786820   5.1800830  54.4559730  54.0485510
   6.0291360  54.8929880  53.9825700   4.8132100  54.7679990  54.8757570
  14.1010610  59.0272490  58.9617080  13.1600750  59.0422720  59.1364770
  14.4154680  58.2408450  59.4077380   4.0792250  60.7092090  52.5221040
   4.8455520  60.5973450  53.0846470   4.1566940  60.0130060  51.8697810
   2.7739010  58.1417160  53.2053930   2.8542600  57.1944670  53.3171330
   3.6658760  58.4724040  53.3114590  16.1036190  66.1981340  60.6371340
  16.2283610  67.0212510  61.1095150  16.9701750  65.9872070  60.2895490
   3.5753720  68.2912550  60.3088470   4.3116200  67.7428010  60.5797040
   3.9594640  69.1568560  60.1694460   6.6856030  67.4642860  52.1314040
   7.4784640  67.7531690  51.6795830   6.1660380  67.0335030  51.4526520
  15.7386200  66.6912990  53.5550780  15.4527710  66.2778130  52.7404960
  15.5405750  67.6200700  53.4351300   7.2033430  62.6846270  51.9956390
   7.0984070  62.0698620  52.7217770   7.0357650  62.1612160  51.2119400
  10.4436160  61.7466300  52.5998380   9.8946260  62.1935600  53.2441120
  11.0655420  61.2415550  53.1236050   6.1111280  60.7057220  54.4963680
   6.5327700  60.5397090  55.3395070   6.2362120  59.8957450  54.0018820
   8.6238920  59.7294830  51.7440780   9.1444580  59.0143850  51.3781930
   9.2707320  60.3680700  52.0441290   5.0070180  56.7790450  51.4421840
   4.8059240  55.9157810  51.8035180   4.8362230  56.6923810  50.5043440
  12.4858490  51.5898680  53.9708720  12.7660780  50.7466580  54.3268140
  11.7124220  51.8221790  54.4847470   3.8052980  53.8791070  51.4299720
   4.1078880  53.8858500  50.5218870   4.5447570  53.5288930  51.9267380
   7.0237910  52.8225690  52.4155920   6.6759910  52.1449680  51.8358370
   7.2250680  52.3615200  53.2299310   9.1886950  67.8106440  54.0342520
  10.0837740  68.1491410  54.0561280   9.2204580  67.0885850  53.4066800
   2.8283110  63.1833490  52.2629520   3.2657980  63.7263160  52.9187100
   3.3130840  62.3580440  52.2725860   4.6390830  64.3031530  57.3751750
   4.3386370  64.1796500  58.2755660   4.5328320  63.4440120  56.9667480
  17.4082750  64.0827930  52.0778430  16.5775710  64.1504580  52.5485660
  17.5854580  64.9732050  51.7745290  16.8639210  60.8275410  54.5812630
  17.6258120  61.3972060  54.6872320  16.8793580  60.2602610  55.3520940
  17.8699180  61.6825510  59.4254560  18.2408010  60.8992830  59.0190530
  18.5101110  62.3714610  59.2471860  16.9158380  61.1209780  51.7385150
  17.1907220  62.0288660  51.6104370  16.7269120  61.0572310  52.6747140
  13.3133990  54.1454630  53.0338780  13.7318870  53.9585610  52.1935440
  13.0070050  53.2933680  53.3441710  16.8123720  59.0578770  56.7314580
  16.4367320  58.2906700  56.2995870  16.0826840  59.4401470  57.2189510
  16.0874680  57.2836260  60.0321820  16.6112160  56.7898910  59.4011990
  16.6734100  57.4186620  60.7769390   1.7683000  51.6717140  51.7042650
   2.4911130  52.2126080  52.0223870   2.0407520  51.3980560  50.8284190
  15.5774650  56.5409610  55.9714230  16.0733770  56.3080480  56.7563110
  15.3790720  55.7021450  55.5551870  17.0061810  55.1770560  58.5051910
  16.8961090  55.0226600  59.4434180  17.7669400  54.6491500  58.2627320
  17.8952080  53.0078480  51.7458050  18.8201390  52.8759660  51.5376340
  17.8727870  53.0871300  52.6994500  17.9690570  53.7789140  54.3714760
  17.1742070  53.7134260  54.9007670  18.1733850  54.7139780  54.3600110
  14.9108990  67.8180690  58.3653150  15.5068060  67.4965260  57.6887570
  15.1687140  67.3452510  59.1566420  15.4621200  68.4675990  62.1950880
  15.0024170  69.2191800  61.8208900  14.8333660  67.7482460  62.1365680
   5.8916920  66.7764230  61.3699010   6.4081940  66.1651590  60.8447270
   6.5414300  67.2793010  61.8610020   8.6312420  67.6672720  62.1967990
   8.9190230  67.4127020  61.3201000   9.1435640  67.1150080  62.7873560
   9.8489430  51.4062920  62.7764500   9.0661220  51.8808420  63.0561260
   9.5552360  50.5017750  62.6677680  14.4010500  52.1086020  60.8213590
  14.8418590  52.0531120  59.9735190  14.1318090  53.0244030  60.8923770
  16.2649070  51.7401260  58.8322410  16.2037470  50.7962480  58.6853430
  17.0441100  51.8481350  59.3775870   7.7343650  53.8249670  58.2880530
   6.9218160  53.4506560  57.9476410   8.2385290  53.0694750  58.5901720
  12.2368630  50.4892120  59.5263600  12.8398000  51.0612330  60.0012120
  11.4961620  51.0531560  59.3037500  15.3803230  50.8913680  54.8003880
  15.5753860  51.7897130  55.0671310  14.5933100  50.6600760  55.2936830
   3.5654990  52.2374450  53.8380190   4.0947750  51.4504250  53.7088140
   4.1983310  52.9165640  54.0715720   5.7592830  51.9749590  56.8925580
   5.1295570  51.2736900  57.0595710   5.2197970  52.7353720  56.6758740
  16.9329840  68.1314390  56.5610440  17.1082030  67.4452130  55.9171360
  16.2351410  68.6561440  56.1687110   4.7757490  68.5209230  54.1145750
   5.5076310  68.2368510  53.5669640   5.0351160  68.2822510  55.0045130
   3.9372280  64.6373960  54.1192080   3.3081160  65.1059060  54.6677910
   4.0520110  63.7923180  54.5538270  11.3922000  58.6879620  40.2693280
  11.3116050  57.7734230  39.9984990  10.9786420  59.1846690  39.5632990
   9.5240040  60.4658640  42.1502550   8.7482140  59.9859080  42.4401120
  10.1752970  59.7864290  41.9758710   3.5405870  60.7778450  43.0278310
   2.7090750  60.5227160  43.4274820   4.1486850  60.8489220  43.7636230
  13.5447470  64.8718830  40.9301680  13.0829000  64.1006070  41.2588850
  14.3573020  64.8984900  41.4354130   3.5207130  64.8118540  43.2236330
   3.8235170  63.9216280  43.0446550   4.2650720  65.3688760  42.9958580
   9.7710780  67.1576840  40.5505670   9.1522220  67.6134340  39.9800110
  10.6262560  67.3128300  40.1495370   8.9649030  63.1415830  42.1572710
   8.8957310  62.2005770  41.9961840   9.7268890  63.2317240  42.7295280
   9.9954200  55.9486210  42.3841640  10.3719020  55.0758090  42.2715310
   9.8973710  56.2844910  41.4932080   4.1259210  54.3211840  37.8459080
   4.2325960  55.2215570  38.1527840   3.2151570  54.2729810  37.5553730
  13.7778320  53.4436650  39.3169980  14.5987940  52.9533220  39.3595460
  13.8112400  54.0334310  40.0701820   5.9666940  57.2898210  42.1784260
   6.4745160  57.7879180  42.8189280   6.4980180  56.5133410  42.0023620
  18.0677870  55.4603400  45.8813610  17.3630040  55.8485110  45.3628720
  18.3335790  56.1553690  46.4834540   4.2503040  51.9296770  46.4447680
   4.2521480  52.4469160  45.6393580   3.4207350  51.4526950  46.4217610
  10.6374130  62.0416080  37.9437580  10.0191400  62.5065530  37.3800300
  11.1497380  62.7343560  38.3607090   5.5005890  61.5691950  44.6221180
   5.1675270  62.1960870  45.2642250   5.6772570  62.0953830  43.8422850
  14.0139800  55.3837030  42.0897520  13.3095370  55.6721920  42.6700630
  14.3751960  56.1937140  41.7297080   3.9318370  53.6406730  44.4518130
   4.2735180  54.4848780  44.1572000   2.9934180  53.7890470  44.5683470
   4.7124990  63.5372750  46.4370360   5.3298990  64.2123830  46.1554810
   3.8518110  63.9460730  46.3457860  15.6302580  65.0012160  44.3525000
  14.9466100  65.6711270  44.3441670  16.1696870  65.1992810  43.5869860
  17.0826720  54.8291820  42.4806730  16.1351630  54.8630800  42.6122160
  17.4076710  55.6430770  42.8656090   7.6146260  51.1289000  40.7762720
   7.9221240  50.5735890  40.0598220   6.6846960  51.2633460  40.5935710
  13.1661320  66.8456290  43.0670180  13.1788480  66.4418580  42.1992440
  12.6136540  67.6203580  42.9631610  14.4606740  63.5672510  38.1560350
  14.3503070  62.6246840  38.2809770  14.4574990  63.9288150  39.0423110
  12.5646760  61.7486130  44.3952790  12.9815550  61.5346240  43.5606250
  13.2886580  62.0058920  44.9661410  10.0027020  59.1937830  37.5122840
   9.0756300  59.1275210  37.7411310  10.1551840  60.1317960  37.3978080
   9.9896100  55.4654830  34.5090000   9.0499770  55.6268790  34.5942460
  10.3079360  56.1840510  33.9625990  16.5108860  60.1473350  44.4869030
  15.6827490  60.2166440  44.0119160  17.1059340  60.7327660  44.0184860
  14.0324310  60.7558130  38.0158090  13.4136730  60.4177680  37.3684390
  14.0148760  60.1117890  38.7237280  13.4750870  56.9342670  45.4323900
  13.0622050  57.7596380  45.6863890  12.7426820  56.3487710  45.2400260
   5.6083660  59.7202570  40.2942570   5.2040660  59.0079820  39.7988470
   5.6946780  59.3755810  41.1830610   6.0765360  63.4070130  42.4581780
   5.7793650  62.8015600  41.7789560   7.0265180  63.4447440  42.3471140
   4.3212280  56.4945780  44.0741610   4.8726870  56.6041120  43.2994860
   4.8355790  56.8683380  44.7896840  14.1650970  66.9802000  46.1204880
  13.6881530  67.7874190  45.9277490  13.4812760  66.3280330  46.2731090
   5.1683790  63.1451820  49.1089580   4.2712320  63.3691790  49.3562980
   5.1936660  63.2686760  48.1600980  12.2089010  59.9944940  35.0230840
  12.6482290  59.1567370  34.8768660  12.9217430  60.6274340  35.1094980
   3.9955010  60.0165140  47.6846950   3.8562780  60.8887940  48.0534350
   3.1136370  59.6737950  47.5394890  10.3184390  64.9341010  38.9912080
  10.7580300  65.6765340  38.5767470  10.2571280  65.1767580  39.9151040
   5.7935360  65.9586840  49.8932100   5.7650790  66.3629790  49.0260530
   5.6300330  65.0297200  49.7303700  15.7906150  51.2487750  33.3371880
  15.4778810  51.3414580  34.2370950  16.5518620  51.8268780  33.2869310
   2.3088290  58.6147550  37.7949220   2.1885890  59.3409640  37.1830490
   1.9989180  57.8450460  37.3177130  17.7450180  66.7413940  51.1896270
  18.2209900  67.2196830  51.8685350  18.3657340  66.6731430  50.4641770
  17.1483430  63.9326790  48.3496280  17.2746490  63.6938670  47.4313460
  17.1904810  63.1011330  48.8218360  11.0100170  67.6354790  46.9191090
  11.5244840  67.5462800  47.7213520  10.1669250  67.9814490  47.2119000
  12.9854570  67.9210130  36.3475090  12.8255710  67.6313070  37.2456920
  12.8201280  67.1450260  35.8120320   5.4642950  67.7008660  38.1246710
   5.2885430  66.7844200  37.9114510   4.6098690  68.0595950  38.3644510
  12.6880700  65.4297690  34.9073090  11.9945860  65.4274980  34.2475370
  13.4303560  65.0057010  34.4767260  12.2530630  67.0560400  38.9821580
  12.7087580  66.2749780  39.2960200  12.5923150  67.7667220  39.5262760
  17.0007440  55.9859250  49.3146020  16.3851710  56.4938920  48.7861480
  16.6803860  55.0857580  49.2571960   4.7751950  51.9582620  41.1772890
   4.3320100  52.7392160  40.8457410   5.3336940  52.2812510  41.8843830
   9.0621760  54.8251140  46.7808210   8.6001130  55.0334160  47.5928150
   8.6599870  54.0110490  46.4778880  14.0626270  56.0460090  47.9104870
  13.2119860  55.7465840  48.2313940  13.9028060  56.2902100  46.9988690
  11.1575980  57.5461840  50.0103660  11.4829390  56.7125590  49.6705890
  11.9456310  58.0690360  50.1581990   7.8910770  51.5793320  36.0578720
   7.2664950  51.5753190  36.7832030   7.8040890  50.7124280  35.6614690
   6.8127850  52.5029950  43.0362490   7.1100180  53.4092780  42.9554510
   7.3613410  52.0148730  42.4222060   4.5666170  57.0816190  38.9054140
   4.3407090  56.8653360  39.8100760   3.7858700  57.5144650  38.5600110
  11.7963930  57.0879560  37.5044790  11.1972820  57.8115360  37.3208410
  12.3443540  57.0256340  36.7221240   7.0065380  57.9801770  49.5714410
   6.9108980  57.0396500  49.4214810   7.8497360  58.2016840  49.1762480
  10.4028800  55.7243100  39.5348070  10.7958370  56.0415300  38.7216760
  10.7645650  54.8454980  39.6492590   8.7120970  54.4750410  50.7944930
   8.0219290  54.2822610  51.4291020   9.4553270  54.7585050  51.3269230
  10.9883940  58.3148850  43.6298850  10.2565060  58.8235660  43.9788950
  10.5908280  57.4978830  43.3287630   7.4261330  54.9903050  42.0351340
   7.4297390  54.5493000  41.1855880   8.3212450  55.3120380  42.1423160
   3.2763710  54.8729540  40.9945550   2.9363760  55.3504770  41.7512600
   2.5141030  54.4194660  40.6346650   7.4881480  55.9915130  35.0258100
   7.6094300  55.9501610  35.9743920   7.1029990  56.8539280  34.8704830
  11.4509850  53.7682530  43.0421790  11.4682590  54.2191180  43.8863640
  11.2025430  52.8688170  43.2555230   6.5002980  58.3016270  34.4241400
   5.9319880  57.8534520  33.7977310   7.2091980  58.6609050  33.8906550
  14.8780600  51.1814710  48.8808170  15.2026370  50.4504370  49.4066150
  14.9137110  50.8628350  47.9789160   7.7269300  59.0504830  43.7816750
   8.0939430  58.5763400  44.5278090   7.5374360  59.9246400  44.1225090
   5.5168670  58.0913470  46.1000960   5.2125740  58.9705450  46.3251320
   6.4715130  58.1513260  46.1358400   4.0450460  62.2974460  36.6967810
   3.2712720  61.7572080  36.5366530   4.7745090  61.7781070  36.3585570
  14.8038440  61.2939820  42.4894200  15.5237560  61.7895110  42.0990310
  14.6020260  60.6157710  41.8448070  10.2648380  52.6877780  36.6323590
   9.4512990  52.1890950  36.5568900  10.0710330  53.5276030  36.2159940
  10.1857240  61.3648880  48.3763200  10.1194550  60.4444550  48.1220790
   9.5562380  61.4624320  49.0907840  12.9796770  57.0597430  34.9285750
  13.8676390  57.3714660  34.7537090  12.9501860  56.1869680  34.5366330
   4.0887860  61.9654840  40.3346620   4.6066530  61.1623100  40.2803510
   3.6371880  61.9033980  41.1763450   8.9757360  63.2321120  35.6073920
   9.3173060  63.9763350  35.1117240   8.1470070  63.5452240  35.9698750
   4.7745520  59.3900450  50.1311870   4.4745660  59.5357630  49.2339690
   5.5456760  58.8305740  50.0385260  10.1173970  64.1869450  48.1267000
  10.1318510  63.2550410  47.9085910   9.4099070  64.2729210  48.7656770
  15.2511040  58.3709270  34.3965610  15.1674760  58.8023490  33.5462050
  15.9705230  58.8307620  34.8292430  16.3285180  60.8276790  47.4735580
  15.6033370  61.4205570  47.2764970  16.8560640  60.8200330  46.6748950
  16.2798290  65.2251530  37.1247740  15.6374450  64.5707150  37.3991460
  15.8928950  65.6306620  36.3488410  11.8584770  62.5536960  40.9719430
  12.2108590  61.9565090  40.3120800  10.9747100  62.2281190  41.1427680
   7.9448050  63.3134650  38.3789840   8.6319180  63.8603860  38.7597430
   7.1580470  63.8575380  38.4139450   7.2475260  60.3180680  37.9915200
   7.7038040  61.1285930  38.2175390   6.8963470  60.0003820  38.8233690
   9.5507870  65.8287020  45.2207500  10.1950090  66.0346400  45.8980920
   9.9137310  65.0675420  44.7678350   3.1487040  50.6618330  38.4637720
   3.0201670  50.6536230  39.4122640   2.3249060  51.0001420  38.1128730
  10.8239950  63.8319370  43.9384950  11.4662180  63.1312530  44.0517120
  11.3489300  64.6117810  43.7581840  14.6695670  64.1167990  33.6624090
  14.4433250  63.3998430  34.2548730  14.2791870  63.8680430  32.8245840
  12.5977570  64.6314270  47.1421010  12.9333810  65.2180960  47.8198930
  11.6777910  64.5006980  47.3718800  14.2511920  62.0339930  35.3238250
  13.9633620  62.4952620  36.1116130  15.0464090  61.5737700  35.5922470
   8.4266150  64.6805600  50.3109070   8.1063020  63.9614840  50.8554760
   7.7524510  65.3560670  50.3845130   6.4680320  65.5266050  35.2542220
   6.4590420  66.2595740  34.6386730   5.5478680  65.2797630  35.3469180
  11.6419750  54.9131760  45.6745870  12.0100570  54.0926970  46.0025440
  10.7817950  54.9733650  46.0901520  15.0081780  53.8688700  36.4833430
  14.3794940  53.9734370  35.7691660  14.5133700  54.0885480  37.2727310
   9.4539920  65.5894290  33.9167410   9.5551900  65.3858280  32.9869390
   8.5541660  65.3352570  34.1215190   6.9765810  56.1474650  37.8991310
   6.2681960  56.6160990  38.3404920   7.2610290  55.4896660  38.5336500
   8.6021740  57.5671350  45.8983840   9.1006990  58.0417170  46.5635690
   8.7444690  56.6434870  46.1053870  11.0081240  52.8725310  39.3387100
  10.8849020  52.8911440  38.3896610  11.9565800  52.9204250  39.4585500
   8.0958030  68.1080610  38.6115080   8.3499530  68.0702000  37.6894450
   7.1470510  67.9813940  38.6043330   5.1800830  54.4559730  35.2742020
   6.0291360  54.8929880  35.2082210   4.8132100  54.7679990  36.1014080
  15.8088600  53.7839310  46.7412230  15.3062200  54.5244710  47.0806040
  16.6245260  54.1723310  46.4249020  14.1010610  59.0272490  40.1873590
  13.1600750  59.0422720  40.3621280  14.4154680  58.2408450  40.6333890
   4.0792250  60.7092090  33.7477550   4.8455520  60.5973450  34.3102980
   4.1566940  60.0130060  33.0954320   2.7739010  58.1417160  34.4310440
   2.8542600  57.1944670  34.5427840   3.6658760  58.4724040  34.5371100
  16.1036190  66.1981340  41.8627850  16.2283610  67.0212510  42.3351660
  16.9701750  65.9872070  41.5152000   3.5753720  68.2912550  41.5344980
   4.3116200  67.7428010  41.8053550   3.9594640  69.1568560  41.3950970
   2.5812000  67.4758620  50.7230560   3.3824730  67.7970670  51.1365960
   2.0663820  67.1154200  51.4450470   6.6856030  67.4642860  33.3570550
   7.4784640  67.7531690  32.9052340   6.1660380  67.0335030  32.6783030
  11.4176630  63.5838490  50.6705970  10.8114790  63.6070090  49.9301720
  11.1130740  62.8521530  51.2073220  12.8477000  67.3118780  49.2815380
  13.7998750  67.2276800  49.2315620  12.7005220  67.9760490  49.9549170
  15.7386200  66.6912990  34.7807290  15.4527710  66.2778130  33.9661470
  15.5405750  67.6200700  34.6607810   7.2033430  62.6846270  33.2212900
   7.0984070  62.0698620  33.9474280   7.0357650  62.1612160  32.4375910
   7.3547750  61.3703070  49.2002130   6.5893420  61.9388070  49.1156800
   7.5363710  61.0779280  48.3070360  10.4436160  61.7466300  33.8254890
   9.8946260  62.1935600  34.4697630  11.0655420  61.2415550  34.3492560
  14.4971100  63.1008400  49.7577150  15.2380570  63.4384160  49.2544610
  13.7343780  63.2700460  49.2046920   2.3332890  58.1061670  50.5616680
   2.3738230  57.8075540  51.4701910   3.1878390  58.5069280  50.4024200
   6.1111280  60.7057220  35.7220190   6.5327700  60.5397090  36.5651580
   6.2362120  59.8957450  35.2275330   4.2738700  56.6853770  48.5291170
   3.7435160  56.1944720  47.9014510   4.9426770  57.1137970  47.9949100
   8.6238920  59.7294830  32.9697290   9.1444580  59.0143850  32.6038440
   9.2707320  60.3680700  33.2697800  13.1716760  61.1523230  48.2932360
  13.5857780  61.3068310  49.1422780  12.2367760  61.2778450  48.4558140
  13.6438930  58.4919390  50.2971510  14.2259700  57.7371710  50.2091990
  13.8200700  59.0226830  49.5202990   4.7611000  53.6516140  48.6088460
   4.6667870  53.0336890  47.8839330   4.1808390  54.3782430  48.3818370
   7.5272440  52.2089380  45.6415850   7.0789740  52.2313640  44.7961400
   6.8937640  51.8108400  46.2386150   7.9331990  61.1043710  46.2628290
   8.3520100  61.9476440  46.0904530   7.0140620  61.2415750  46.0335070
  10.2695890  58.8359890  47.6466130  10.3892100  58.2401030  48.3860970
  11.1289890  58.8729580  47.2267430  12.6083790  59.3897080  46.2228640
  12.0819010  59.9139700  45.6193780  12.9515130  60.0224470  46.8538370
   5.0070180  56.7790450  32.6678350   4.8059240  55.9157810  33.0291690
   4.8362230  56.6923810  31.7299950   5.7839410  67.4096720  47.3786020
   5.2460500  68.1342780  47.0594720   6.0373370  66.9327060  46.5883360
   7.0364660  55.3781240  48.9041950   7.6264350  55.0697090  49.5919770
   6.2184900  54.9060990  49.0601850  11.8558090  54.9947050  49.1374970
  11.1673610  54.3328590  49.0724960  12.5764110  54.5485320  49.5823430
  12.4858490  51.5898680  35.1965230  12.7660780  50.7466580  35.5524650
  11.7124220  51.8221790  35.7103980   3.8052980  53.8791070  32.6556230
   4.1078880  53.8858500  31.7475380   4.5447570  53.5288930  33.1523890
   8.6401620  68.6447930  47.6372670   8.5660320  69.5483070  47.9445040
   7.7380460  68.3259830  47.6094740   7.0237910  52.8225690  33.6412430
   6.6759910  52.1449680  33.0614880   7.2250680  52.3615200  34.4555820
   9.1886950  67.8106440  35.2599030  10.0837740  68.1491410  35.2817790
   9.2204580  67.0885850  34.6323310   2.8283110  63.1833490  33.4886030
   3.2657980  63.7263160  34.1443610   3.3130840  62.3580440  33.4982370
   4.6390830  64.3031530  38.6008260   4.3386370  64.1796500  39.5012170
   4.5328320  63.4440120  38.1923990  16.1681300  66.3410110  47.9665230
  15.5683290  66.4002670  47.2229150  16.2975200  65.4015090  48.0962080
  17.4082750  64.0827930  33.3034940  16.5775710  64.1504580  33.7742170
  17.5854580  64.9732050  33.0001800  16.8639210  60.8275410  35.8069140
  17.6258120  61.3972060  35.9128830  16.8793580  60.2602610  36.5777450
  17.8699180  61.6825510  40.6511070  18.2408010  60.8992830  40.2447040
  18.5101110  62.3714610  40.4728370  14.8532940  63.0662090  46.0641390
  14.0392780  63.4959250  46.3267180  15.2607140  63.6780500  45.4510440
  16.9158380  61.1209780  32.9641660  17.1907220  62.0288660  32.8360880
  16.7269120  61.0572310  33.9003650  13.3133990  54.1454630  34.2595290
  13.7318870  53.9585610  33.4191950  13.0070050  53.2933680  34.5698220
  16.8123720  59.0578770  37.9571090  16.4367320  58.2906700  37.5252380
  16.0826840  59.4401470  38.4446020  16.2023340  58.2050290  47.5910610
  15.9709430  57.9763040  46.6908560  16.4627890  59.1249840  47.5455500
  14.6411410  53.4306720  50.3690310  15.5181590  53.4390120  50.7524310
  14.6532250  52.6937560  49.7582660  16.0874680  57.2836260  41.2578330
  16.6112160  56.7898910  40.6268500  16.6734100  57.4186620  42.0025900
  16.2664400  57.3676130  44.7797880  15.3167110  57.3339670  44.8942870
  16.4477410  58.2776240  44.5447650   1.7683000  51.6717140  32.9299160
   2.4911130  52.2126080  33.2480380   2.0407520  51.3980560  32.0540700
  15.5774650  56.5409610  37.1970740  16.0733770  56.3080480  37.9819620
  15.3790720  55.7021450  36.7808380  17.0061810  55.1770560  39.7308420
  16.8961090  55.0226600  40.6690690  17.7669400  54.6491500  39.4883830
  15.3527530  51.1164690  46.1891420  15.9899750  51.7298830  46.5550610
  15.5002420  51.1525350  45.2440650  17.8952080  53.0078480  32.9714560
  18.8201390  52.8759660  32.7632850  17.8727870  53.0871300  33.9251010
  17.9690570  53.7789140  35.5971270  17.1742070  53.7134260  36.1264180
  18.1733850  54.7139780  35.5856620  14.9108990  67.8180690  39.5909660
  15.5068060  67.4965260  38.9144080  15.1687140  67.3452510  40.3822930
   2.8171560  64.2498600  49.7400290   2.7741190  63.8791510  50.6214750
   2.9482570  65.1876170  49.8802110   6.5177590  65.8058190  45.3410010
   6.2768950  66.0732750  44.4540530   7.4580230  65.9763920  45.3960870
   8.7232010  52.2690880  49.0966520   8.6620900  52.8612710  49.8461930
   9.6632390  52.1616840  48.9516780  11.3606570  51.9260940  48.7358810
  11.9746980  52.2440230  48.0739890  11.9056130  51.4409530  49.3554670
  17.7781750  67.8252570  46.1420650  17.2840030  68.2221440  45.4247780
  17.1695040  67.2001780  46.5357930   1.8827830  50.6055200  48.8497870
   2.4310820  50.4243250  48.0863980   1.9483140  49.8149310  49.3854180
   2.6559590  67.1960850  46.8598070   2.0619910  67.0645550  47.5988110
   2.6483430  66.3598990  46.3940170  12.1014610  50.4893080  45.0628100
  11.2274450  50.8228190  44.8601030  11.9925360  50.0166260  45.8879970
  13.0086590  52.6963950  46.4469820  12.6799950  51.8815710  46.0671550
  13.9568890  52.6533760  46.3235510  15.4621200  68.4675990  43.4207390
  15.0024170  69.2191800  43.0465410  14.8333660  67.7482460  43.3622190
   5.8916920  66.7764230  42.5955520   6.4081940  66.1651590  42.0703780
   6.5414300  67.2793010  43.0866530   8.6312420  67.6672720  43.4224500
   8.9190230  67.4127020  42.5457510   9.1435640  67.1150080  44.0130070
   9.8489430  51.4062920  44.0021010   9.0661220  51.8808420  44.2817770
   9.5552360  50.5017750  43.8934190  14.4010500  52.1086020  42.0470100
  14.8418590  52.0531120  41.1991700  14.1318090  53.0244030  42.1180280
  16.2649070  51.7401260  40.0578920  16.2037470  50.7962480  39.9109940
  17.0441100  51.8481350  40.6032380   7.7343650  53.8249670  39.5137040
   6.9218160  53.4506560  39.1732920   8.2385290  53.0694750  39.8158230
  12.2368630  50.4892120  40.7520110  12.8398000  51.0612330  41.2268630
  11.4961620  51.0531560  40.5294010  15.3803230  50.8913680  36.0260390
  15.5753860  51.7897130  36.2927820  14.5933100  50.6600760  36.5193340
   3.5654990  52.2374450  35.0636700   4.0947750  51.4504250  34.9344650
   4.1983310  52.9165640  35.2972230   5.7592830  51.9749590  38.1182090
   5.1295570  51.2736900  38.2852220   5.2197970  52.7353720  37.9015250
   8.6984780  68.5888820  50.7892700   9.6252090  68.3533090  50.8328660
   8.6835210  69.4160820  50.3078730  16.9329840  68.1314390  37.7866950
  17.1082030  67.4452130  37.1427870  16.2351410  68.6561440  37.3943620
   5.8848390  51.2533570  50.5534580   5.6032660  51.7567170  49.7895400
   6.2668090  50.4555320  50.1876710   4.7757490  68.5209230  35.3402260
   5.5076310  68.2368510  34.7926150   5.0351160  68.2822510  36.2301640
   3.9372280  64.6373960  35.3448590   3.3081160  65.1059060  35.8934420
   4.0520110  63.7923180  35.7794780  12.4863850  50.6687150  51.1315050
  12.3729300  50.9881760  52.0266570  13.3033590  51.0699660  50.8352330
  15.2662340  67.8158680  50.6133740  16.0587660  67.3207910  50.4059700
  15.5595490  68.4948820  51.2209350  11.3922000  58.6879620  21.4949790
  11.3116050  57.7734230  21.2241500  10.9786420  59.1846690  20.7889500
   9.5240040  60.4658640  23.3759060   8.7482140  59.9859080  23.6657630
  10.1752970  59.7864290  23.2015220   3.5405870  60.7778450  24.2534820
   2.7090750  60.5227160  24.6531330   4.1486850  60.8489220  24.9892740
  13.5447470  64.8718830  22.1558190  13.0829000  64.1006070  22.4845360
  14.3573020  64.8984900  22.6610640   3.5207130  64.8118540  24.4492840
   3.8235170  63.9216280  24.2703060   4.2650720  65.3688760  24.2215090
   9.7710780  67.1576840  21.7762180   9.1522220  67.6134340  21.2056620
  10.6262560  67.3128300  21.3751880   8.9649030  63.1415830  23.3829220
   8.8957310  62.2005770  23.2218350   9.7268890  63.2317240  23.9551790
   9.9954200  55.9486210  23.6098150  10.3719020  55.0758090  23.4971820
   9.8973710  56.2844910  22.7188590   4.1259210  54.3211840  19.0715590
   4.2325960  55.2215570  19.3784350   3.2151570  54.2729810  18.7810240
  13.7778320  53.4436650  20.5426490  14.5987940  52.9533220  20.5851970
  13.8112400  54.0334310  21.2958330   5.9666940  57.2898210  23.4040770
   6.4745160  57.7879180  24.0445790   6.4980180  56.5133410  23.2280130
  18.0677870  55.4603400  27.1070120  17.3630040  55.8485110  26.5885230
  18.3335790  56.1553690  27.7091050   4.2503040  51.9296770  27.6704190
   4.2521480  52.4469160  26.8650090   3.4207350  51.4526950  27.6474120
  10.6374130  62.0416080  19.1694090  10.0191400  62.5065530  18.6056810
  11.1497380  62.7343560  19.5863600   5.5005890  61.5691950  25.8477690
   5.1675270  62.1960870  26.4898760   5.6772570  62.0953830  25.0679360
  14.0139800  55.3837030  23.3154030  13.3095370  55.6721920  23.8957140
  14.3751960  56.1937140  22.9553590   3.9318370  53.6406730  25.6774640
   4.2735180  54.4848780  25.3828510   2.9934180  53.7890470  25.7939980
   4.7124990  63.5372750  27.6626870   5.3298990  64.2123830  27.3811320
   3.8518110  63.9460730  27.5714370  15.6302580  65.0012160  25.5781510
  14.9466100  65.6711270  25.5698180  16.1696870  65.1992810  24.8126370
  17.0826720  54.8291820  23.7063240  16.1351630  54.8630800  23.8378670
  17.4076710  55.6430770  24.0912600   7.6146260  51.1289000  22.0019230
   7.9221240  50.5735890  21.2854730   6.6846960  51.2633460  21.8192220
  13.1661320  66.8456290  24.2926690  13.1788480  66.4418580  23.4248950
  12.6136540  67.6203580  24.1888120  14.4606740  63.5672510  19.3816860
  14.3503070  62.6246840  19.5066280  14.4574990  63.9288150  20.2679620
  12.5646760  61.7486130  25.6209300  12.9815550  61.5346240  24.7862760
  13.2886580  62.0058920  26.1917920  10.0027020  59.1937830  18.7379350
   9.0756300  59.1275210  18.9667820  10.1551840  60.1317960  18.6234590
   9.9896100  55.4654830  15.7346510   9.0499770  55.6268790  15.8198970
  10.3079360  56.1840510  15.1882500  16.5108860  60.1473350  25.7125540
  15.6827490  60.2166440  25.2375670  17.1059340  60.7327660  25.2441370
  14.0324310  60.7558130  19.2414600  13.4136730  60.4177680  18.5940900
  14.0148760  60.1117890  19.9493790  13.4750870  56.9342670  26.6580410
  13.0622050  57.7596380  26.9120400  12.7426820  56.3487710  26.4656770
   5.6083660  59.7202570  21.5199080   5.2040660  59.0079820  21.0244980
   5.6946780  59.3755810  22.4087120   6.0765360  63.4070130  23.6838290
   5.7793650  62.8015600  23.0046070   7.0265180  63.4447440  23.5727650
   4.3212280  56.4945780  25.2998120   4.8726870  56.6041120  24.5251370
   4.8355790  56.8683380  26.0153350  14.1650970  66.9802000  27.3461390
  13.6881530  67.7874190  27.1534000  13.4812760  66.3280330  27.4987600
   5.1683790  63.1451820  30.3346090   4.2712320  63.3691790  30.5819490
   5.1936660  63.2686760  29.3857490  12.2089010  59.9944940  16.2487350
  12.6482290  59.1567370  16.1025170  12.9217430  60.6274340  16.3351490
   3.9955010  60.0165140  28.9103460   3.8562780  60.8887940  29.2790860
   3.1136370  59.6737950  28.7651400  10.3184390  64.9341010  20.2168590
  10.7580300  65.6765340  19.8023980  10.2571280  65.1767580  21.1407550
   5.7935360  65.9586840  31.1188610   5.7650790  66.3629790  30.2517040
   5.6300330  65.0297200  30.9560210  15.7906150  51.2487750  14.5628390
  15.4778810  51.3414580  15.4627460  16.5518620  51.8268780  14.5125820
   2.3088290  58.6147550  19.0205730   2.1885890  59.3409640  18.4087000
   1.9989180  57.8450460  18.5433640  17.7450180  66.7413940  32.4152780
  18.2209900  67.2196830  33.0941860  18.3657340  66.6731430  31.6898280
  17.1483430  63.9326790  29.5752790  17.2746490  63.6938670  28.6569970
  17.1904810  63.1011330  30.0474870  11.0100170  67.6354790  28.1447600
  11.5244840  67.5462800  28.9470030  10.1669250  67.9814490  28.4375510
  12.9854570  67.9210130  17.5731600  12.8255710  67.6313070  18.4713430
  12.8201280  67.1450260  17.0376830   5.4642950  67.7008660  19.3503220
   5.2885430  66.7844200  19.1371020   4.6098690  68.0595950  19.5901020
  12.6880700  65.4297690  16.1329600  11.9945860  65.4274980  15.4731880
  13.4303560  65.0057010  15.7023770  12.2530630  67.0560400  20.2078090
  12.7087580  66.2749780  20.5216710  12.5923150  67.7667220  20.7519270
  17.0007440  55.9859250  30.5402530  16.3851710  56.4938920  30.0117990
  16.6803860  55.0857580  30.4828470   4.7751950  51.9582620  22.4029400
   4.3320100  52.7392160  22.0713920   5.3336940  52.2812510  23.1100340
   9.0621760  54.8251140  28.0064720   8.6001130  55.0334160  28.8184660
   8.6599870  54.0110490  27.7035390  14.0626270  56.0460090  29.1361380
  13.2119860  55.7465840  29.4570450  13.9028060  56.2902100  28.2245200
  11.1575980  57.5461840  31.2360170  11.4829390  56.7125590  30.8962400
  11.9456310  58.0690360  31.3838500   7.8910770  51.5793320  17.2835230
   7.2664950  51.5753190  18.0088540   7.8040890  50.7124280  16.8871200
   6.8127850  52.5029950  24.2619000   7.1100180  53.4092780  24.1811020
   7.3613410  52.0148730  23.6478570   4.5666170  57.0816190  20.1310650
   4.3407090  56.8653360  21.0357270   3.7858700  57.5144650  19.7856620
  11.7963930  57.0879560  18.7301300  11.1972820  57.8115360  18.5464920
  12.3443540  57.0256340  17.9477750   7.0065380  57.9801770  30.7970920
   6.9108980  57.0396500  30.6471320   7.8497360  58.2016840  30.4018990
  10.4028800  55.7243100  20.7604580  10.7958370  56.0415300  19.9473270
  10.7645650  54.8454980  20.8749100   8.7120970  54.4750410  32.0201440
   8.0219290  54.2822610  32.6547530   9.4553270  54.7585050  32.5525740
  10.9883940  58.3148850  24.8555360  10.2565060  58.8235660  25.2045460
  10.5908280  57.4978830  24.5544140   7.4261330  54.9903050  23.2607850
   7.4297390  54.5493000  22.4112390   8.3212450  55.3120380  23.3679670
   3.2763710  54.8729540  22.2202060   2.9363760  55.3504770  22.9769110
   2.5141030  54.4194660  21.8603160   7.4881480  55.9915130  16.2514610
   7.6094300  55.9501610  17.2000430   7.1029990  56.8539280  16.0961340
  11.4509850  53.7682530  24.2678300  11.4682590  54.2191180  25.1120150
  11.2025430  52.8688170  24.4811740   6.5002980  58.3016270  15.6497910
   5.9319880  57.8534520  15.0233820   7.2091980  58.6609050  15.1163060
  14.8780600  51.1814710  30.1064680  15.2026370  50.4504370  30.6322660
  14.9137110  50.8628350  29.2045670   7.7269300  59.0504830  25.0073260
   8.0939430  58.5763400  25.7534600   7.5374360  59.9246400  25.3481600
   5.5168670  58.0913470  27.3257470   5.2125740  58.9705450  27.5507830
   6.4715130  58.1513260  27.3614910   4.0450460  62.2974460  17.9224320
   3.2712720  61.7572080  17.7623040   4.7745090  61.7781070  17.5842080
  14.8038440  61.2939820  23.7150710  15.5237560  61.7895110  23.3246820
  14.6020260  60.6157710  23.0704580  10.2648380  52.6877780  17.8580100
   9.4512990  52.1890950  17.7825410  10.0710330  53.5276030  17.4416450
  10.1857240  61.3648880  29.6019710  10.1194550  60.4444550  29.3477300
   9.5562380  61.4624320  30.3164350  12.9796770  57.0597430  16.1542260
  13.8676390  57.3714660  15.9793600  12.9501860  56.1869680  15.7622840
   4.0887860  61.9654840  21.5603130   4.6066530  61.1623100  21.5060020
   3.6371880  61.9033980  22.4019960   8.9757360  63.2321120  16.8330430
   9.3173060  63.9763350  16.3373750   8.1470070  63.5452240  17.1955260
   4.7745520  59.3900450  31.3568380   4.4745660  59.5357630  30.4596200
   5.5456760  58.8305740  31.2641770  10.1173970  64.1869450  29.3523510
  10.1318510  63.2550410  29.1342420   9.4099070  64.2729210  29.9913280
  15.2511040  58.3709270  15.6222120  15.1674760  58.8023490  14.7718560
  15.9705230  58.8307620  16.0548940  16.3285180  60.8276790  28.6992090
  15.6033370  61.4205570  28.5021480  16.8560640  60.8200330  27.9005460
  16.2798290  65.2251530  18.3504250  15.6374450  64.5707150  18.6247970
  15.8928950  65.6306620  17.5744920  11.8584770  62.5536960  22.1975940
  12.2108590  61.9565090  21.5377310  10.9747100  62.2281190  22.3684190
   7.9448050  63.3134650  19.6046350   8.6319180  63.8603860  19.9853940
   7.1580470  63.8575380  19.6395960   7.2475260  60.3180680  19.2171710
   7.7038040  61.1285930  19.4431900   6.8963470  60.0003820  20.0490200
   9.5507870  65.8287020  26.4464010  10.1950090  66.0346400  27.1237430
   9.9137310  65.0675420  25.9934860   3.1487040  50.6618330  19.6894230
   3.0201670  50.6536230  20.6379150   2.3249060  51.0001420  19.3385240
  10.8239950  63.8319370  25.1641460  11.4662180  63.1312530  25.2773630
  11.3489300  64.6117810  24.9838350  14.6695670  64.1167990  14.8880600
  14.4433250  63.3998430  15.4805240  14.2791870  63.8680430  14.0502350
  12.5977570  64.6314270  28.3677520  12.9333810  65.2180960  29.0455440
  11.6777910  64.5006980  28.5975310  14.2511920  62.0339930  16.5494760
  13.9633620  62.4952620  17.3372640  15.0464090  61.5737700  16.8178980
   8.4266150  64.6805600  31.5365580   8.1063020  63.9614840  32.0811270
   7.7524510  65.3560670  31.6101640   6.4680320  65.5266050  16.4798730
   6.4590420  66.2595740  15.8643240   5.5478680  65.2797630  16.5725690
  11.6419750  54.9131760  26.9002380  12.0100570  54.0926970  27.2281950
  10.7817950  54.9733650  27.3158030  15.0081780  53.8688700  17.7089940
  14.3794940  53.9734370  16.9948170  14.5133700  54.0885480  18.4983820
   9.4539920  65.5894290  15.1423920   9.5551900  65.3858280  14.2125900
   8.5541660  65.3352570  15.3471700   6.9765810  56.1474650  19.1247820
   6.2681960  56.6160990  19.5661430   7.2610290  55.4896660  19.7593010
   8.6021740  57.5671350  27.1240350   9.1006990  58.0417170  27.7892200
   8.7444690  56.6434870  27.3310380  11.0081240  52.8725310  20.5643610
  10.8849020  52.8911440  19.6153120  11.9565800  52.9204250  20.6842010
   8.0958030  68.1080610  19.8371590   8.3499530  68.0702000  18.9150960
   7.1470510  67.9813940  19.8299840   5.1800830  54.4559730  16.4998530
   6.0291360  54.8929880  16.4338720   4.8132100  54.7679990  17.3270590
  15.8088600  53.7839310  27.9668740  15.3062200  54.5244710  28.3062550
  16.6245260  54.1723310  27.6505530  14.1010610  59.0272490  21.4130100
  13.1600750  59.0422720  21.5877790  14.4154680  58.2408450  21.8590400
   4.0792250  60.7092090  14.9734060   4.8455520  60.5973450  15.5359490
   4.1566940  60.0130060  14.3210830   2.7739010  58.1417160  15.6566950
   2.8542600  57.1944670  15.7684350   3.6658760  58.4724040  15.7627610
  16.1036190  66.1981340  23.0884360  16.2283610  67.0212510  23.5608170
  16.9701750  65.9872070  22.7408510   3.5753720  68.2912550  22.7601490
   4.3116200  67.7428010  23.0310060   3.9594640  69.1568560  22.6207480
   2.5812000  67.4758620  31.9487070   3.3824730  67.7970670  32.3622470
   2.0663820  67.1154200  32.6706980   6.6856030  67.4642860  14.5827060
   7.4784640  67.7531690  14.1308850   6.1660380  67.0335030  13.9039540
  11.4176630  63.5838490  31.8962480  10.8114790  63.6070090  31.1558230
  11.1130740  62.8521530  32.4329730  12.8477000  67.3118780  30.5071890
  13.7998750  67.2276800  30.4572130  12.7005220  67.9760490  31.1805680
  15.7386200  66.6912990  16.0063800  15.4527710  66.2778130  15.1917980
  15.5405750  67.6200700  15.8864320   7.2033430  62.6846270  14.4469410
   7.0984070  62.0698620  15.1730790   7.0357650  62.1612160  13.6632420
   7.3547750  61.3703070  30.4258640   6.5893420  61.9388070  30.3413310
   7.5363710  61.0779280  29.5326870  10.4436160  61.7466300  15.0511400
   9.8946260  62.1935600  15.6954140  11.0655420  61.2415550  15.5749070
  14.4971100  63.1008400  30.9833660  15.2380570  63.4384160  30.4801120
  13.7343780  63.2700460  30.4303430   2.3332890  58.1061670  31.7873190
   2.3738230  57.8075540  32.6958420   3.1878390  58.5069280  31.6280710
   6.1111280  60.7057220  16.9476700   6.5327700  60.5397090  17.7908090
   6.2362120  59.8957450  16.4531840   4.2738700  56.6853770  29.7547680
   3.7435160  56.1944720  29.1271020   4.9426770  57.1137970  29.2205610
   8.6238920  59.7294830  14.1953800   9.1444580  59.0143850  13.8294950
   9.2707320  60.3680700  14.4954310  13.1716760  61.1523230  29.5188870
  13.5857780  61.3068310  30.3679290  12.2367760  61.2778450  29.6814650
  13.6438930  58.4919390  31.5228020  14.2259700  57.7371710  31.4348500
  13.8200700  59.0226830  30.7459500   4.7611000  53.6516140  29.8344970
   4.6667870  53.0336890  29.1095840   4.1808390  54.3782430  29.6074880
   7.5272440  52.2089380  26.8672360   7.0789740  52.2313640  26.0217910
   6.8937640  51.8108400  27.4642660   7.9331990  61.1043710  27.4884800
   8.3520100  61.9476440  27.3161040   7.0140620  61.2415750  27.2591580
  10.2695890  58.8359890  28.8722640  10.3892100  58.2401030  29.6117480
  11.1289890  58.8729580  28.4523940  12.6083790  59.3897080  27.4485150
  12.0819010  59.9139700  26.8450290  12.9515130  60.0224470  28.0794880
   5.0070180  56.7790450  13.8934860   4.8059240  55.9157810  14.2548200
   4.8362230  56.6923810  12.9556460   5.7839410  67.4096720  28.6042530
   5.2460500  68.1342780  28.2851230   6.0373370  66.9327060  27.8139870
   7.0364660  55.3781240  30.1298460   7.6264350  55.0697090  30.8176280
   6.2184900  54.9060990  30.2858360  11.8558090  54.9947050  30.3631480
  11.1673610  54.3328590  30.2981470  12.5764110  54.5485320  30.8079940
  12.4858490  51.5898680  16.4221740  12.7660780  50.7466580  16.7781160
  11.7124220  51.8221790  16.9360490   3.8052980  53.8791070  13.8812740
   4.1078880  53.8858500  12.9731890   4.5447570  53.5288930  14.3780400
   8.6401620  68.6447930  28.8629180   8.5660320  69.5483070  29.1701550
   7.7380460  68.3259830  28.8351250   7.0237910  52.8225690  14.8668940
   6.6759910  52.1449680  14.2871390   7.2250680  52.3615200  15.6812330
   9.1886950  67.8106440  16.4855540  10.0837740  68.1491410  16.5074300
   9.2204580  67.0885850  15.8579820   2.8283110  63.1833490  14.7142540
   3.2657980  63.7263160  15.3700120   3.3130840  62.3580440  14.7238880
   4.6390830  64.3031530  19.8264770   4.3386370  64.1796500  20.7268680
   4.5328320  63.4440120  19.4180500  16.1681300  66.3410110  29.1921740
  15.5683290  66.4002670  28.4485660  16.2975200  65.4015090  29.3218590
  17.4082750  64.0827930  14.5291450  16.5775710  64.1504580  14.9998680
  17.5854580  64.9732050  14.2258310  16.8639210  60.8275410  17.0325650
  17.6258120  61.3972060  17.1385340  16.8793580  60.2602610  17.8033960
  17.8699180  61.6825510  21.8767580  18.2408010  60.8992830  21.4703550
  18.5101110  62.3714610  21.6984880  14.8532940  63.0662090  27.2897900
  14.0392780  63.4959250  27.5523690  15.2607140  63.6780500  26.6766950
  16.9158380  61.1209780  14.1898170  17.1907220  62.0288660  14.0617390
  16.7269120  61.0572310  15.1260160  13.3133990  54.1454630  15.4851800
  13.7318870  53.9585610  14.6448460  13.0070050  53.2933680  15.7954730
  16.8123720  59.0578770  19.1827600  16.4367320  58.2906700  18.7508890
  16.0826840  59.4401470  19.6702530  16.2023340  58.2050290  28.8167120
  15.9709430  57.9763040  27.9165070  16.4627890  59.1249840  28.7712010
  14.6411410  53.4306720  31.5946820  15.5181590  53.4390120  31.9780820
  14.6532250  52.6937560  30.9839170  16.0874680  57.2836260  22.4834840
  16.6112160  56.7898910  21.8525010  16.6734100  57.4186620  23.2282410
  16.2664400  57.3676130  26.0054390  15.3167110  57.3339670  26.1199380
  16.4477410  58.2776240  25.7704160   1.7683000  51.6717140  14.1555670
   2.4911130  52.2126080  14.4736890   2.0407520  51.3980560  13.2797210
  15.5774650  56.5409610  18.4227250  16.0733770  56.3080480  19.2076130
  15.3790720  55.7021450  18.0064890  17.0061810  55.1770560  20.9564930
  16.8961090  55.0226600  21.8947200  17.7669400  54.6491500  20.7140340
  15.3527530  51.1164690  27.4147930  15.9899750  51.7298830  27.7807120
  15.5002420  51.1525350  26.4697160  17.8952080  53.0078480  14.1971070
  18.8201390  52.8759660  13.9889360  17.8727870  53.0871300  15.1507520
  17.9690570  53.7789140  16.8227780  17.1742070  53.7134260  17.3520690
  18.1733850  54.7139780  16.8113130  14.9108990  67.8180690  20.8166170
  15.5068060  67.4965260  20.1400590  15.1687140  67.3452510  21.6079440
   2.8171560  64.2498600  30.9656800   2.7741190  63.8791510  31.8471260
   2.9482570  65.1876170  31.1058620   6.5177590  65.8058190  26.5666520
   6.2768950  66.0732750  25.6797040   7.4580230  65.9763920  26.6217380
   8.7232010  52.2690880  30.3223030   8.6620900  52.8612710  31.0718440
   9.6632390  52.1616840  30.1773290  11.3606570  51.9260940  29.9615320
  11.9746980  52.2440230  29.2996400  11.9056130  51.4409530  30.5811180
  17.7781750  67.8252570  27.3677160  17.2840030  68.2221440  26.6504290
  17.1695040  67.2001780  27.7614440   1.8827830  50.6055200  30.0754380
   2.4310820  50.4243250  29.3120490   1.9483140  49.8149310  30.6110690
   2.6559590  67.1960850  28.0854580   2.0619910  67.0645550  28.8244620
   2.6483430  66.3598990  27.6196680  12.1014610  50.4893080  26.2884610
  11.2274450  50.8228190  26.0857540  11.9925360  50.0166260  27.1136480
  13.0086590  52.6963950  27.6726330  12.6799950  51.8815710  27.2928060
  13.9568890  52.6533760  27.5492020  15.4621200  68.4675990  24.6463900
  15.0024170  69.2191800  24.2721920  14.8333660  67.7482460  24.5878700
   5.8916920  66.7764230  23.8212030   6.4081940  66.1651590  23.2960290
   6.5414300  67.2793010  24.3123040   8.6312420  67.6672720  24.6481010
   8.9190230  67.4127020  23.7714020   9.1435640  67.1150080  25.2386580
   9.8489430  51.4062920  25.2277520   9.0661220  51.8808420  25.5074280
   9.5552360  50.5017750  25.1190700  14.4010500  52.1086020  23.2726610
  14.8418590  52.0531120  22.4248210  14.1318090  53.0244030  23.3436790
  16.2649070  51.7401260  21.2835430  16.2037470  50.7962480  21.1366450
  17.0441100  51.8481350  21.8288890   7.7343650  53.8249670  20.7393550
   6.9218160  53.4506560  20.3989430   8.2385290  53.0694750  21.0414740
  12.2368630  50.4892120  21.9776620  12.8398000  51.0612330  22.4525140
  11.4961620  51.0531560  21.7550520  15.3803230  50.8913680  17.2516900
  15.5753860  51.7897130  17.5184330  14.5933100  50.6600760  17.7449850
   3.5654990  52.2374450  16.2893210   4.0947750  51.4504250  16.1601160
   4.1983310  52.9165640  16.5228740   5.7592830  51.9749590  19.3438600
   5.1295570  51.2736900  19.5108730   5.2197970  52.7353720  19.1271760
   8.6984780  68.5888820  32.0149210   9.6252090  68.3533090  32.0585170
   8.6835210  69.4160820  31.5335240  16.9329840  68.1314390  19.0123460
  17.1082030  67.4452130  18.3684380  16.2351410  68.6561440  18.6200130
   5.8848390  51.2533570  31.7791090   5.6032660  51.7567170  31.0151910
   6.2668090  50.4555320  31.4133220   4.7757490  68.5209230  16.5658770
   5.5076310  68.2368510  16.0182660   5.0351160  68.2822510  17.4558150
   3.9372280  64.6373960  16.5705100   3.3081160  65.1059060  17.1190930
   4.0520110  63.7923180  17.0051290  12.4863850  50.6687150  32.3571560
  12.3729300  50.9881760  33.2523080  13.3033590  51.0699660  32.0608840
  15.2662340  67.8158680  31.8390250  16.0587660  67.3207910  31.6316210
  15.5595490  68.4948820  32.4465860  11.3922000  58.6879620   2.7206300
  11.3116050  57.7734230   2.4498010  10.9786420  59.1846690   2.0146010
   9.5240040  60.4658640   4.6015570   8.7482140  59.9859080   4.8914140
  10.1752970  59.7864290   4.4271730   3.5405870  60.7778450   5.4791330
   2.7090750  60.5227160   5.8787840   4.1486850  60.8489220   6.2149250
  13.5447470  64.8718830   3.3814700  13.0829000  64.1006070   3.7101870
  14.3573020  64.8984900   3.8867150   3.5207130  64.8118540   5.6749350
   3.8235170  63.9216280   5.4959570   4.2650720  65.3688760   5.4471600
   9.7710780  67.1576840   3.0018690   9.1522220  67.6134340   2.4313130
  10.6262560  67.3128300   2.6008390   8.9649030  63.1415830   4.6085730
   8.8957310  62.2005770   4.4474860   9.7268890  63.2317240   5.1808300
   9.9954200  55.9486210   4.8354660  10.3719020  55.0758090   4.7228330
   9.8973710  56.2844910   3.9445100  13.7778320  53.4436650   1.7683000
  14.5987940  52.9533220   1.8108480  13.8112400  54.0334310   2.5214840
   5.9666940  57.2898210   4.6297280   6.4745160  57.7879180   5.2702300
   6.4980180  56.5133410   4.4536640  18.0677870  55.4603400   8.3326630
  17.3630040  55.8485110   7.8141740  18.3335790  56.1553690   8.9347560
   4.2503040  51.9296770   8.8960700   4.2521480  52.4469160   8.0906600
   3.4207350  51.4526950   8.8730630   5.5005890  61.5691950   7.0734200
   5.1675270  62.1960870   7.7155270   5.6772570  62.0953830   6.2935870
  14.0139800  55.3837030   4.5410540  13.3095370  55.6721920   5.1213650
  14.3751960  56.1937140   4.1810100   3.9318370  53.6406730   6.9031150
   4.2735180  54.4848780   6.6085020   2.9934180  53.7890470   7.0196490
   4.7124990  63.5372750   8.8883380   5.3298990  64.2123830   8.6067830
   3.8518110  63.9460730   8.7970880  15.6302580  65.0012160   6.8038020
  14.9466100  65.6711270   6.7954690  16.1696870  65.1992810   6.0382880
  17.0826720  54.8291820   4.9319750  16.1351630  54.8630800   5.0635180
  17.4076710  55.6430770   5.3169110   7.6146260  51.1289000   3.2275740
   7.9221240  50.5735890   2.5111240   6.6846960  51.2633460   3.0448730
  13.1661320  66.8456290   5.5183200  13.1788480  66.4418580   4.6505460
  12.6136540  67.6203580   5.4144630  12.5646760  61.7486130   6.8465810
  12.9815550  61.5346240   6.0119270  13.2886580  62.0058920   7.4174430
  16.5108860  60.1473350   6.9382050  15.6827490  60.2166440   6.4632180
  17.1059340  60.7327660   6.4697880  13.4750870  56.9342670   7.8836920
  13.0622050  57.7596380   8.1376910  12.7426820  56.3487710   7.6913280
   5.6083660  59.7202570   2.7455590   5.2040660  59.0079820   2.2501490
   5.6946780  59.3755810   3.6343630   6.0765360  63.4070130   4.9094800
   5.7793650  62.8015600   4.2302580   7.0265180  63.4447440   4.7984160
   4.3212280  56.4945780   6.5254630   4.8726870  56.6041120   5.7507880
   4.8355790  56.8683380   7.2409860  14.1650970  66.9802000   8.5717900
  13.6881530  67.7874190   8.3790510  13.4812760  66.3280330   8.7244110
   5.1683790  63.1451820  11.5602600   4.2712320  63.3691790  11.8076000
   5.1936660  63.2686760  10.6114000   3.9955010  60.0165140  10.1359970
   3.8562780  60.8887940  10.5047370   3.1136370  59.6737950   9.9907910
   5.7935360  65.9586840  12.3445120   5.7650790  66.3629790  11.4773550
   5.6300330  65.0297200  12.1816720  17.7450180  66.7413940  13.6409290
  18.2209900  67.2196830  14.3198370  18.3657340  66.6731430  12.9154790
  17.1483430  63.9326790  10.8009300  17.2746490  63.6938670   9.8826480
  17.1904810  63.1011330  11.2731380  11.0100170  67.6354790   9.3704110
  11.5244840  67.5462800  10.1726540  10.1669250  67.9814490   9.6632020
  17.0007440  55.9859250  11.7659040  16.3851710  56.4938920  11.2374500
  16.6803860  55.0857580  11.7084980   4.7751950  51.9582620   3.6285910
   4.3320100  52.7392160   3.2970430   5.3336940  52.2812510   4.3356850
   9.0621760  54.8251140   9.2321230   8.6001130  55.0334160  10.0441170
   8.6599870  54.0110490   8.9291900  14.0626270  56.0460090  10.3617890
  13.2119860  55.7465840  10.6826960  13.9028060  56.2902100   9.4501710
  11.1575980  57.5461840  12.4616680  11.4829390  56.7125590  12.1218910
  11.9456310  58.0690360  12.6095010   6.8127850  52.5029950   5.4875510
   7.1100180  53.4092780   5.4067530   7.3613410  52.0148730   4.8735080
   7.0065380  57.9801770  12.0227430   6.9108980  57.0396500  11.8727830
   7.8497360  58.2016840  11.6275500   8.7120970  54.4750410  13.2457950
   8.0219290  54.2822610  13.8804040   9.4553270  54.7585050  13.7782250
  10.9883940  58.3148850   6.0811870  10.2565060  58.8235660   6.4301970
  10.5908280  57.4978830   5.7800650   7.4261330  54.9903050   4.4864360
   7.4297390  54.5493000   3.6368900   8.3212450  55.3120380   4.5936180
   3.2763710  54.8729540   3.4458570   2.9363760  55.3504770   4.2025620
   2.5141030  54.4194660   3.0859670  11.4509850  53.7682530   5.4934810
  11.4682590  54.2191180   6.3376660  11.2025430  52.8688170   5.7068250
  14.8780600  51.1814710  11.3321190  15.2026370  50.4504370  11.8579170
  14.9137110  50.8628350  10.4302180   7.7269300  59.0504830   6.2329770
   8.0939430  58.5763400   6.9791110   7.5374360  59.9246400   6.5738110
   5.5168670  58.0913470   8.5513980   5.2125740  58.9705450   8.7764340
   6.4715130  58.1513260   8.5871420  14.8038440  61.2939820   4.9407220
  15.5237560  61.7895110   4.5503330  14.6020260  60.6157710   4.2961090
  10.1857240  61.3648880  10.8276220  10.1194550  60.4444550  10.5733810
   9.5562380  61.4624320  11.5420860   4.0887860  61.9654840   2.7859640
   4.6066530  61.1623100   2.7316530   3.6371880  61.9033980   3.6276470
   4.7745520  59.3900450  12.5824890   4.4745660  59.5357630  11.6852710
   5.5456760  58.8305740  12.4898280  10.1173970  64.1869450  10.5780020
  10.1318510  63.2550410  10.3598930   9.4099070  64.2729210  11.2169790
  16.3285180  60.8276790   9.9248600  15.6033370  61.4205570   9.7277990
  16.8560640  60.8200330   9.1261970  11.8584770  62.5536960   3.4232450
  12.2108590  61.9565090   2.7633820  10.9747100  62.2281190   3.5940700
   9.5507870  65.8287020   7.6720520  10.1950090  66.0346400   8.3493940
   9.9137310  65.0675420   7.2191370  10.8239950  63.8319370   6.3897970
  11.4662180  63.1312530   6.5030140  11.3489300  64.6117810   6.2094860
  12.5977570  64.6314270   9.5934030  12.9333810  65.2180960  10.2711950
  11.6777910  64.5006980   9.8231820   8.4266150  64.6805600  12.7622090
   8.1063020  63.9614840  13.3067780   7.7524510  65.3560670  12.8358150
  11.6419750  54.9131760   8.1258890  12.0100570  54.0926970   8.4538460
  10.7817950  54.9733650   8.5414540   8.6021740  57.5671350   8.3496860
   9.1006990  58.0417170   9.0148710   8.7444690  56.6434870   8.5566890
  15.8088600  53.7839310   9.1925250  15.3062200  54.5244710   9.5319060
  16.6245260  54.1723310   8.8762040  14.1010610  59.0272490   2.6386610
  13.1600750  59.0422720   2.8134300  14.4154680  58.2408450   3.0846910
  16.1036190  66.1981340   4.3140870  16.2283610  67.0212510   4.7864680
  16.9701750  65.9872070   3.9665020   3.5753720  68.2912550   3.9858000
   4.3116200  67.7428010   4.2566570   3.9594640  69.1568560   3.8463990
   2.5812000  67.4758620  13.1743580   3.3824730  67.7970670  13.5878980
   2.0663820  67.1154200  13.8963490  11.4176630  63.5838490  13.1218990
  10.8114790  63.6070090  12.3814740  11.1130740  62.8521530  13.6586240
  12.8477000  67.3118780  11.7328400  13.7998750  67.2276800  11.6828640
  12.7005220  67.9760490  12.4062190   7.3547750  61.3703070  11.6515150
   6.5893420  61.9388070  11.5669820   7.5363710  61.0779280  10.7583380
  14.4971100  63.1008400  12.2090170  15.2380570  63.4384160  11.7057630
  13.7343780  63.2700460  11.6559940   2.3332890  58.1061670  13.0129700
   2.3738230  57.8075540  13.9214930   3.1878390  58.5069280  12.8537220
   4.2738700  56.6853770  10.9804190   3.7435160  56.1944720  10.3527530
   4.9426770  57.1137970  10.4462120  13.1716760  61.1523230  10.7445380
  13.5857780  61.3068310  11.5935800  12.2367760  61.2778450  10.9071160
  13.6438930  58.4919390  12.7484530  14.2259700  57.7371710  12.6605010
  13.8200700  59.0226830  11.9716010   4.7611000  53.6516140  11.0601480
   4.6667870  53.0336890  10.3352350   4.1808390  54.3782430  10.8331390
   7.5272440  52.2089380   8.0928870   7.0789740  52.2313640   7.2474420
   6.8937640  51.8108400   8.6899170   7.9331990  61.1043710   8.7141310
   8.3520100  61.9476440   8.5417550   7.0140620  61.2415750   8.4848090
  10.2695890  58.8359890  10.0979150  10.3892100  58.2401030  10.8373990
  11.1289890  58.8729580   9.6780450  12.6083790  59.3897080   8.6741660
  12.0819010  59.9139700   8.0706800  12.9515130  60.0224470   9.3051390
   5.7839410  67.4096720   9.8299040   5.2460500  68.1342780   9.5107740
   6.0373370  66.9327060   9.0396380   7.0364660  55.3781240  11.3554970
   7.6264350  55.0697090  12.0432790   6.2184900  54.9060990  11.5114870
  11.8558090  54.9947050  11.5887990  11.1673610  54.3328590  11.5237980
  12.5764110  54.5485320  12.0336450   8.6401620  68.6447930  10.0885690
   8.5660320  69.5483070  10.3958060   7.7380460  68.3259830  10.0607760
  16.1681300  66.3410110  10.4178250  15.5683290  66.4002670   9.6742170
  16.2975200  65.4015090  10.5475100  17.8699180  61.6825510   3.1024090
  18.2408010  60.8992830   2.6960060  18.5101110  62.3714610   2.9241390
  14.8532940  63.0662090   8.5154410  14.0392780  63.4959250   8.7780200
  15.2607140  63.6780500   7.9023460  16.2023340  58.2050290  10.0423630
  15.9709430  57.9763040   9.1421580  16.4627890  59.1249840   9.9968520
  14.6411410  53.4306720  12.8203330  15.5181590  53.4390120  13.2037330
  14.6532250  52.6937560  12.2095680  16.0874680  57.2836260   3.7091350
  16.6112160  56.7898910   3.0781520  16.6734100  57.4186620   4.4538920
  16.2664400  57.3676130   7.2310900  15.3167110  57.3339670   7.3455890
  16.4477410  58.2776240   6.9960670  17.0061810  55.1770560   2.1821440
  16.8961090  55.0226600   3.1203710  17.7669400  54.6491500   1.9396850
  15.3527530  51.1164690   8.6404440  15.9899750  51.7298830   9.0063630
  15.5002420  51.1525350   7.6953670   2.8171560  64.2498600  12.1913310
   2.7741190  63.8791510  13.0727770   2.9482570  65.1876170  12.3315130
   6.5177590  65.8058190   7.7923030   6.2768950  66.0732750   6.9053550
   7.4580230  65.9763920   7.8473890   8.7232010  52.2690880  11.5479540
   8.6620900  52.8612710  12.2974950   9.6632390  52.1616840  11.4029800
  11.3606570  51.9260940  11.1871830  11.9746980  52.2440230  10.5252910
  11.9056130  51.4409530  11.8067690  17.7781750  67.8252570   8.5933670
  17.2840030  68.2221440   7.8760800  17.1695040  67.2001780   8.9870950
   1.8827830  50.6055200  11.3010890   2.4310820  50.4243250  10.5377000
   1.9483140  49.8149310  11.8367200   2.6559590  67.1960850   9.3111090
   2.0619910  67.0645550  10.0501130   2.6483430  66.3598990   8.8453190
  12.1014610  50.4893080   7.5141120  11.2274450  50.8228190   7.3114050
  11.9925360  50.0166260   8.3392990  13.0086590  52.6963950   8.8982840
  12.6799950  51.8815710   8.5184570  13.9568890  52.6533760   8.7748530
  15.4621200  68.4675990   5.8720410  15.0024170  69.2191800   5.4978430
  14.8333660  67.7482460   5.8135210   5.8916920  66.7764230   5.0468540
   6.4081940  66.1651590   4.5216800   6.5414300  67.2793010   5.5379550
   8.6312420  67.6672720   5.8737520   8.9190230  67.4127020   4.9970530
   9.1435640  67.1150080   6.4643090   9.8489430  51.4062920   6.4534030
   9.0661220  51.8808420   6.7330790   9.5552360  50.5017750   6.3447210
  14.4010500  52.1086020   4.4983120  14.8418590  52.0531120   3.6504720
  14.1318090  53.0244030   4.5693300  16.2649070  51.7401260   2.5091940
  16.2037470  50.7962480   2.3622960  17.0441100  51.8481350   3.0545400
   7.7343650  53.8249670   1.9650060   6.9218160  53.4506560   1.6245940
   8.2385290  53.0694750   2.2671250  12.2368630  50.4892120   3.2033130
  12.8398000  51.0612330   3.6781650  11.4961620  51.0531560   2.9807030
   8.6984780  68.5888820  13.2405720   9.6252090  68.3533090  13.2841680
   8.6835210  69.4160820  12.7591750   5.8848390  51.2533570  13.0047600
   5.6032660  51.7567170  12.2408420   6.2668090  50.4555320  12.6389730
  12.4863850  50.6687150  13.5828070  12.3729300  50.9881760  14.4779590
  13.3033590  51.0699660  13.2865350  15.2662340  67.8158680  13.0646760
  16.0587660  67.3207910  12.8572720  15.5595490  68.4948820  13.6722370
  11.3922000  39.9136130  59.0436770  11.3116050  38.9990740  58.7728480
  10.9786420  40.4103200  58.3376480   9.5240040  41.6915150  60.9246040
   8.7482140  41.2115590  61.2144610  10.1752970  41.0120800  60.7502200
   3.5405870  42.0034960  61.8021800   2.7090750  41.7483670  62.2018310
   4.1486850  42.0745730  62.5379720  13.5447470  46.0975340  59.7045170
  13.0829000  45.3262580  60.0332340  14.3573020  46.1241410  60.2097620
   3.5207130  46.0375050  61.9979820   3.8235170  45.1472790  61.8190040
   4.2650720  46.5945270  61.7702070   9.7710780  48.3833350  59.3249160
   9.1522220  48.8390850  58.7543600  10.6262560  48.5384810  58.9238860
   8.9649030  44.3672340  60.9316200   8.8957310  43.4262280  60.7705330
   9.7268890  44.4573750  61.5038770   9.9954200  37.1742720  61.1585130
  10.3719020  36.3014600  61.0458800   9.8973710  37.5101420  60.2675570
   4.1259210  35.5468350  56.6202570   4.2325960  36.4472080  56.9271330
   3.2151570  35.4986320  56.3297220  13.7778320  34.6693160  58.0913470
  14.5987940  34.1789730  58.1338950  13.8112400  35.2590820  58.8445310
   5.9666940  38.5154720  60.9527750   6.4745160  39.0135690  61.5932770
   6.4980180  37.7389920  60.7767110  10.6374130  43.2672590  56.7181070
  10.0191400  43.7322040  56.1543790  11.1497380  43.9600070  57.1350580
  14.0139800  36.6093540  60.8641010  13.3095370  36.8978430  61.4444120
  14.3751960  37.4193650  60.5040570   3.9318370  34.8663240  63.2261620
   4.2735180  35.7105290  62.9315490   2.9934180  35.0146980  63.3426960
  15.6302580  46.2268670  63.1268490  14.9466100  46.8967780  63.1185160
  16.1696870  46.4249320  62.3613350  17.0826720  36.0548330  61.2550220
  16.1351630  36.0887310  61.3865650  17.4076710  36.8687280  61.6399580
   7.6146260  32.3545510  59.5506210   7.9221240  31.7992400  58.8341710
   6.6846960  32.4889970  59.3679200  13.1661320  48.0712800  61.8413670
  13.1788480  47.6675090  60.9735930  12.6136540  48.8460090  61.7375100
  14.4606740  44.7929020  56.9303840  14.3503070  43.8503350  57.0553260
  14.4574990  45.1544660  57.8166600  10.0027020  40.4194340  56.2866330
   9.0756300  40.3531720  56.5154800  10.1551840  41.3574470  56.1721570
   9.9896100  36.6911340  53.2833490   9.0499770  36.8525300  53.3685950
  10.3079360  37.4097020  52.7369480  16.5108860  41.3729860  63.2612520
  15.6827490  41.4422950  62.7862650  17.1059340  41.9584170  62.7928350
  14.0324310  41.9814640  56.7901580  13.4136730  41.6434190  56.1427880
  14.0148760  41.3374400  57.4980770   5.6083660  40.9459080  59.0686060
   5.2040660  40.2336330  58.5731960   5.6946780  40.6012320  59.9574100
   6.0765360  44.6326640  61.2325270   5.7793650  44.0272110  60.5533050
   7.0265180  44.6703950  61.1214630  12.2089010  41.2201450  53.7974330
  12.6482290  40.3823880  53.6512150  12.9217430  41.8530850  53.8838470
  10.3184390  46.1597520  57.7655570  10.7580300  46.9021850  57.3510960
  10.2571280  46.4024090  58.6894530  15.7906150  32.4744260  52.1115370
  15.4778810  32.5671090  53.0114440  16.5518620  33.0525290  52.0612800
   2.3088290  39.8404060  56.5692710   2.1885890  40.5666150  55.9573980
   1.9989180  39.0706970  56.0920620  12.9854570  49.1466640  55.1218580
  12.8255710  48.8569580  56.0200410  12.8201280  48.3706770  54.5863810
   5.4642950  48.9265170  56.8990200   5.2885430  48.0100710  56.6858000
   4.6098690  49.2852460  57.1388000  12.6880700  46.6554200  53.6816580
  11.9945860  46.6531490  53.0218860  13.4303560  46.2313520  53.2510750
  12.2530630  48.2816910  57.7565070  12.7087580  47.5006290  58.0703690
  12.5923150  48.9923730  58.3006250   4.7751950  33.1839130  59.9516380
   4.3320100  33.9648670  59.6200900   5.3336940  33.5069020  60.6587320
   7.8910770  32.8049830  54.8322210   7.2664950  32.8009700  55.5575520
   7.8040890  31.9380790  54.4358180   6.8127850  33.7286460  61.8105980
   7.1100180  34.6349290  61.7298000   7.3613410  33.2405240  61.1965550
   4.5666170  38.3072700  57.6797630   4.3407090  38.0909870  58.5844250
   3.7858700  38.7401160  57.3343600  11.7963930  38.3136070  56.2788280
  11.1972820  39.0371870  56.0951900  12.3443540  38.2512850  55.4964730
  10.4028800  36.9499610  58.3091560  10.7958370  37.2671810  57.4960250
  10.7645650  36.0711490  58.4236080  10.9883940  39.5405360  62.4042340
  10.2565060  40.0492170  62.7532440  10.5908280  38.7235340  62.1031120
   7.4261330  36.2159560  60.8094830   7.4297390  35.7749510  59.9599370
   8.3212450  36.5376890  60.9166650   3.2763710  36.0986050  59.7689040
   2.9363760  36.5761280  60.5256090   2.5141030  35.6451170  59.4090140
   7.4881480  37.2171640  53.8001590   7.6094300  37.1758120  54.7487410
   7.1029990  38.0795790  53.6448320  11.4509850  34.9939040  61.8165280
  11.4682590  35.4447690  62.6607130  11.2025430  34.0944680  62.0298720
   6.5002980  39.5272780  53.1984890   5.9319880  39.0791030  52.5720800
   7.2091980  39.8865560  52.6650040   7.7269300  40.2761340  62.5560240
   8.0939430  39.8019910  63.3021580   7.5374360  41.1502910  62.8968580
   4.0450460  43.5230970  55.4711300   3.2712720  42.9828590  55.3110020
   4.7745090  43.0037580  55.1329060  14.8038440  42.5196330  61.2637690
  15.5237560  43.0151620  60.8733800  14.6020260  41.8414220  60.6191560
  10.2648380  33.9134290  55.4067080   9.4512990  33.4147460  55.3312390
  10.0710330  34.7532540  54.9903430  12.9796770  38.2853940  53.7029240
  13.8676390  38.5971170  53.5280580  12.9501860  37.4126190  53.3109820
   4.0887860  43.1911350  59.1090110   4.6066530  42.3879610  59.0547000
   3.6371880  43.1290490  59.9506940   8.9757360  44.4577630  54.3817410
   9.3173060  45.2019860  53.8860730   8.1470070  44.7708750  54.7442240
  15.2511040  39.5965780  53.1709100  15.1674760  40.0280000  52.3205540
  15.9705230  40.0564130  53.6035920  16.2798290  46.4508040  55.8991230
  15.6374450  45.7963660  56.1734950  15.8928950  46.8563130  55.1231900
  11.8584770  43.7793470  59.7462920  12.2108590  43.1821600  59.0864290
  10.9747100  43.4537700  59.9171170   7.9448050  44.5391160  57.1533330
   8.6319180  45.0860370  57.5340920   7.1580470  45.0831890  57.1882940
   7.2475260  41.5437190  56.7658690   7.7038040  42.3542440  56.9918880
   6.8963470  41.2260330  57.5977180   3.1487040  31.8874840  57.2381210
   3.0201670  31.8792740  58.1866130   2.3249060  32.2257930  56.8872220
  10.8239950  45.0575880  62.7128440  11.4662180  44.3569040  62.8260610
  11.3489300  45.8374320  62.5325330  14.6695670  45.3424500  52.4367580
  14.4433250  44.6254940  53.0292220  14.2791870  45.0936940  51.5989330
  14.2511920  43.2596440  54.0981740  13.9633620  43.7209130  54.8859620
  15.0464090  42.7994210  54.3665960   6.4680320  46.7522560  54.0285710
   6.4590420  47.4852250  53.4130220   5.5478680  46.5054140  54.1212670
  15.0081780  35.0945210  55.2576920  14.3794940  35.1990880  54.5435150
  14.5133700  35.3141990  56.0470800   9.4539920  46.8150800  52.6910900
   9.5551900  46.6114790  51.7612880   8.5541660  46.5609080  52.8958680
   6.9765810  37.3731160  56.6734800   6.2681960  37.8417500  57.1148410
   7.2610290  36.7153170  57.3079990  11.0081240  34.0981820  58.1130590
  10.8849020  34.1167950  57.1640100  11.9565800  34.1460760  58.2328990
   8.0958030  49.3337120  57.3858570   8.3499530  49.2958510  56.4637940
   7.1470510  49.2070450  57.3786820   5.1800830  35.6816240  54.0485510
   6.0291360  36.1186390  53.9825700   4.8132100  35.9936500  54.8757570
  14.1010610  40.2529000  58.9617080  13.1600750  40.2679230  59.1364770
  14.4154680  39.4664960  59.4077380   4.0792250  41.9348600  52.5221040
   4.8455520  41.8229960  53.0846470   4.1566940  41.2386570  51.8697810
   2.7739010  39.3673670  53.2053930   2.8542600  38.4201180  53.3171330
   3.6658760  39.6980550  53.3114590  16.1036190  47.4237850  60.6371340
  16.2283610  48.2469020  61.1095150  16.9701750  47.2128580  60.2895490
   3.5753720  49.5169060  60.3088470   4.3116200  48.9684520  60.5797040
   3.9594640  50.3825070  60.1694460   6.6856030  48.6899370  52.1314040
   7.4784640  48.9788200  51.6795830   6.1660380  48.2591540  51.4526520
  15.7386200  47.9169500  53.5550780  15.4527710  47.5034640  52.7404960
  15.5405750  48.8457210  53.4351300   7.2033430  43.9102780  51.9956390
   7.0984070  43.2955130  52.7217770   7.0357650  43.3868670  51.2119400
  10.4436160  42.9722810  52.5998380   9.8946260  43.4192110  53.2441120
  11.0655420  42.4672060  53.1236050   6.1111280  41.9313730  54.4963680
   6.5327700  41.7653600  55.3395070   6.2362120  41.1213960  54.0018820
   8.6238920  40.9551340  51.7440780   9.1444580  40.2400360  51.3781930
   9.2707320  41.5937210  52.0441290   5.0070180  38.0046960  51.4421840
   4.8059240  37.1414320  51.8035180   4.8362230  37.9180320  50.5043440
  12.4858490  32.8155190  53.9708720  12.7660780  31.9723090  54.3268140
  11.7124220  33.0478300  54.4847470   3.8052980  35.1047580  51.4299720
   4.1078880  35.1115010  50.5218870   4.5447570  34.7545440  51.9267380
   7.0237910  34.0482200  52.4155920   6.6759910  33.3706190  51.8358370
   7.2250680  33.5871710  53.2299310   9.1886950  49.0362950  54.0342520
  10.0837740  49.3747920  54.0561280   9.2204580  48.3142360  53.4066800
   2.8283110  44.4090000  52.2629520   3.2657980  44.9519670  52.9187100
   3.3130840  43.5836950  52.2725860   4.6390830  45.5288040  57.3751750
   4.3386370  45.4053010  58.2755660   4.5328320  44.6696630  56.9667480
  17.4082750  45.3084440  52.0778430  16.5775710  45.3761090  52.5485660
  17.5854580  46.1988560  51.7745290  16.8639210  42.0531920  54.5812630
  17.6258120  42.6228570  54.6872320  16.8793580  41.4859120  55.3520940
  17.8699180  42.9082020  59.4254560  18.2408010  42.1249340  59.0190530
  18.5101110  43.5971120  59.2471860  16.9158380  42.3466290  51.7385150
  17.1907220  43.2545170  51.6104370  16.7269120  42.2828820  52.6747140
  13.3133990  35.3711140  53.0338780  13.7318870  35.1842120  52.1935440
  13.0070050  34.5190190  53.3441710  16.8123720  40.2835280  56.7314580
  16.4367320  39.5163210  56.2995870  16.0826840  40.6657980  57.2189510
  16.0874680  38.5092770  60.0321820  16.6112160  38.0155420  59.4011990
  16.6734100  38.6443130  60.7769390   1.7683000  32.8973650  51.7042650
   2.4911130  33.4382590  52.0223870   2.0407520  32.6237070  50.8284190
  15.5774650  37.7666120  55.9714230  16.0733770  37.5336990  56.7563110
  15.3790720  36.9277960  55.5551870  17.0061810  36.4027070  58.5051910
  16.8961090  36.2483110  59.4434180  17.7669400  35.8748010  58.2627320
  17.8952080  34.2334990  51.7458050  18.8201390  34.1016170  51.5376340
  17.8727870  34.3127810  52.6994500  17.9690570  35.0045650  54.3714760
  17.1742070  34.9390770  54.9007670  18.1733850  35.9396290  54.3600110
  14.9108990  49.0437200  58.3653150  15.5068060  48.7221770  57.6887570
  15.1687140  48.5709020  59.1566420  15.4621200  49.6932500  62.1950880
  15.0024170  50.4448310  61.8208900  14.8333660  48.9738970  62.1365680
   5.8916920  48.0020740  61.3699010   6.4081940  47.3908100  60.8447270
   6.5414300  48.5049520  61.8610020   8.6312420  48.8929230  62.1967990
   8.9190230  48.6383530  61.3201000   9.1435640  48.3406590  62.7873560
   9.8489430  32.6319430  62.7764500   9.0661220  33.1064930  63.0561260
   9.5552360  31.7274260  62.6677680  14.4010500  33.3342530  60.8213590
  14.8418590  33.2787630  59.9735190  14.1318090  34.2500540  60.8923770
  16.2649070  32.9657770  58.8322410  16.2037470  32.0218990  58.6853430
  17.0441100  33.0737860  59.3775870   7.7343650  35.0506180  58.2880530
   6.9218160  34.6763070  57.9476410   8.2385290  34.2951260  58.5901720
  12.2368630  31.7148630  59.5263600  12.8398000  32.2868840  60.0012120
  11.4961620  32.2788070  59.3037500  15.3803230  32.1170190  54.8003880
  15.5753860  33.0153640  55.0671310  14.5933100  31.8857270  55.2936830
   3.5654990  33.4630960  53.8380190   4.0947750  32.6760760  53.7088140
   4.1983310  34.1422150  54.0715720   5.7592830  33.2006100  56.8925580
   5.1295570  32.4993410  57.0595710   5.2197970  33.9610230  56.6758740
  16.9329840  49.3570900  56.5610440  17.1082030  48.6708640  55.9171360
  16.2351410  49.8817950  56.1687110   4.7757490  49.7465740  54.1145750
   5.5076310  49.4625020  53.5669640   5.0351160  49.5079020  55.0045130
   3.9372280  45.8630470  54.1192080   3.3081160  46.3315570  54.6677910
   4.0520110  45.0179690  54.5538270  11.3922000  39.9136130  40.2693280
  11.3116050  38.9990740  39.9984990  10.9786420  40.4103200  39.5632990
   9.5240040  41.6915150  42.1502550   8.7482140  41.2115590  42.4401120
  10.1752970  41.0120800  41.9758710   3.5405870  42.0034960  43.0278310
   2.7090750  41.7483670  43.4274820   4.1486850  42.0745730  43.7636230
  13.5447470  46.0975340  40.9301680  13.0829000  45.3262580  41.2588850
  14.3573020  46.1241410  41.4354130   3.5207130  46.0375050  43.2236330
   3.8235170  45.1472790  43.0446550   4.2650720  46.5945270  42.9958580
   9.7710780  48.3833350  40.5505670   9.1522220  48.8390850  39.9800110
  10.6262560  48.5384810  40.1495370   8.9649030  44.3672340  42.1572710
   8.8957310  43.4262280  41.9961840   9.7268890  44.4573750  42.7295280
   9.9954200  37.1742720  42.3841640  10.3719020  36.3014600  42.2715310
   9.8973710  37.5101420  41.4932080   4.1259210  35.5468350  37.8459080
   4.2325960  36.4472080  38.1527840   3.2151570  35.4986320  37.5553730
  13.7778320  34.6693160  39.3169980  14.5987940  34.1789730  39.3595460
  13.8112400  35.2590820  40.0701820   5.9666940  38.5154720  42.1784260
   6.4745160  39.0135690  42.8189280   6.4980180  37.7389920  42.0023620
  18.0677870  36.6859910  45.8813610  17.3630040  37.0741620  45.3628720
  18.3335790  37.3810200  46.4834540   4.2503040  33.1553280  46.4447680
   4.2521480  33.6725670  45.6393580   3.4207350  32.6783460  46.4217610
  10.6374130  43.2672590  37.9437580  10.0191400  43.7322040  37.3800300
  11.1497380  43.9600070  38.3607090   5.5005890  42.7948460  44.6221180
   5.1675270  43.4217380  45.2642250   5.6772570  43.3210340  43.8422850
  14.0139800  36.6093540  42.0897520  13.3095370  36.8978430  42.6700630
  14.3751960  37.4193650  41.7297080   3.9318370  34.8663240  44.4518130
   4.2735180  35.7105290  44.1572000   2.9934180  35.0146980  44.5683470
   4.7124990  44.7629260  46.4370360   5.3298990  45.4380340  46.1554810
   3.8518110  45.1717240  46.3457860  15.6302580  46.2268670  44.3525000
  14.9466100  46.8967780  44.3441670  16.1696870  46.4249320  43.5869860
  17.0826720  36.0548330  42.4806730  16.1351630  36.0887310  42.6122160
  17.4076710  36.8687280  42.8656090   7.6146260  32.3545510  40.7762720
   7.9221240  31.7992400  40.0598220   6.6846960  32.4889970  40.5935710
  13.1661320  48.0712800  43.0670180  13.1788480  47.6675090  42.1992440
  12.6136540  48.8460090  42.9631610  14.4606740  44.7929020  38.1560350
  14.3503070  43.8503350  38.2809770  14.4574990  45.1544660  39.0423110
  12.5646760  42.9742640  44.3952790  12.9815550  42.7602750  43.5606250
  13.2886580  43.2315430  44.9661410  10.0027020  40.4194340  37.5122840
   9.0756300  40.3531720  37.7411310  10.1551840  41.3574470  37.3978080
   9.9896100  36.6911340  34.5090000   9.0499770  36.8525300  34.5942460
  10.3079360  37.4097020  33.9625990  16.5108860  41.3729860  44.4869030
  15.6827490  41.4422950  44.0119160  17.1059340  41.9584170  44.0184860
  14.0324310  41.9814640  38.0158090  13.4136730  41.6434190  37.3684390
  14.0148760  41.3374400  38.7237280  13.4750870  38.1599180  45.4323900
  13.0622050  38.9852890  45.6863890  12.7426820  37.5744220  45.2400260
   5.6083660  40.9459080  40.2942570   5.2040660  40.2336330  39.7988470
   5.6946780  40.6012320  41.1830610   6.0765360  44.6326640  42.4581780
   5.7793650  44.0272110  41.7789560   7.0265180  44.6703950  42.3471140
   4.3212280  37.7202290  44.0741610   4.8726870  37.8297630  43.2994860
   4.8355790  38.0939890  44.7896840  14.1650970  48.2058510  46.1204880
  13.6881530  49.0130700  45.9277490  13.4812760  47.5536840  46.2731090
   5.1683790  44.3708330  49.1089580   4.2712320  44.5948300  49.3562980
   5.1936660  44.4943270  48.1600980  12.2089010  41.2201450  35.0230840
  12.6482290  40.3823880  34.8768660  12.9217430  41.8530850  35.1094980
   3.9955010  41.2421650  47.6846950   3.8562780  42.1144450  48.0534350
   3.1136370  40.8994460  47.5394890  10.3184390  46.1597520  38.9912080
  10.7580300  46.9021850  38.5767470  10.2571280  46.4024090  39.9151040
   5.7935360  47.1843350  49.8932100   5.7650790  47.5886300  49.0260530
   5.6300330  46.2553710  49.7303700  15.7906150  32.4744260  33.3371880
  15.4778810  32.5671090  34.2370950  16.5518620  33.0525290  33.2869310
   2.3088290  39.8404060  37.7949220   2.1885890  40.5666150  37.1830490
   1.9989180  39.0706970  37.3177130  17.7450180  47.9670450  51.1896270
  18.2209900  48.4453340  51.8685350  18.3657340  47.8987940  50.4641770
  17.1483430  45.1583300  48.3496280  17.2746490  44.9195180  47.4313460
  17.1904810  44.3267840  48.8218360  11.0100170  48.8611300  46.9191090
  11.5244840  48.7719310  47.7213520  10.1669250  49.2071000  47.2119000
  12.9854570  49.1466640  36.3475090  12.8255710  48.8569580  37.2456920
  12.8201280  48.3706770  35.8120320   5.4642950  48.9265170  38.1246710
   5.2885430  48.0100710  37.9114510   4.6098690  49.2852460  38.3644510
  12.6880700  46.6554200  34.9073090  11.9945860  46.6531490  34.2475370
  13.4303560  46.2313520  34.4767260  12.2530630  48.2816910  38.9821580
  12.7087580  47.5006290  39.2960200  12.5923150  48.9923730  39.5262760
  17.0007440  37.2115760  49.3146020  16.3851710  37.7195430  48.7861480
  16.6803860  36.3114090  49.2571960   4.7751950  33.1839130  41.1772890
   4.3320100  33.9648670  40.8457410   5.3336940  33.5069020  41.8843830
   9.0621760  36.0507650  46.7808210   8.6001130  36.2590670  47.5928150
   8.6599870  35.2367000  46.4778880  14.0626270  37.2716600  47.9104870
  13.2119860  36.9722350  48.2313940  13.9028060  37.5158610  46.9988690
  11.1575980  38.7718350  50.0103660  11.4829390  37.9382100  49.6705890
  11.9456310  39.2946870  50.1581990   7.8910770  32.8049830  36.0578720
   7.2664950  32.8009700  36.7832030   7.8040890  31.9380790  35.6614690
   6.8127850  33.7286460  43.0362490   7.1100180  34.6349290  42.9554510
   7.3613410  33.2405240  42.4222060   4.5666170  38.3072700  38.9054140
   4.3407090  38.0909870  39.8100760   3.7858700  38.7401160  38.5600110
  11.7963930  38.3136070  37.5044790  11.1972820  39.0371870  37.3208410
  12.3443540  38.2512850  36.7221240   7.0065380  39.2058280  49.5714410
   6.9108980  38.2653010  49.4214810   7.8497360  39.4273350  49.1762480
  10.4028800  36.9499610  39.5348070  10.7958370  37.2671810  38.7216760
  10.7645650  36.0711490  39.6492590   8.7120970  35.7006920  50.7944930
   8.0219290  35.5079120  51.4291020   9.4553270  35.9841560  51.3269230
  10.9883940  39.5405360  43.6298850  10.2565060  40.0492170  43.9788950
  10.5908280  38.7235340  43.3287630   7.4261330  36.2159560  42.0351340
   7.4297390  35.7749510  41.1855880   8.3212450  36.5376890  42.1423160
   3.2763710  36.0986050  40.9945550   2.9363760  36.5761280  41.7512600
   2.5141030  35.6451170  40.6346650   7.4881480  37.2171640  35.0258100
   7.6094300  37.1758120  35.9743920   7.1029990  38.0795790  34.8704830
  11.4509850  34.9939040  43.0421790  11.4682590  35.4447690  43.8863640
  11.2025430  34.0944680  43.2555230   6.5002980  39.5272780  34.4241400
   5.9319880  39.0791030  33.7977310   7.2091980  39.8865560  33.8906550
  14.8780600  32.4071220  48.8808170  15.2026370  31.6760880  49.4066150
  14.9137110  32.0884860  47.9789160   7.7269300  40.2761340  43.7816750
   8.0939430  39.8019910  44.5278090   7.5374360  41.1502910  44.1225090
   5.5168670  39.3169980  46.1000960   5.2125740  40.1961960  46.3251320
   6.4715130  39.3769770  46.1358400   4.0450460  43.5230970  36.6967810
   3.2712720  42.9828590  36.5366530   4.7745090  43.0037580  36.3585570
  14.8038440  42.5196330  42.4894200  15.5237560  43.0151620  42.0990310
  14.6020260  41.8414220  41.8448070  10.2648380  33.9134290  36.6323590
   9.4512990  33.4147460  36.5568900  10.0710330  34.7532540  36.2159940
  10.1857240  42.5905390  48.3763200  10.1194550  41.6701060  48.1220790
   9.5562380  42.6880830  49.0907840  12.9796770  38.2853940  34.9285750
  13.8676390  38.5971170  34.7537090  12.9501860  37.4126190  34.5366330
   4.0887860  43.1911350  40.3346620   4.6066530  42.3879610  40.2803510
   3.6371880  43.1290490  41.1763450   8.9757360  44.4577630  35.6073920
   9.3173060  45.2019860  35.1117240   8.1470070  44.7708750  35.9698750
   4.7745520  40.6156960  50.1311870   4.4745660  40.7614140  49.2339690
   5.5456760  40.0562250  50.0385260  10.1173970  45.4125960  48.1267000
  10.1318510  44.4806920  47.9085910   9.4099070  45.4985720  48.7656770
  15.2511040  39.5965780  34.3965610  15.1674760  40.0280000  33.5462050
  15.9705230  40.0564130  34.8292430  16.3285180  42.0533300  47.4735580
  15.6033370  42.6462080  47.2764970  16.8560640  42.0456840  46.6748950
  16.2798290  46.4508040  37.1247740  15.6374450  45.7963660  37.3991460
  15.8928950  46.8563130  36.3488410  11.8584770  43.7793470  40.9719430
  12.2108590  43.1821600  40.3120800  10.9747100  43.4537700  41.1427680
   7.9448050  44.5391160  38.3789840   8.6319180  45.0860370  38.7597430
   7.1580470  45.0831890  38.4139450   7.2475260  41.5437190  37.9915200
   7.7038040  42.3542440  38.2175390   6.8963470  41.2260330  38.8233690
   9.5507870  47.0543530  45.2207500  10.1950090  47.2602910  45.8980920
   9.9137310  46.2931930  44.7678350   3.1487040  31.8874840  38.4637720
   3.0201670  31.8792740  39.4122640   2.3249060  32.2257930  38.1128730
  10.8239950  45.0575880  43.9384950  11.4662180  44.3569040  44.0517120
  11.3489300  45.8374320  43.7581840  14.6695670  45.3424500  33.6624090
  14.4433250  44.6254940  34.2548730  14.2791870  45.0936940  32.8245840
  12.5977570  45.8570780  47.1421010  12.9333810  46.4437470  47.8198930
  11.6777910  45.7263490  47.3718800  14.2511920  43.2596440  35.3238250
  13.9633620  43.7209130  36.1116130  15.0464090  42.7994210  35.5922470
   8.4266150  45.9062110  50.3109070   8.1063020  45.1871350  50.8554760
   7.7524510  46.5817180  50.3845130   6.4680320  46.7522560  35.2542220
   6.4590420  47.4852250  34.6386730   5.5478680  46.5054140  35.3469180
  11.6419750  36.1388270  45.6745870  12.0100570  35.3183480  46.0025440
  10.7817950  36.1990160  46.0901520  15.0081780  35.0945210  36.4833430
  14.3794940  35.1990880  35.7691660  14.5133700  35.3141990  37.2727310
   9.4539920  46.8150800  33.9167410   9.5551900  46.6114790  32.9869390
   8.5541660  46.5609080  34.1215190   6.9765810  37.3731160  37.8991310
   6.2681960  37.8417500  38.3404920   7.2610290  36.7153170  38.5336500
   8.6021740  38.7927860  45.8983840   9.1006990  39.2673680  46.5635690
   8.7444690  37.8691380  46.1053870  11.0081240  34.0981820  39.3387100
  10.8849020  34.1167950  38.3896610  11.9565800  34.1460760  39.4585500
   8.0958030  49.3337120  38.6115080   8.3499530  49.2958510  37.6894450
   7.1470510  49.2070450  38.6043330   5.1800830  35.6816240  35.2742020
   6.0291360  36.1186390  35.2082210   4.8132100  35.9936500  36.1014080
  15.8088600  35.0095820  46.7412230  15.3062200  35.7501220  47.0806040
  16.6245260  35.3979820  46.4249020  14.1010610  40.2529000  40.1873590
  13.1600750  40.2679230  40.3621280  14.4154680  39.4664960  40.6333890
   4.0792250  41.9348600  33.7477550   4.8455520  41.8229960  34.3102980
   4.1566940  41.2386570  33.0954320   2.7739010  39.3673670  34.4310440
   2.8542600  38.4201180  34.5427840   3.6658760  39.6980550  34.5371100
  16.1036190  47.4237850  41.8627850  16.2283610  48.2469020  42.3351660
  16.9701750  47.2128580  41.5152000   3.5753720  49.5169060  41.5344980
   4.3116200  48.9684520  41.8053550   3.9594640  50.3825070  41.3950970
   2.5812000  48.7015130  50.7230560   3.3824730  49.0227180  51.1365960
   2.0663820  48.3410710  51.4450470   6.6856030  48.6899370  33.3570550
   7.4784640  48.9788200  32.9052340   6.1660380  48.2591540  32.6783030
  11.4176630  44.8095000  50.6705970  10.8114790  44.8326600  49.9301720
  11.1130740  44.0778040  51.2073220  12.8477000  48.5375290  49.2815380
  13.7998750  48.4533310  49.2315620  12.7005220  49.2017000  49.9549170
  15.7386200  47.9169500  34.7807290  15.4527710  47.5034640  33.9661470
  15.5405750  48.8457210  34.6607810   7.2033430  43.9102780  33.2212900
   7.0984070  43.2955130  33.9474280   7.0357650  43.3868670  32.4375910
   7.3547750  42.5959580  49.2002130   6.5893420  43.1644580  49.1156800
   7.5363710  42.3035790  48.3070360  10.4436160  42.9722810  33.8254890
   9.8946260  43.4192110  34.4697630  11.0655420  42.4672060  34.3492560
  14.4971100  44.3264910  49.7577150  15.2380570  44.6640670  49.2544610
  13.7343780  44.4956970  49.2046920   2.3332890  39.3318180  50.5616680
   2.3738230  39.0332050  51.4701910   3.1878390  39.7325790  50.4024200
   6.1111280  41.9313730  35.7220190   6.5327700  41.7653600  36.5651580
   6.2362120  41.1213960  35.2275330   4.2738700  37.9110280  48.5291170
   3.7435160  37.4201230  47.9014510   4.9426770  38.3394480  47.9949100
   8.6238920  40.9551340  32.9697290   9.1444580  40.2400360  32.6038440
   9.2707320  41.5937210  33.2697800  13.1716760  42.3779740  48.2932360
  13.5857780  42.5324820  49.1422780  12.2367760  42.5034960  48.4558140
  13.6438930  39.7175900  50.2971510  14.2259700  38.9628220  50.2091990
  13.8200700  40.2483340  49.5202990   4.7611000  34.8772650  48.6088460
   4.6667870  34.2593400  47.8839330   4.1808390  35.6038940  48.3818370
   7.5272440  33.4345890  45.6415850   7.0789740  33.4570150  44.7961400
   6.8937640  33.0364910  46.2386150   7.9331990  42.3300220  46.2628290
   8.3520100  43.1732950  46.0904530   7.0140620  42.4672260  46.0335070
  10.2695890  40.0616400  47.6466130  10.3892100  39.4657540  48.3860970
  11.1289890  40.0986090  47.2267430  12.6083790  40.6153590  46.2228640
  12.0819010  41.1396210  45.6193780  12.9515130  41.2480980  46.8538370
   5.0070180  38.0046960  32.6678350   4.8059240  37.1414320  33.0291690
   4.8362230  37.9180320  31.7299950   5.7839410  48.6353230  47.3786020
   5.2460500  49.3599290  47.0594720   6.0373370  48.1583570  46.5883360
   7.0364660  36.6037750  48.9041950   7.6264350  36.2953600  49.5919770
   6.2184900  36.1317500  49.0601850  11.8558090  36.2203560  49.1374970
  11.1673610  35.5585100  49.0724960  12.5764110  35.7741830  49.5823430
  12.4858490  32.8155190  35.1965230  12.7660780  31.9723090  35.5524650
  11.7124220  33.0478300  35.7103980   3.8052980  35.1047580  32.6556230
   4.1078880  35.1115010  31.7475380   4.5447570  34.7545440  33.1523890
   8.6401620  49.8704440  47.6372670   8.5660320  50.7739580  47.9445040
   7.7380460  49.5516340  47.6094740   7.0237910  34.0482200  33.6412430
   6.6759910  33.3706190  33.0614880   7.2250680  33.5871710  34.4555820
   9.1886950  49.0362950  35.2599030  10.0837740  49.3747920  35.2817790
   9.2204580  48.3142360  34.6323310   2.8283110  44.4090000  33.4886030
   3.2657980  44.9519670  34.1443610   3.3130840  43.5836950  33.4982370
   4.6390830  45.5288040  38.6008260   4.3386370  45.4053010  39.5012170
   4.5328320  44.6696630  38.1923990  16.1681300  47.5666620  47.9665230
  15.5683290  47.6259180  47.2229150  16.2975200  46.6271600  48.0962080
  17.4082750  45.3084440  33.3034940  16.5775710  45.3761090  33.7742170
  17.5854580  46.1988560  33.0001800  16.8639210  42.0531920  35.8069140
  17.6258120  42.6228570  35.9128830  16.8793580  41.4859120  36.5777450
  17.8699180  42.9082020  40.6511070  18.2408010  42.1249340  40.2447040
  18.5101110  43.5971120  40.4728370  14.8532940  44.2918600  46.0641390
  14.0392780  44.7215760  46.3267180  15.2607140  44.9037010  45.4510440
  16.9158380  42.3466290  32.9641660  17.1907220  43.2545170  32.8360880
  16.7269120  42.2828820  33.9003650  13.3133990  35.3711140  34.2595290
  13.7318870  35.1842120  33.4191950  13.0070050  34.5190190  34.5698220
  16.8123720  40.2835280  37.9571090  16.4367320  39.5163210  37.5252380
  16.0826840  40.6657980  38.4446020  16.2023340  39.4306800  47.5910610
  15.9709430  39.2019550  46.6908560  16.4627890  40.3506350  47.5455500
  14.6411410  34.6563230  50.3690310  15.5181590  34.6646630  50.7524310
  14.6532250  33.9194070  49.7582660  16.0874680  38.5092770  41.2578330
  16.6112160  38.0155420  40.6268500  16.6734100  38.6443130  42.0025900
  16.2664400  38.5932640  44.7797880  15.3167110  38.5596180  44.8942870
  16.4477410  39.5032750  44.5447650   1.7683000  32.8973650  32.9299160
   2.4911130  33.4382590  33.2480380   2.0407520  32.6237070  32.0540700
  15.5774650  37.7666120  37.1970740  16.0733770  37.5336990  37.9819620
  15.3790720  36.9277960  36.7808380  17.0061810  36.4027070  39.7308420
  16.8961090  36.2483110  40.6690690  17.7669400  35.8748010  39.4883830
  15.3527530  32.3421200  46.1891420  15.9899750  32.9555340  46.5550610
  15.5002420  32.3781860  45.2440650  17.8952080  34.2334990  32.9714560
  18.8201390  34.1016170  32.7632850  17.8727870  34.3127810  33.9251010
  17.9690570  35.0045650  35.5971270  17.1742070  34.9390770  36.1264180
  18.1733850  35.9396290  35.5856620  14.9108990  49.0437200  39.5909660
  15.5068060  48.7221770  38.9144080  15.1687140  48.5709020  40.3822930
   2.8171560  45.4755110  49.7400290   2.7741190  45.1048020  50.6214750
   2.9482570  46.4132680  49.8802110   6.5177590  47.0314700  45.3410010
   6.2768950  47.2989260  44.4540530   7.4580230  47.2020430  45.3960870
   8.7232010  33.4947390  49.0966520   8.6620900  34.0869220  49.8461930
   9.6632390  33.3873350  48.9516780  11.3606570  33.1517450  48.7358810
  11.9746980  33.4696740  48.0739890  11.9056130  32.6666040  49.3554670
  17.7781750  49.0509080  46.1420650  17.2840030  49.4477950  45.4247780
  17.1695040  48.4258290  46.5357930   1.8827830  31.8311710  48.8497870
   2.4310820  31.6499760  48.0863980   1.9483140  31.0405820  49.3854180
   2.6559590  48.4217360  46.8598070   2.0619910  48.2902060  47.5988110
   2.6483430  47.5855500  46.3940170  12.1014610  31.7149590  45.0628100
  11.2274450  32.0484700  44.8601030  11.9925360  31.2422770  45.8879970
  13.0086590  33.9220460  46.4469820  12.6799950  33.1072220  46.0671550
  13.9568890  33.8790270  46.3235510  15.4621200  49.6932500  43.4207390
  15.0024170  50.4448310  43.0465410  14.8333660  48.9738970  43.3622190
   5.8916920  48.0020740  42.5955520   6.4081940  47.3908100  42.0703780
   6.5414300  48.5049520  43.0866530   8.6312420  48.8929230  43.4224500
   8.9190230  48.6383530  42.5457510   9.1435640  48.3406590  44.0130070
   9.8489430  32.6319430  44.0021010   9.0661220  33.1064930  44.2817770
   9.5552360  31.7274260  43.8934190  14.4010500  33.3342530  42.0470100
  14.8418590  33.2787630  41.1991700  14.1318090  34.2500540  42.1180280
  16.2649070  32.9657770  40.0578920  16.2037470  32.0218990  39.9109940
  17.0441100  33.0737860  40.6032380   7.7343650  35.0506180  39.5137040
   6.9218160  34.6763070  39.1732920   8.2385290  34.2951260  39.8158230
  12.2368630  31.7148630  40.7520110  12.8398000  32.2868840  41.2268630
  11.4961620  32.2788070  40.5294010  15.3803230  32.1170190  36.0260390
  15.5753860  33.0153640  36.2927820  14.5933100  31.8857270  36.5193340
   3.5654990  33.4630960  35.0636700   4.0947750  32.6760760  34.9344650
   4.1983310  34.1422150  35.2972230   5.7592830  33.2006100  38.1182090
   5.1295570  32.4993410  38.2852220   5.2197970  33.9610230  37.9015250
   8.6984780  49.8145330  50.7892700   9.6252090  49.5789600  50.8328660
   8.6835210  50.6417330  50.3078730  16.9329840  49.3570900  37.7866950
  17.1082030  48.6708640  37.1427870  16.2351410  49.8817950  37.3943620
   5.8848390  32.4790080  50.5534580   5.6032660  32.9823680  49.7895400
   6.2668090  31.6811830  50.1876710   4.7757490  49.7465740  35.3402260
   5.5076310  49.4625020  34.7926150   5.0351160  49.5079020  36.2301640
   3.9372280  45.8630470  35.3448590   3.3081160  46.3315570  35.8934420
   4.0520110  45.0179690  35.7794780  12.4863850  31.8943660  51.1315050
  12.3729300  32.2138270  52.0266570  13.3033590  32.2956170  50.8352330
  15.2662340  49.0415190  50.6133740  16.0587660  48.5464420  50.4059700
  15.5595490  49.7205330  51.2209350  11.3922000  39.9136130  21.4949790
  11.3116050  38.9990740  21.2241500  10.9786420  40.4103200  20.7889500
   9.5240040  41.6915150  23.3759060   8.7482140  41.2115590  23.6657630
  10.1752970  41.0120800  23.2015220   3.5405870  42.0034960  24.2534820
   2.7090750  41.7483670  24.6531330   4.1486850  42.0745730  24.9892740
  13.5447470  46.0975340  22.1558190  13.0829000  45.3262580  22.4845360
  14.3573020  46.1241410  22.6610640   3.5207130  46.0375050  24.4492840
   3.8235170  45.1472790  24.2703060   4.2650720  46.5945270  24.2215090
   9.7710780  48.3833350  21.7762180   9.1522220  48.8390850  21.2056620
  10.6262560  48.5384810  21.3751880   8.9649030  44.3672340  23.3829220
   8.8957310  43.4262280  23.2218350   9.7268890  44.4573750  23.9551790
   9.9954200  37.1742720  23.6098150  10.3719020  36.3014600  23.4971820
   9.8973710  37.5101420  22.7188590   4.1259210  35.5468350  19.0715590
   4.2325960  36.4472080  19.3784350   3.2151570  35.4986320  18.7810240
  13.7778320  34.6693160  20.5426490  14.5987940  34.1789730  20.5851970
  13.8112400  35.2590820  21.2958330   5.9666940  38.5154720  23.4040770
   6.4745160  39.0135690  24.0445790   6.4980180  37.7389920  23.2280130
  18.0677870  36.6859910  27.1070120  17.3630040  37.0741620  26.5885230
  18.3335790  37.3810200  27.7091050   4.2503040  33.1553280  27.6704190
   4.2521480  33.6725670  26.8650090   3.4207350  32.6783460  27.6474120
  10.6374130  43.2672590  19.1694090  10.0191400  43.7322040  18.6056810
  11.1497380  43.9600070  19.5863600   5.5005890  42.7948460  25.8477690
   5.1675270  43.4217380  26.4898760   5.6772570  43.3210340  25.0679360
  14.0139800  36.6093540  23.3154030  13.3095370  36.8978430  23.8957140
  14.3751960  37.4193650  22.9553590   3.9318370  34.8663240  25.6774640
   4.2735180  35.7105290  25.3828510   2.9934180  35.0146980  25.7939980
   4.7124990  44.7629260  27.6626870   5.3298990  45.4380340  27.3811320
   3.8518110  45.1717240  27.5714370  15.6302580  46.2268670  25.5781510
  14.9466100  46.8967780  25.5698180  16.1696870  46.4249320  24.8126370
  17.0826720  36.0548330  23.7063240  16.1351630  36.0887310  23.8378670
  17.4076710  36.8687280  24.0912600   7.6146260  32.3545510  22.0019230
   7.9221240  31.7992400  21.2854730   6.6846960  32.4889970  21.8192220
  13.1661320  48.0712800  24.2926690  13.1788480  47.6675090  23.4248950
  12.6136540  48.8460090  24.1888120  14.4606740  44.7929020  19.3816860
  14.3503070  43.8503350  19.5066280  14.4574990  45.1544660  20.2679620
  12.5646760  42.9742640  25.6209300  12.9815550  42.7602750  24.7862760
  13.2886580  43.2315430  26.1917920  10.0027020  40.4194340  18.7379350
   9.0756300  40.3531720  18.9667820  10.1551840  41.3574470  18.6234590
   9.9896100  36.6911340  15.7346510   9.0499770  36.8525300  15.8198970
  10.3079360  37.4097020  15.1882500  16.5108860  41.3729860  25.7125540
  15.6827490  41.4422950  25.2375670  17.1059340  41.9584170  25.2441370
  14.0324310  41.9814640  19.2414600  13.4136730  41.6434190  18.5940900
  14.0148760  41.3374400  19.9493790  13.4750870  38.1599180  26.6580410
  13.0622050  38.9852890  26.9120400  12.7426820  37.5744220  26.4656770
   5.6083660  40.9459080  21.5199080   5.2040660  40.2336330  21.0244980
   5.6946780  40.6012320  22.4087120   6.0765360  44.6326640  23.6838290
   5.7793650  44.0272110  23.0046070   7.0265180  44.6703950  23.5727650
   4.3212280  37.7202290  25.2998120   4.8726870  37.8297630  24.5251370
   4.8355790  38.0939890  26.0153350  14.1650970  48.2058510  27.3461390
  13.6881530  49.0130700  27.1534000  13.4812760  47.5536840  27.4987600
   5.1683790  44.3708330  30.3346090   4.2712320  44.5948300  30.5819490
   5.1936660  44.4943270  29.3857490  12.2089010  41.2201450  16.2487350
  12.6482290  40.3823880  16.1025170  12.9217430  41.8530850  16.3351490
   3.9955010  41.2421650  28.9103460   3.8562780  42.1144450  29.2790860
   3.1136370  40.8994460  28.7651400  10.3184390  46.1597520  20.2168590
  10.7580300  46.9021850  19.8023980  10.2571280  46.4024090  21.1407550
   5.7935360  47.1843350  31.1188610   5.7650790  47.5886300  30.2517040
   5.6300330  46.2553710  30.9560210  15.7906150  32.4744260  14.5628390
  15.4778810  32.5671090  15.4627460  16.5518620  33.0525290  14.5125820
   2.3088290  39.8404060  19.0205730   2.1885890  40.5666150  18.4087000
   1.9989180  39.0706970  18.5433640  17.7450180  47.9670450  32.4152780
  18.2209900  48.4453340  33.0941860  18.3657340  47.8987940  31.6898280
  17.1483430  45.1583300  29.5752790  17.2746490  44.9195180  28.6569970
  17.1904810  44.3267840  30.0474870  11.0100170  48.8611300  28.1447600
  11.5244840  48.7719310  28.9470030  10.1669250  49.2071000  28.4375510
  12.9854570  49.1466640  17.5731600  12.8255710  48.8569580  18.4713430
  12.8201280  48.3706770  17.0376830   5.4642950  48.9265170  19.3503220
   5.2885430  48.0100710  19.1371020   4.6098690  49.2852460  19.5901020
  12.6880700  46.6554200  16.1329600  11.9945860  46.6531490  15.4731880
  13.4303560  46.2313520  15.7023770  12.2530630  48.2816910  20.2078090
  12.7087580  47.5006290  20.5216710  12.5923150  48.9923730  20.7519270
  17.0007440  37.2115760  30.5402530  16.3851710  37.7195430  30.0117990
  16.6803860  36.3114090  30.4828470   4.7751950  33.1839130  22.4029400
   4.3320100  33.9648670  22.0713920   5.3336940  33.5069020  23.1100340
   9.0621760  36.0507650  28.0064720   8.6001130  36.2590670  28.8184660
   8.6599870  35.2367000  27.7035390  14.0626270  37.2716600  29.1361380
  13.2119860  36.9722350  29.4570450  13.9028060  37.5158610  28.2245200
  11.1575980  38.7718350  31.2360170  11.4829390  37.9382100  30.8962400
  11.9456310  39.2946870  31.3838500   7.8910770  32.8049830  17.2835230
   7.2664950  32.8009700  18.0088540   7.8040890  31.9380790  16.8871200
   6.8127850  33.7286460  24.2619000   7.1100180  34.6349290  24.1811020
   7.3613410  33.2405240  23.6478570   4.5666170  38.3072700  20.1310650
   4.3407090  38.0909870  21.0357270   3.7858700  38.7401160  19.7856620
  11.7963930  38.3136070  18.7301300  11.1972820  39.0371870  18.5464920
  12.3443540  38.2512850  17.9477750   7.0065380  39.2058280  30.7970920
   6.9108980  38.2653010  30.6471320   7.8497360  39.4273350  30.4018990
  10.4028800  36.9499610  20.7604580  10.7958370  37.2671810  19.9473270
  10.7645650  36.0711490  20.8749100   8.7120970  35.7006920  32.0201440
   8.0219290  35.5079120  32.6547530   9.4553270  35.9841560  32.5525740
  10.9883940  39.5405360  24.8555360  10.2565060  40.0492170  25.2045460
  10.5908280  38.7235340  24.5544140   7.4261330  36.2159560  23.2607850
   7.4297390  35.7749510  22.4112390   8.3212450  36.5376890  23.3679670
   3.2763710  36.0986050  22.2202060   2.9363760  36.5761280  22.9769110
   2.5141030  35.6451170  21.8603160   7.4881480  37.2171640  16.2514610
   7.6094300  37.1758120  17.2000430   7.1029990  38.0795790  16.0961340
  11.4509850  34.9939040  24.2678300  11.4682590  35.4447690  25.1120150
  11.2025430  34.0944680  24.4811740   6.5002980  39.5272780  15.6497910
   5.9319880  39.0791030  15.0233820   7.2091980  39.8865560  15.1163060
  14.8780600  32.4071220  30.1064680  15.2026370  31.6760880  30.6322660
  14.9137110  32.0884860  29.2045670   7.7269300  40.2761340  25.0073260
   8.0939430  39.8019910  25.7534600   7.5374360  41.1502910  25.3481600
   5.5168670  39.3169980  27.3257470   5.2125740  40.1961960  27.5507830
   6.4715130  39.3769770  27.3614910   4.0450460  43.5230970  17.9224320
   3.2712720  42.9828590  17.7623040   4.7745090  43.0037580  17.5842080
  14.8038440  42.5196330  23.7150710  15.5237560  43.0151620  23.3246820
  14.6020260  41.8414220  23.0704580  10.2648380  33.9134290  17.8580100
   9.4512990  33.4147460  17.7825410  10.0710330  34.7532540  17.4416450
  10.1857240  42.5905390  29.6019710  10.1194550  41.6701060  29.3477300
   9.5562380  42.6880830  30.3164350  12.9796770  38.2853940  16.1542260
  13.8676390  38.5971170  15.9793600  12.9501860  37.4126190  15.7622840
   4.0887860  43.1911350  21.5603130   4.6066530  42.3879610  21.5060020
   3.6371880  43.1290490  22.4019960   8.9757360  44.4577630  16.8330430
   9.3173060  45.2019860  16.3373750   8.1470070  44.7708750  17.1955260
   4.7745520  40.6156960  31.3568380   4.4745660  40.7614140  30.4596200
   5.5456760  40.0562250  31.2641770  10.1173970  45.4125960  29.3523510
  10.1318510  44.4806920  29.1342420   9.4099070  45.4985720  29.9913280
  15.2511040  39.5965780  15.6222120  15.1674760  40.0280000  14.7718560
  15.9705230  40.0564130  16.0548940  16.3285180  42.0533300  28.6992090
  15.6033370  42.6462080  28.5021480  16.8560640  42.0456840  27.9005460
  16.2798290  46.4508040  18.3504250  15.6374450  45.7963660  18.6247970
  15.8928950  46.8563130  17.5744920  11.8584770  43.7793470  22.1975940
  12.2108590  43.1821600  21.5377310  10.9747100  43.4537700  22.3684190
   7.9448050  44.5391160  19.6046350   8.6319180  45.0860370  19.9853940
   7.1580470  45.0831890  19.6395960   7.2475260  41.5437190  19.2171710
   7.7038040  42.3542440  19.4431900   6.8963470  41.2260330  20.0490200
   9.5507870  47.0543530  26.4464010  10.1950090  47.2602910  27.1237430
   9.9137310  46.2931930  25.9934860   3.1487040  31.8874840  19.6894230
   3.0201670  31.8792740  20.6379150   2.3249060  32.2257930  19.3385240
  10.8239950  45.0575880  25.1641460  11.4662180  44.3569040  25.2773630
  11.3489300  45.8374320  24.9838350  14.6695670  45.3424500  14.8880600
  14.4433250  44.6254940  15.4805240  14.2791870  45.0936940  14.0502350
  12.5977570  45.8570780  28.3677520  12.9333810  46.4437470  29.0455440
  11.6777910  45.7263490  28.5975310  14.2511920  43.2596440  16.5494760
  13.9633620  43.7209130  17.3372640  15.0464090  42.7994210  16.8178980
   8.4266150  45.9062110  31.5365580   8.1063020  45.1871350  32.0811270
   7.7524510  46.5817180  31.6101640   6.4680320  46.7522560  16.4798730
   6.4590420  47.4852250  15.8643240   5.5478680  46.5054140  16.5725690
  11.6419750  36.1388270  26.9002380  12.0100570  35.3183480  27.2281950
  10.7817950  36.1990160  27.3158030  15.0081780  35.0945210  17.7089940
  14.3794940  35.1990880  16.9948170  14.5133700  35.3141990  18.4983820
   9.4539920  46.8150800  15.1423920   9.5551900  46.6114790  14.2125900
   8.5541660  46.5609080  15.3471700   6.9765810  37.3731160  19.1247820
   6.2681960  37.8417500  19.5661430   7.2610290  36.7153170  19.7593010
   8.6021740  38.7927860  27.1240350   9.1006990  39.2673680  27.7892200
   8.7444690  37.8691380  27.3310380  11.0081240  34.0981820  20.5643610
  10.8849020  34.1167950  19.6153120  11.9565800  34.1460760  20.6842010
   8.0958030  49.3337120  19.8371590   8.3499530  49.2958510  18.9150960
   7.1470510  49.2070450  19.8299840   5.1800830  35.6816240  16.4998530
   6.0291360  36.1186390  16.4338720   4.8132100  35.9936500  17.3270590
  15.8088600  35.0095820  27.9668740  15.3062200  35.7501220  28.3062550
  16.6245260  35.3979820  27.6505530  14.1010610  40.2529000  21.4130100
  13.1600750  40.2679230  21.5877790  14.4154680  39.4664960  21.8590400
   4.0792250  41.9348600  14.9734060   4.8455520  41.8229960  15.5359490
   4.1566940  41.2386570  14.3210830   2.7739010  39.3673670  15.6566950
   2.8542600  38.4201180  15.7684350   3.6658760  39.6980550  15.7627610
  16.1036190  47.4237850  23.0884360  16.2283610  48.2469020  23.5608170
  16.9701750  47.2128580  22.7408510   3.5753720  49.5169060  22.7601490
   4.3116200  48.9684520  23.0310060   3.9594640  50.3825070  22.6207480
   2.5812000  48.7015130  31.9487070   3.3824730  49.0227180  32.3622470
   2.0663820  48.3410710  32.6706980   6.6856030  48.6899370  14.5827060
   7.4784640  48.9788200  14.1308850   6.1660380  48.2591540  13.9039540
  11.4176630  44.8095000  31.8962480  10.8114790  44.8326600  31.1558230
  11.1130740  44.0778040  32.4329730  12.8477000  48.5375290  30.5071890
  13.7998750  48.4533310  30.4572130  12.7005220  49.2017000  31.1805680
  15.7386200  47.9169500  16.0063800  15.4527710  47.5034640  15.1917980
  15.5405750  48.8457210  15.8864320   7.2033430  43.9102780  14.4469410
   7.0984070  43.2955130  15.1730790   7.0357650  43.3868670  13.6632420
   7.3547750  42.5959580  30.4258640   6.5893420  43.1644580  30.3413310
   7.5363710  42.3035790  29.5326870  10.4436160  42.9722810  15.0511400
   9.8946260  43.4192110  15.6954140  11.0655420  42.4672060  15.5749070
  14.4971100  44.3264910  30.9833660  15.2380570  44.6640670  30.4801120
  13.7343780  44.4956970  30.4303430   2.3332890  39.3318180  31.7873190
   2.3738230  39.0332050  32.6958420   3.1878390  39.7325790  31.6280710
   6.1111280  41.9313730  16.9476700   6.5327700  41.7653600  17.7908090
   6.2362120  41.1213960  16.4531840   4.2738700  37.9110280  29.7547680
   3.7435160  37.4201230  29.1271020   4.9426770  38.3394480  29.2205610
   8.6238920  40.9551340  14.1953800   9.1444580  40.2400360  13.8294950
   9.2707320  41.5937210  14.4954310  13.1716760  42.3779740  29.5188870
  13.5857780  42.5324820  30.3679290  12.2367760  42.5034960  29.6814650
  13.6438930  39.7175900  31.5228020  14.2259700  38.9628220  31.4348500
  13.8200700  40.2483340  30.7459500   4.7611000  34.8772650  29.8344970
   4.6667870  34.2593400  29.1095840   4.1808390  35.6038940  29.6074880
   7.5272440  33.4345890  26.8672360   7.0789740  33.4570150  26.0217910
   6.8937640  33.0364910  27.4642660   7.9331990  42.3300220  27.4884800
   8.3520100  43.1732950  27.3161040   7.0140620  42.4672260  27.2591580
  10.2695890  40.0616400  28.8722640  10.3892100  39.4657540  29.6117480
  11.1289890  40.0986090  28.4523940  12.6083790  40.6153590  27.4485150
  12.0819010  41.1396210  26.8450290  12.9515130  41.2480980  28.0794880
   5.0070180  38.0046960  13.8934860   4.8059240  37.1414320  14.2548200
   4.8362230  37.9180320  12.9556460   5.7839410  48.6353230  28.6042530
   5.2460500  49.3599290  28.2851230   6.0373370  48.1583570  27.8139870
   7.0364660  36.6037750  30.1298460   7.6264350  36.2953600  30.8176280
   6.2184900  36.1317500  30.2858360  11.8558090  36.2203560  30.3631480
  11.1673610  35.5585100  30.2981470  12.5764110  35.7741830  30.8079940
  12.4858490  32.8155190  16.4221740  12.7660780  31.9723090  16.7781160
  11.7124220  33.0478300  16.9360490   3.8052980  35.1047580  13.8812740
   4.1078880  35.1115010  12.9731890   4.5447570  34.7545440  14.3780400
   8.6401620  49.8704440  28.8629180   8.5660320  50.7739580  29.1701550
   7.7380460  49.5516340  28.8351250   7.0237910  34.0482200  14.8668940
   6.6759910  33.3706190  14.2871390   7.2250680  33.5871710  15.6812330
   9.1886950  49.0362950  16.4855540  10.0837740  49.3747920  16.5074300
   9.2204580  48.3142360  15.8579820   2.8283110  44.4090000  14.7142540
   3.2657980  44.9519670  15.3700120   3.3130840  43.5836950  14.7238880
   4.6390830  45.5288040  19.8264770   4.3386370  45.4053010  20.7268680
   4.5328320  44.6696630  19.4180500  16.1681300  47.5666620  29.1921740
  15.5683290  47.6259180  28.4485660  16.2975200  46.6271600  29.3218590
  17.4082750  45.3084440  14.5291450  16.5775710  45.3761090  14.9998680
  17.5854580  46.1988560  14.2258310  16.8639210  42.0531920  17.0325650
  17.6258120  42.6228570  17.1385340  16.8793580  41.4859120  17.8033960
  17.8699180  42.9082020  21.8767580  18.2408010  42.1249340  21.4703550
  18.5101110  43.5971120  21.6984880  14.8532940  44.2918600  27.2897900
  14.0392780  44.7215760  27.5523690  15.2607140  44.9037010  26.6766950
  16.9158380  42.3466290  14.1898170  17.1907220  43.2545170  14.0617390
  16.7269120  42.2828820  15.1260160  13.3133990  35.3711140  15.4851800
  13.7318870  35.1842120  14.6448460  13.0070050  34.5190190  15.7954730
  16.8123720  40.2835280  19.1827600  16.4367320  39.5163210  18.7508890
  16.0826840  40.6657980  19.6702530  16.2023340  39.4306800  28.8167120
  15.9709430  39.2019550  27.9165070  16.4627890  40.3506350  28.7712010
  14.6411410  34.6563230  31.5946820  15.5181590  34.6646630  31.9780820
  14.6532250  33.9194070  30.9839170  16.0874680  38.5092770  22.4834840
  16.6112160  38.0155420  21.8525010  16.6734100  38.6443130  23.2282410
  16.2664400  38.5932640  26.0054390  15.3167110  38.5596180  26.1199380
  16.4477410  39.5032750  25.7704160   1.7683000  32.8973650  14.1555670
   2.4911130  33.4382590  14.4736890   2.0407520  32.6237070  13.2797210
  15.5774650  37.7666120  18.4227250  16.0733770  37.5336990  19.2076130
  15.3790720  36.9277960  18.0064890  17.0061810  36.4027070  20.9564930
  16.8961090  36.2483110  21.8947200  17.7669400  35.8748010  20.7140340
  15.3527530  32.3421200  27.4147930  15.9899750  32.9555340  27.7807120
  15.5002420  32.3781860  26.4697160  17.8952080  34.2334990  14.1971070
  18.8201390  34.1016170  13.9889360  17.8727870  34.3127810  15.1507520
  17.9690570  35.0045650  16.8227780  17.1742070  34.9390770  17.3520690
  18.1733850  35.9396290  16.8113130  14.9108990  49.0437200  20.8166170
  15.5068060  48.7221770  20.1400590  15.1687140  48.5709020  21.6079440
   2.8171560  45.4755110  30.9656800   2.7741190  45.1048020  31.8471260
   2.9482570  46.4132680  31.1058620   6.5177590  47.0314700  26.5666520
   6.2768950  47.2989260  25.6797040   7.4580230  47.2020430  26.6217380
   8.7232010  33.4947390  30.3223030   8.6620900  34.0869220  31.0718440
   9.6632390  33.3873350  30.1773290  11.3606570  33.1517450  29.9615320
  11.9746980  33.4696740  29.2996400  11.9056130  32.6666040  30.5811180
  17.7781750  49.0509080  27.3677160  17.2840030  49.4477950  26.6504290
  17.1695040  48.4258290  27.7614440   1.8827830  31.8311710  30.0754380
   2.4310820  31.6499760  29.3120490   1.9483140  31.0405820  30.6110690
   2.6559590  48.4217360  28.0854580   2.0619910  48.2902060  28.8244620
   2.6483430  47.5855500  27.6196680  12.1014610  31.7149590  26.2884610
  11.2274450  32.0484700  26.0857540  11.9925360  31.2422770  27.1136480
  13.0086590  33.9220460  27.6726330  12.6799950  33.1072220  27.2928060
  13.9568890  33.8790270  27.5492020  15.4621200  49.6932500  24.6463900
  15.0024170  50.4448310  24.2721920  14.8333660  48.9738970  24.5878700
   5.8916920  48.0020740  23.8212030   6.4081940  47.3908100  23.2960290
   6.5414300  48.5049520  24.3123040   8.6312420  48.8929230  24.6481010
   8.9190230  48.6383530  23.7714020   9.1435640  48.3406590  25.2386580
   9.8489430  32.6319430  25.2277520   9.0661220  33.1064930  25.5074280
   9.5552360  31.7274260  25.1190700  14.4010500  33.3342530  23.2726610
  14.8418590  33.2787630  22.4248210  14.1318090  34.2500540  23.3436790
  16.2649070  32.9657770  21.2835430  16.2037470  32.0218990  21.1366450
  17.0441100  33.0737860  21.8288890   7.7343650  35.0506180  20.7393550
   6.9218160  34.6763070  20.3989430   8.2385290  34.2951260  21.0414740
  12.2368630  31.7148630  21.9776620  12.8398000  32.2868840  22.4525140
  11.4961620  32.2788070  21.7550520  15.3803230  32.1170190  17.2516900
  15.5753860  33.0153640  17.5184330  14.5933100  31.8857270  17.7449850
   3.5654990  33.4630960  16.2893210   4.0947750  32.6760760  16.1601160
   4.1983310  34.1422150  16.5228740   5.7592830  33.2006100  19.3438600
   5.1295570  32.4993410  19.5108730   5.2197970  33.9610230  19.1271760
   8.6984780  49.8145330  32.0149210   9.6252090  49.5789600  32.0585170
   8.6835210  50.6417330  31.5335240  16.9329840  49.3570900  19.0123460
  17.1082030  48.6708640  18.3684380  16.2351410  49.8817950  18.6200130
   5.8848390  32.4790080  31.7791090   5.6032660  32.9823680  31.0151910
   6.2668090  31.6811830  31.4133220   4.7757490  49.7465740  16.5658770
   5.5076310  49.4625020  16.0182660   5.0351160  49.5079020  17.4558150
   3.9372280  45.8630470  16.5705100   3.3081160  46.3315570  17.1190930
   4.0520110  45.0179690  17.0051290  12.4863850  31.8943660  32.3571560
  12.3729300  32.2138270  33.2523080  13.3033590  32.2956170  32.0608840
  15.2662340  49.0415190  31.8390250  16.0587660  48.5464420  31.6316210
  15.5595490  49.7205330  32.4465860  11.3922000  39.9136130   2.7206300
  11.3116050  38.9990740   2.4498010  10.9786420  40.4103200   2.0146010
   9.5240040  41.6915150   4.6015570   8.7482140  41.2115590   4.8914140
  10.1752970  41.0120800   4.4271730   3.5405870  42.0034960   5.4791330
   2.7090750  41.7483670   5.8787840   4.1486850  42.0745730   6.2149250
  13.5447470  46.0975340   3.3814700  13.0829000  45.3262580   3.7101870
  14.3573020  46.1241410   3.8867150   3.5207130  46.0375050   5.6749350
   3.8235170  45.1472790   5.4959570   4.2650720  46.5945270   5.4471600
   9.7710780  48.3833350   3.0018690   9.1522220  48.8390850   2.4313130
  10.6262560  48.5384810   2.6008390   8.9649030  44.3672340   4.6085730
   8.8957310  43.4262280   4.4474860   9.7268890  44.4573750   5.1808300
   9.9954200  37.1742720   4.8354660  10.3719020  36.3014600   4.7228330
   9.8973710  37.5101420   3.9445100  13.7778320  34.6693160   1.7683000
  14.5987940  34.1789730   1.8108480  13.8112400  35.2590820   2.5214840
   5.9666940  38.5154720   4.6297280   6.4745160  39.0135690   5.2702300
   6.4980180  37.7389920   4.4536640  18.0677870  36.6859910   8.3326630
  17.3630040  37.0741620   7.8141740  18.3335790  37.3810200   8.9347560
   4.2503040  33.1553280   8.8960700   4.2521480  33.6725670   8.0906600
   3.4207350  32.6783460   8.8730630   5.5005890  42.7948460   7.0734200
   5.1675270  43.4217380   7.7155270   5.6772570  43.3210340   6.2935870
  14.0139800  36.6093540   4.5410540  13.3095370  36.8978430   5.1213650
  14.3751960  37.4193650   4.1810100   3.9318370  34.8663240   6.9031150
   4.2735180  35.7105290   6.6085020   2.9934180  35.0146980   7.0196490
   4.7124990  44.7629260   8.8883380   5.3298990  45.4380340   8.6067830
   3.8518110  45.1717240   8.7970880  15.6302580  46.2268670   6.8038020
  14.9466100  46.8967780   6.7954690  16.1696870  46.4249320   6.0382880
  17.0826720  36.0548330   4.9319750  16.1351630  36.0887310   5.0635180
  17.4076710  36.8687280   5.3169110   7.6146260  32.3545510   3.2275740
   7.9221240  31.7992400   2.5111240   6.6846960  32.4889970   3.0448730
  13.1661320  48.0712800   5.5183200  13.1788480  47.6675090   4.6505460
  12.6136540  48.8460090   5.4144630  12.5646760  42.9742640   6.8465810
  12.9815550  42.7602750   6.0119270  13.2886580  43.2315430   7.4174430
  16.5108860  41.3729860   6.9382050  15.6827490  41.4422950   6.4632180
  17.1059340  41.9584170   6.4697880  13.4750870  38.1599180   7.8836920
  13.0622050  38.9852890   8.1376910  12.7426820  37.5744220   7.6913280
   5.6083660  40.9459080   2.7455590   5.2040660  40.2336330   2.2501490
   5.6946780  40.6012320   3.6343630   6.0765360  44.6326640   4.9094800
   5.7793650  44.0272110   4.2302580   7.0265180  44.6703950   4.7984160
   4.3212280  37.7202290   6.5254630   4.8726870  37.8297630   5.7507880
   4.8355790  38.0939890   7.2409860  14.1650970  48.2058510   8.5717900
  13.6881530  49.0130700   8.3790510  13.4812760  47.5536840   8.7244110
   5.1683790  44.3708330  11.5602600   4.2712320  44.5948300  11.8076000
   5.1936660  44.4943270  10.6114000   3.9955010  41.2421650  10.1359970
   3.8562780  42.1144450  10.5047370   3.1136370  40.8994460   9.9907910
   5.7935360  47.1843350  12.3445120   5.7650790  47.5886300  11.4773550
   5.6300330  46.2553710  12.1816720  17.7450180  47.9670450  13.6409290
  18.2209900  48.4453340  14.3198370  18.3657340  47.8987940  12.9154790
  17.1483430  45.1583300  10.8009300  17.2746490  44.9195180   9.8826480
  17.1904810  44.3267840  11.2731380  11.0100170  48.8611300   9.3704110
  11.5244840  48.7719310  10.1726540  10.1669250  49.2071000   9.6632020
  17.0007440  37.2115760  11.7659040  16.3851710  37.7195430  11.2374500
  16.6803860  36.3114090  11.7084980   4.7751950  33.1839130   3.6285910
   4.3320100  33.9648670   3.2970430   5.3336940  33.5069020   4.3356850
   9.0621760  36.0507650   9.2321230   8.6001130  36.2590670  10.0441170
   8.6599870  35.2367000   8.9291900  14.0626270  37.2716600  10.3617890
  13.2119860  36.9722350  10.6826960  13.9028060  37.5158610   9.4501710
  11.1575980  38.7718350  12.4616680  11.4829390  37.9382100  12.1218910
  11.9456310  39.2946870  12.6095010   6.8127850  33.7286460   5.4875510
   7.1100180  34.6349290   5.4067530   7.3613410  33.2405240   4.8735080
   7.0065380  39.2058280  12.0227430   6.9108980  38.2653010  11.8727830
   7.8497360  39.4273350  11.6275500   8.7120970  35.7006920  13.2457950
   8.0219290  35.5079120  13.8804040   9.4553270  35.9841560  13.7782250
  10.9883940  39.5405360   6.0811870  10.2565060  40.0492170   6.4301970
  10.5908280  38.7235340   5.7800650   7.4261330  36.2159560   4.4864360
   7.4297390  35.7749510   3.6368900   8.3212450  36.5376890   4.5936180
   3.2763710  36.0986050   3.4458570   2.9363760  36.5761280   4.2025620
   2.5141030  35.6451170   3.0859670  11.4509850  34.9939040   5.4934810
  11.4682590  35.4447690   6.3376660  11.2025430  34.0944680   5.7068250
  14.8780600  32.4071220  11.3321190  15.2026370  31.6760880  11.8579170
  14.9137110  32.0884860  10.4302180   7.7269300  40.2761340   6.2329770
   8.0939430  39.8019910   6.9791110   7.5374360  41.1502910   6.5738110
   5.5168670  39.3169980   8.5513980   5.2125740  40.1961960   8.7764340
   6.4715130  39.3769770   8.5871420  14.8038440  42.5196330   4.9407220
  15.5237560  43.0151620   4.5503330  14.6020260  41.8414220   4.2961090
  10.1857240  42.5905390  10.8276220  10.1194550  41.6701060  10.5733810
   9.5562380  42.6880830  11.5420860   4.0887860  43.1911350   2.7859640
   4.6066530  42.3879610   2.7316530   3.6371880  43.1290490   3.6276470
   4.7745520  40.6156960  12.5824890   4.4745660  40.7614140  11.6852710
   5.5456760  40.0562250  12.4898280  10.1173970  45.4125960  10.5780020
  10.1318510  44.4806920  10.3598930   9.4099070  45.4985720  11.2169790
  16.3285180  42.0533300   9.9248600  15.6033370  42.6462080   9.7277990
  16.8560640  42.0456840   9.1261970  11.8584770  43.7793470   3.4232450
  12.2108590  43.1821600   2.7633820  10.9747100  43.4537700   3.5940700
   9.5507870  47.0543530   7.6720520  10.1950090  47.2602910   8.3493940
   9.9137310  46.2931930   7.2191370  10.8239950  45.0575880   6.3897970
  11.4662180  44.3569040   6.5030140  11.3489300  45.8374320   6.2094860
  12.5977570  45.8570780   9.5934030  12.9333810  46.4437470  10.2711950
  11.6777910  45.7263490   9.8231820   8.4266150  45.9062110  12.7622090
   8.1063020  45.1871350  13.3067780   7.7524510  46.5817180  12.8358150
  11.6419750  36.1388270   8.1258890  12.0100570  35.3183480   8.4538460
  10.7817950  36.1990160   8.5414540   8.6021740  38.7927860   8.3496860
   9.1006990  39.2673680   9.0148710   8.7444690  37.8691380   8.5566890
  15.8088600  35.0095820   9.1925250  15.3062200  35.7501220   9.5319060
  16.6245260  35.3979820   8.8762040  14.1010610  40.2529000   2.6386610
  13.1600750  40.2679230   2.8134300  14.4154680  39.4664960   3.0846910
  16.1036190  47.4237850   4.3140870  16.2283610  48.2469020   4.7864680
  16.9701750  47.2128580   3.9665020   3.5753720  49.5169060   3.9858000
   4.3116200  48.9684520   4.2566570   3.9594640  50.3825070   3.8463990
   2.5812000  48.7015130  13.1743580   3.3824730  49.0227180  13.5878980
   2.0663820  48.3410710  13.8963490  11.4176630  44.8095000  13.1218990
  10.8114790  44.8326600  12.3814740  11.1130740  44.0778040  13.6586240
  12.8477000  48.5375290  11.7328400  13.7998750  48.4533310  11.6828640
  12.7005220  49.2017000  12.4062190   7.3547750  42.5959580  11.6515150
   6.5893420  43.1644580  11.5669820   7.5363710  42.3035790  10.7583380
  14.4971100  44.3264910  12.2090170  15.2380570  44.6640670  11.7057630
  13.7343780  44.4956970  11.6559940   2.3332890  39.3318180  13.0129700
   2.3738230  39.0332050  13.9214930   3.1878390  39.7325790  12.8537220
   4.2738700  37.9110280  10.9804190   3.7435160  37.4201230  10.3527530
   4.9426770  38.3394480  10.4462120  13.1716760  42.3779740  10.7445380
  13.5857780  42.5324820  11.5935800  12.2367760  42.5034960  10.9071160
  13.6438930  39.7175900  12.7484530  14.2259700  38.9628220  12.6605010
  13.8200700  40.2483340  11.9716010   4.7611000  34.8772650  11.0601480
   4.6667870  34.2593400  10.3352350   4.1808390  35.6038940  10.8331390
   7.5272440  33.4345890   8.0928870   7.0789740  33.4570150   7.2474420
   6.8937640  33.0364910   8.6899170   7.9331990  42.3300220   8.7141310
   8.3520100  43.1732950   8.5417550   7.0140620  42.4672260   8.4848090
  10.2695890  40.0616400  10.0979150  10.3892100  39.4657540  10.8373990
  11.1289890  40.0986090   9.6780450  12.6083790  40.6153590   8.6741660
  12.0819010  41.1396210   8.0706800  12.9515130  41.2480980   9.3051390
   5.7839410  48.6353230   9.8299040   5.2460500  49.3599290   9.5107740
   6.0373370  48.1583570   9.0396380   7.0364660  36.6037750  11.3554970
   7.6264350  36.2953600  12.0432790   6.2184900  36.1317500  11.5114870
  11.8558090  36.2203560  11.5887990  11.1673610  35.5585100  11.5237980
  12.5764110  35.7741830  12.0336450   8.6401620  49.8704440  10.0885690
   8.5660320  50.7739580  10.3958060   7.7380460  49.5516340  10.0607760
  16.1681300  47.5666620  10.4178250  15.5683290  47.6259180   9.6742170
  16.2975200  46.6271600  10.5475100  17.8699180  42.9082020   3.1024090
  18.2408010  42.1249340   2.6960060  18.5101110  43.5971120   2.9241390
  14.8532940  44.2918600   8.5154410  14.0392780  44.7215760   8.7780200
  15.2607140  44.9037010   7.9023460  16.2023340  39.4306800  10.0423630
  15.9709430  39.2019550   9.1421580  16.4627890  40.3506350   9.9968520
  14.6411410  34.6563230  12.8203330  15.5181590  34.6646630  13.2037330
  14.6532250  33.9194070  12.2095680  16.0874680  38.5092770   3.7091350
  16.6112160  38.0155420   3.0781520  16.6734100  38.6443130   4.4538920
  16.2664400  38.5932640   7.2310900  15.3167110  38.5596180   7.3455890
  16.4477410  39.5032750   6.9960670  17.0061810  36.4027070   2.1821440
  16.8961090  36.2483110   3.1203710  17.7669400  35.8748010   1.9396850
  15.3527530  32.3421200   8.6404440  15.9899750  32.9555340   9.0063630
  15.5002420  32.3781860   7.6953670   2.8171560  45.4755110  12.1913310
   2.7741190  45.1048020  13.0727770   2.9482570  46.4132680  12.3315130
   6.5177590  47.0314700   7.7923030   6.2768950  47.2989260   6.9053550
   7.4580230  47.2020430   7.8473890   8.7232010  33.4947390  11.5479540
   8.6620900  34.0869220  12.2974950   9.6632390  33.3873350  11.4029800
  11.3606570  33.1517450  11.1871830  11.9746980  33.4696740  10.5252910
  11.9056130  32.6666040  11.8067690  17.7781750  49.0509080   8.5933670
  17.2840030  49.4477950   7.8760800  17.1695040  48.4258290   8.9870950
   1.8827830  31.8311710  11.3010890   2.4310820  31.6499760  10.5377000
   1.9483140  31.0405820  11.8367200   2.6559590  48.4217360   9.3111090
   2.0619910  48.2902060  10.0501130   2.6483430  47.5855500   8.8453190
  12.1014610  31.7149590   7.5141120  11.2274450  32.0484700   7.3114050
  11.9925360  31.2422770   8.3392990  13.0086590  33.9220460   8.8982840
  12.6799950  33.1072220   8.5184570  13.9568890  33.8790270   8.7748530
  15.4621200  49.6932500   5.8720410  15.0024170  50.4448310   5.4978430
  14.8333660  48.9738970   5.8135210   5.8916920  48.0020740   5.0468540
   6.4081940  47.3908100   4.5216800   6.5414300  48.5049520   5.5379550
   8.6312420  48.8929230   5.8737520   8.9190230  48.6383530   4.9970530
   9.1435640  48.3406590   6.4643090   9.8489430  32.6319430   6.4534030
   9.0661220  33.1064930   6.7330790   9.5552360  31.7274260   6.3447210
  14.4010500  33.3342530   4.4983120  14.8418590  33.2787630   3.6504720
  14.1318090  34.2500540   4.5693300  16.2649070  32.9657770   2.5091940
  16.2037470  32.0218990   2.3622960  17.0441100  33.0737860   3.0545400
   7.7343650  35.0506180   1.9650060   6.9218160  34.6763070   1.6245940
   8.2385290  34.2951260   2.2671250  12.2368630  31.7148630   3.2033130
  12.8398000  32.2868840   3.6781650  11.4961620  32.2788070   2.9807030
   8.6984780  49.8145330  13.2405720   9.6252090  49.5789600  13.2841680
   8.6835210  50.6417330  12.7591750   5.8848390  32.4790080  13.0047600
   5.6032660  32.9823680  12.2408420   6.2668090  31.6811830  12.6389730
  12.4863850  31.8943660  13.5828070  12.3729300  32.2138270  14.4779590
  13.3033590  32.2956170  13.2865350  15.2662340  49.0415190  13.0646760
  16.0587660  48.5464420  12.8572720  15.5595490  49.7205330  13.6722370
  11.3922000  21.1392640  59.0436770  11.3116050  20.2247250  58.7728480
  10.9786420  21.6359710  58.3376480   9.5240040  22.9171660  60.9246040
   8.7482140  22.4372100  61.2144610  10.1752970  22.2377310  60.7502200
   3.5405870  23.2291470  61.8021800   2.7090750  22.9740180  62.2018310
   4.1486850  23.3002240  62.5379720  13.5447470  27.3231850  59.7045170
  13.0829000  26.5519090  60.0332340  14.3573020  27.3497920  60.2097620
   3.5207130  27.2631560  61.9979820   3.8235170  26.3729300  61.8190040
   4.2650720  27.8201780  61.7702070   9.7710780  29.6089860  59.3249160
   9.1522220  30.0647360  58.7543600  10.6262560  29.7641320  58.9238860
   8.9649030  25.5928850  60.9316200   8.8957310  24.6518790  60.7705330
   9.7268890  25.6830260  61.5038770   9.9954200  18.3999230  61.1585130
  10.3719020  17.5271110  61.0458800   9.8973710  18.7357930  60.2675570
   4.1259210  16.7724860  56.6202570   4.2325960  17.6728590  56.9271330
   3.2151570  16.7242830  56.3297220  13.7778320  15.8949670  58.0913470
  14.5987940  15.4046240  58.1338950  13.8112400  16.4847330  58.8445310
   5.9666940  19.7411230  60.9527750   6.4745160  20.2392200  61.5932770
   6.4980180  18.9646430  60.7767110  10.6374130  24.4929100  56.7181070
  10.0191400  24.9578550  56.1543790  11.1497380  25.1856580  57.1350580
  14.0139800  17.8350050  60.8641010  13.3095370  18.1234940  61.4444120
  14.3751960  18.6450160  60.5040570   3.9318370  16.0919750  63.2261620
   4.2735180  16.9361800  62.9315490   2.9934180  16.2403490  63.3426960
  15.6302580  27.4525180  63.1268490  14.9466100  28.1224290  63.1185160
  16.1696870  27.6505830  62.3613350  17.0826720  17.2804840  61.2550220
  16.1351630  17.3143820  61.3865650  17.4076710  18.0943790  61.6399580
   7.6146260  13.5802020  59.5506210   7.9221240  13.0248910  58.8341710
   6.6846960  13.7146480  59.3679200  13.1661320  29.2969310  61.8413670
  13.1788480  28.8931600  60.9735930  12.6136540  30.0716600  61.7375100
  14.4606740  26.0185530  56.9303840  14.3503070  25.0759860  57.0553260
  14.4574990  26.3801170  57.8166600  10.0027020  21.6450850  56.2866330
   9.0756300  21.5788230  56.5154800  10.1551840  22.5830980  56.1721570
   9.9896100  17.9167850  53.2833490   9.0499770  18.0781810  53.3685950
  10.3079360  18.6353530  52.7369480  16.5108860  22.5986370  63.2612520
  15.6827490  22.6679460  62.7862650  17.1059340  23.1840680  62.7928350
  14.0324310  23.2071150  56.7901580  13.4136730  22.8690700  56.1427880
  14.0148760  22.5630910  57.4980770   5.6083660  22.1715590  59.0686060
   5.2040660  21.4592840  58.5731960   5.6946780  21.8268830  59.9574100
   6.0765360  25.8583150  61.2325270   5.7793650  25.2528620  60.5533050
   7.0265180  25.8960460  61.1214630  12.2089010  22.4457960  53.7974330
  12.6482290  21.6080390  53.6512150  12.9217430  23.0787360  53.8838470
  10.3184390  27.3854030  57.7655570  10.7580300  28.1278360  57.3510960
  10.2571280  27.6280600  58.6894530  15.7906150  13.7000770  52.1115370
  15.4778810  13.7927600  53.0114440  16.5518620  14.2781800  52.0612800
   2.3088290  21.0660570  56.5692710   2.1885890  21.7922660  55.9573980
   1.9989180  20.2963480  56.0920620  12.9854570  30.3723150  55.1218580
  12.8255710  30.0826090  56.0200410  12.8201280  29.5963280  54.5863810
   5.4642950  30.1521680  56.8990200   5.2885430  29.2357220  56.6858000
   4.6098690  30.5108970  57.1388000  12.6880700  27.8810710  53.6816580
  11.9945860  27.8788000  53.0218860  13.4303560  27.4570030  53.2510750
  12.2530630  29.5073420  57.7565070  12.7087580  28.7262800  58.0703690
  12.5923150  30.2180240  58.3006250   4.7751950  14.4095640  59.9516380
   4.3320100  15.1905180  59.6200900   5.3336940  14.7325530  60.6587320
   7.8910770  14.0306340  54.8322210   7.2664950  14.0266210  55.5575520
   7.8040890  13.1637300  54.4358180   6.8127850  14.9542970  61.8105980
   7.1100180  15.8605800  61.7298000   7.3613410  14.4661750  61.1965550
   4.5666170  19.5329210  57.6797630   4.3407090  19.3166380  58.5844250
   3.7858700  19.9657670  57.3343600  11.7963930  19.5392580  56.2788280
  11.1972820  20.2628380  56.0951900  12.3443540  19.4769360  55.4964730
  10.4028800  18.1756120  58.3091560  10.7958370  18.4928320  57.4960250
  10.7645650  17.2968000  58.4236080  10.9883940  20.7661870  62.4042340
  10.2565060  21.2748680  62.7532440  10.5908280  19.9491850  62.1031120
   7.4261330  17.4416070  60.8094830   7.4297390  17.0006020  59.9599370
   8.3212450  17.7633400  60.9166650   3.2763710  17.3242560  59.7689040
   2.9363760  17.8017790  60.5256090   2.5141030  16.8707680  59.4090140
   7.4881480  18.4428150  53.8001590   7.6094300  18.4014630  54.7487410
   7.1029990  19.3052300  53.6448320  11.4509850  16.2195550  61.8165280
  11.4682590  16.6704200  62.6607130  11.2025430  15.3201190  62.0298720
   6.5002980  20.7529290  53.1984890   5.9319880  20.3047540  52.5720800
   7.2091980  21.1122070  52.6650040   7.7269300  21.5017850  62.5560240
   8.0939430  21.0276420  63.3021580   7.5374360  22.3759420  62.8968580
   4.0450460  24.7487480  55.4711300   3.2712720  24.2085100  55.3110020
   4.7745090  24.2294090  55.1329060  14.8038440  23.7452840  61.2637690
  15.5237560  24.2408130  60.8733800  14.6020260  23.0670730  60.6191560
  10.2648380  15.1390800  55.4067080   9.4512990  14.6403970  55.3312390
  10.0710330  15.9789050  54.9903430  12.9796770  19.5110450  53.7029240
  13.8676390  19.8227680  53.5280580  12.9501860  18.6382700  53.3109820
   4.0887860  24.4167860  59.1090110   4.6066530  23.6136120  59.0547000
   3.6371880  24.3547000  59.9506940   8.9757360  25.6834140  54.3817410
   9.3173060  26.4276370  53.8860730   8.1470070  25.9965260  54.7442240
  15.2511040  20.8222290  53.1709100  15.1674760  21.2536510  52.3205540
  15.9705230  21.2820640  53.6035920  16.2798290  27.6764550  55.8991230
  15.6374450  27.0220170  56.1734950  15.8928950  28.0819640  55.1231900
  11.8584770  25.0049980  59.7462920  12.2108590  24.4078110  59.0864290
  10.9747100  24.6794210  59.9171170   7.9448050  25.7647670  57.1533330
   8.6319180  26.3116880  57.5340920   7.1580470  26.3088400  57.1882940
   7.2475260  22.7693700  56.7658690   7.7038040  23.5798950  56.9918880
   6.8963470  22.4516840  57.5977180   3.1487040  13.1131350  57.2381210
   3.0201670  13.1049250  58.1866130   2.3249060  13.4514440  56.8872220
  10.8239950  26.2832390  62.7128440  11.4662180  25.5825550  62.8260610
  11.3489300  27.0630830  62.5325330  14.6695670  26.5681010  52.4367580
  14.4433250  25.8511450  53.0292220  14.2791870  26.3193450  51.5989330
  14.2511920  24.4852950  54.0981740  13.9633620  24.9465640  54.8859620
  15.0464090  24.0250720  54.3665960   6.4680320  27.9779070  54.0285710
   6.4590420  28.7108760  53.4130220   5.5478680  27.7310650  54.1212670
  15.0081780  16.3201720  55.2576920  14.3794940  16.4247390  54.5435150
  14.5133700  16.5398500  56.0470800   9.4539920  28.0407310  52.6910900
   9.5551900  27.8371300  51.7612880   8.5541660  27.7865590  52.8958680
   6.9765810  18.5987670  56.6734800   6.2681960  19.0674010  57.1148410
   7.2610290  17.9409680  57.3079990  11.0081240  15.3238330  58.1130590
  10.8849020  15.3424460  57.1640100  11.9565800  15.3717270  58.2328990
   8.0958030  30.5593630  57.3858570   8.3499530  30.5215020  56.4637940
   7.1470510  30.4326960  57.3786820   5.1800830  16.9072750  54.0485510
   6.0291360  17.3442900  53.9825700   4.8132100  17.2193010  54.8757570
  14.1010610  21.4785510  58.9617080  13.1600750  21.4935740  59.1364770
  14.4154680  20.6921470  59.4077380   4.0792250  23.1605110  52.5221040
   4.8455520  23.0486470  53.0846470   4.1566940  22.4643080  51.8697810
   2.7739010  20.5930180  53.2053930   2.8542600  19.6457690  53.3171330
   3.6658760  20.9237060  53.3114590  16.1036190  28.6494360  60.6371340
  16.2283610  29.4725530  61.1095150  16.9701750  28.4385090  60.2895490
   3.5753720  30.7425570  60.3088470   4.3116200  30.1941030  60.5797040
   3.9594640  31.6081580  60.1694460   6.6856030  29.9155880  52.1314040
   7.4784640  30.2044710  51.6795830   6.1660380  29.4848050  51.4526520
  15.7386200  29.1426010  53.5550780  15.4527710  28.7291150  52.7404960
  15.5405750  30.0713720  53.4351300   7.2033430  25.1359290  51.9956390
   7.0984070  24.5211640  52.7217770   7.0357650  24.6125180  51.2119400
  10.4436160  24.1979320  52.5998380   9.8946260  24.6448620  53.2441120
  11.0655420  23.6928570  53.1236050   6.1111280  23.1570240  54.4963680
   6.5327700  22.9910110  55.3395070   6.2362120  22.3470470  54.0018820
   8.6238920  22.1807850  51.7440780   9.1444580  21.4656870  51.3781930
   9.2707320  22.8193720  52.0441290   5.0070180  19.2303470  51.4421840
   4.8059240  18.3670830  51.8035180   4.8362230  19.1436830  50.5043440
  12.4858490  14.0411700  53.9708720  12.7660780  13.1979600  54.3268140
  11.7124220  14.2734810  54.4847470   3.8052980  16.3304090  51.4299720
   4.1078880  16.3371520  50.5218870   4.5447570  15.9801950  51.9267380
   7.0237910  15.2738710  52.4155920   6.6759910  14.5962700  51.8358370
   7.2250680  14.8128220  53.2299310   9.1886950  30.2619460  54.0342520
  10.0837740  30.6004430  54.0561280   9.2204580  29.5398870  53.4066800
   2.8283110  25.6346510  52.2629520   3.2657980  26.1776180  52.9187100
   3.3130840  24.8093460  52.2725860   4.6390830  26.7544550  57.3751750
   4.3386370  26.6309520  58.2755660   4.5328320  25.8953140  56.9667480
  17.4082750  26.5340950  52.0778430  16.5775710  26.6017600  52.5485660
  17.5854580  27.4245070  51.7745290  16.8639210  23.2788430  54.5812630
  17.6258120  23.8485080  54.6872320  16.8793580  22.7115630  55.3520940
  17.8699180  24.1338530  59.4254560  18.2408010  23.3505850  59.0190530
  18.5101110  24.8227630  59.2471860  16.9158380  23.5722800  51.7385150
  17.1907220  24.4801680  51.6104370  16.7269120  23.5085330  52.6747140
  13.3133990  16.5967650  53.0338780  13.7318870  16.4098630  52.1935440
  13.0070050  15.7446700  53.3441710  16.8123720  21.5091790  56.7314580
  16.4367320  20.7419720  56.2995870  16.0826840  21.8914490  57.2189510
  16.0874680  19.7349280  60.0321820  16.6112160  19.2411930  59.4011990
  16.6734100  19.8699640  60.7769390   1.7683000  14.1230160  51.7042650
   2.4911130  14.6639100  52.0223870   2.0407520  13.8493580  50.8284190
  15.5774650  18.9922630  55.9714230  16.0733770  18.7593500  56.7563110
  15.3790720  18.1534470  55.5551870  17.0061810  17.6283580  58.5051910
  16.8961090  17.4739620  59.4434180  17.7669400  17.1004520  58.2627320
  17.8952080  15.4591500  51.7458050  18.8201390  15.3272680  51.5376340
  17.8727870  15.5384320  52.6994500  17.9690570  16.2302160  54.3714760
  17.1742070  16.1647280  54.9007670  18.1733850  17.1652800  54.3600110
  14.9108990  30.2693710  58.3653150  15.5068060  29.9478280  57.6887570
  15.1687140  29.7965530  59.1566420  15.4621200  30.9189010  62.1950880
  15.0024170  31.6704820  61.8208900  14.8333660  30.1995480  62.1365680
   5.8916920  29.2277250  61.3699010   6.4081940  28.6164610  60.8447270
   6.5414300  29.7306030  61.8610020   8.6312420  30.1185740  62.1967990
   8.9190230  29.8640040  61.3201000   9.1435640  29.5663100  62.7873560
   9.8489430  13.8575940  62.7764500   9.0661220  14.3321440  63.0561260
   9.5552360  12.9530770  62.6677680  14.4010500  14.5599040  60.8213590
  14.8418590  14.5044140  59.9735190  14.1318090  15.4757050  60.8923770
  16.2649070  14.1914280  58.8322410  16.2037470  13.2475500  58.6853430
  17.0441100  14.2994370  59.3775870   7.7343650  16.2762690  58.2880530
   6.9218160  15.9019580  57.9476410   8.2385290  15.5207770  58.5901720
  12.2368630  12.9405140  59.5263600  12.8398000  13.5125350  60.0012120
  11.4961620  13.5044580  59.3037500  15.3803230  13.3426700  54.8003880
  15.5753860  14.2410150  55.0671310  14.5933100  13.1113780  55.2936830
   3.5654990  14.6887470  53.8380190   4.0947750  13.9017270  53.7088140
   4.1983310  15.3678660  54.0715720   5.7592830  14.4262610  56.8925580
   5.1295570  13.7249920  57.0595710   5.2197970  15.1866740  56.6758740
  16.9329840  30.5827410  56.5610440  17.1082030  29.8965150  55.9171360
  16.2351410  31.1074460  56.1687110   4.7757490  30.9722250  54.1145750
   5.5076310  30.6881530  53.5669640   5.0351160  30.7335530  55.0045130
   3.9372280  27.0886980  54.1192080   3.3081160  27.5572080  54.6677910
   4.0520110  26.2436200  54.5538270  11.3922000  21.1392640  40.2693280
  11.3116050  20.2247250  39.9984990  10.9786420  21.6359710  39.5632990
   9.5240040  22.9171660  42.1502550   8.7482140  22.4372100  42.4401120
  10.1752970  22.2377310  41.9758710   3.5405870  23.2291470  43.0278310
   2.7090750  22.9740180  43.4274820   4.1486850  23.3002240  43.7636230
  13.5447470  27.3231850  40.9301680  13.0829000  26.5519090  41.2588850
  14.3573020  27.3497920  41.4354130   3.5207130  27.2631560  43.2236330
   3.8235170  26.3729300  43.0446550   4.2650720  27.8201780  42.9958580
   9.7710780  29.6089860  40.5505670   9.1522220  30.0647360  39.9800110
  10.6262560  29.7641320  40.1495370   8.9649030  25.5928850  42.1572710
   8.8957310  24.6518790  41.9961840   9.7268890  25.6830260  42.7295280
   9.9954200  18.3999230  42.3841640  10.3719020  17.5271110  42.2715310
   9.8973710  18.7357930  41.4932080   4.1259210  16.7724860  37.8459080
   4.2325960  17.6728590  38.1527840   3.2151570  16.7242830  37.5553730
  13.7778320  15.8949670  39.3169980  14.5987940  15.4046240  39.3595460
  13.8112400  16.4847330  40.0701820   5.9666940  19.7411230  42.1784260
   6.4745160  20.2392200  42.8189280   6.4980180  18.9646430  42.0023620
  18.0677870  17.9116420  45.8813610  17.3630040  18.2998130  45.3628720
  18.3335790  18.6066710  46.4834540   4.2503040  14.3809790  46.4447680
   4.2521480  14.8982180  45.6393580   3.4207350  13.9039970  46.4217610
  10.6374130  24.4929100  37.9437580  10.0191400  24.9578550  37.3800300
  11.1497380  25.1856580  38.3607090   5.5005890  24.0204970  44.6221180
   5.1675270  24.6473890  45.2642250   5.6772570  24.5466850  43.8422850
  14.0139800  17.8350050  42.0897520  13.3095370  18.1234940  42.6700630
  14.3751960  18.6450160  41.7297080   3.9318370  16.0919750  44.4518130
   4.2735180  16.9361800  44.1572000   2.9934180  16.2403490  44.5683470
   4.7124990  25.9885770  46.4370360   5.3298990  26.6636850  46.1554810
   3.8518110  26.3973750  46.3457860  15.6302580  27.4525180  44.3525000
  14.9466100  28.1224290  44.3441670  16.1696870  27.6505830  43.5869860
  17.0826720  17.2804840  42.4806730  16.1351630  17.3143820  42.6122160
  17.4076710  18.0943790  42.8656090   7.6146260  13.5802020  40.7762720
   7.9221240  13.0248910  40.0598220   6.6846960  13.7146480  40.5935710
  13.1661320  29.2969310  43.0670180  13.1788480  28.8931600  42.1992440
  12.6136540  30.0716600  42.9631610  14.4606740  26.0185530  38.1560350
  14.3503070  25.0759860  38.2809770  14.4574990  26.3801170  39.0423110
  12.5646760  24.1999150  44.3952790  12.9815550  23.9859260  43.5606250
  13.2886580  24.4571940  44.9661410  10.0027020  21.6450850  37.5122840
   9.0756300  21.5788230  37.7411310  10.1551840  22.5830980  37.3978080
   9.9896100  17.9167850  34.5090000   9.0499770  18.0781810  34.5942460
  10.3079360  18.6353530  33.9625990  16.5108860  22.5986370  44.4869030
  15.6827490  22.6679460  44.0119160  17.1059340  23.1840680  44.0184860
  14.0324310  23.2071150  38.0158090  13.4136730  22.8690700  37.3684390
  14.0148760  22.5630910  38.7237280  13.4750870  19.3855690  45.4323900
  13.0622050  20.2109400  45.6863890  12.7426820  18.8000730  45.2400260
   5.6083660  22.1715590  40.2942570   5.2040660  21.4592840  39.7988470
   5.6946780  21.8268830  41.1830610   6.0765360  25.8583150  42.4581780
   5.7793650  25.2528620  41.7789560   7.0265180  25.8960460  42.3471140
   4.3212280  18.9458800  44.0741610   4.8726870  19.0554140  43.2994860
   4.8355790  19.3196400  44.7896840  14.1650970  29.4315020  46.1204880
  13.6881530  30.2387210  45.9277490  13.4812760  28.7793350  46.2731090
   5.1683790  25.5964840  49.1089580   4.2712320  25.8204810  49.3562980
   5.1936660  25.7199780  48.1600980  12.2089010  22.4457960  35.0230840
  12.6482290  21.6080390  34.8768660  12.9217430  23.0787360  35.1094980
   3.9955010  22.4678160  47.6846950   3.8562780  23.3400960  48.0534350
   3.1136370  22.1250970  47.5394890  10.3184390  27.3854030  38.9912080
  10.7580300  28.1278360  38.5767470  10.2571280  27.6280600  39.9151040
   5.7935360  28.4099860  49.8932100   5.7650790  28.8142810  49.0260530
   5.6300330  27.4810220  49.7303700  15.7906150  13.7000770  33.3371880
  15.4778810  13.7927600  34.2370950  16.5518620  14.2781800  33.2869310
   2.3088290  21.0660570  37.7949220   2.1885890  21.7922660  37.1830490
   1.9989180  20.2963480  37.3177130  17.7450180  29.1926960  51.1896270
  18.2209900  29.6709850  51.8685350  18.3657340  29.1244450  50.4641770
  17.1483430  26.3839810  48.3496280  17.2746490  26.1451690  47.4313460
  17.1904810  25.5524350  48.8218360  11.0100170  30.0867810  46.9191090
  11.5244840  29.9975820  47.7213520  10.1669250  30.4327510  47.2119000
  12.9854570  30.3723150  36.3475090  12.8255710  30.0826090  37.2456920
  12.8201280  29.5963280  35.8120320   5.4642950  30.1521680  38.1246710
   5.2885430  29.2357220  37.9114510   4.6098690  30.5108970  38.3644510
  12.6880700  27.8810710  34.9073090  11.9945860  27.8788000  34.2475370
  13.4303560  27.4570030  34.4767260  12.2530630  29.5073420  38.9821580
  12.7087580  28.7262800  39.2960200  12.5923150  30.2180240  39.5262760
  17.0007440  18.4372270  49.3146020  16.3851710  18.9451940  48.7861480
  16.6803860  17.5370600  49.2571960   4.7751950  14.4095640  41.1772890
   4.3320100  15.1905180  40.8457410   5.3336940  14.7325530  41.8843830
   9.0621760  17.2764160  46.7808210   8.6001130  17.4847180  47.5928150
   8.6599870  16.4623510  46.4778880  14.0626270  18.4973110  47.9104870
  13.2119860  18.1978860  48.2313940  13.9028060  18.7415120  46.9988690
  11.1575980  19.9974860  50.0103660  11.4829390  19.1638610  49.6705890
  11.9456310  20.5203380  50.1581990   7.8910770  14.0306340  36.0578720
   7.2664950  14.0266210  36.7832030   7.8040890  13.1637300  35.6614690
   6.8127850  14.9542970  43.0362490   7.1100180  15.8605800  42.9554510
   7.3613410  14.4661750  42.4222060   4.5666170  19.5329210  38.9054140
   4.3407090  19.3166380  39.8100760   3.7858700  19.9657670  38.5600110
  11.7963930  19.5392580  37.5044790  11.1972820  20.2628380  37.3208410
  12.3443540  19.4769360  36.7221240   7.0065380  20.4314790  49.5714410
   6.9108980  19.4909520  49.4214810   7.8497360  20.6529860  49.1762480
  10.4028800  18.1756120  39.5348070  10.7958370  18.4928320  38.7216760
  10.7645650  17.2968000  39.6492590   8.7120970  16.9263430  50.7944930
   8.0219290  16.7335630  51.4291020   9.4553270  17.2098070  51.3269230
  10.9883940  20.7661870  43.6298850  10.2565060  21.2748680  43.9788950
  10.5908280  19.9491850  43.3287630   7.4261330  17.4416070  42.0351340
   7.4297390  17.0006020  41.1855880   8.3212450  17.7633400  42.1423160
   3.2763710  17.3242560  40.9945550   2.9363760  17.8017790  41.7512600
   2.5141030  16.8707680  40.6346650   7.4881480  18.4428150  35.0258100
   7.6094300  18.4014630  35.9743920   7.1029990  19.3052300  34.8704830
  11.4509850  16.2195550  43.0421790  11.4682590  16.6704200  43.8863640
  11.2025430  15.3201190  43.2555230   6.5002980  20.7529290  34.4241400
   5.9319880  20.3047540  33.7977310   7.2091980  21.1122070  33.8906550
  14.8780600  13.6327730  48.8808170  15.2026370  12.9017390  49.4066150
  14.9137110  13.3141370  47.9789160   7.7269300  21.5017850  43.7816750
   8.0939430  21.0276420  44.5278090   7.5374360  22.3759420  44.1225090
   5.5168670  20.5426490  46.1000960   5.2125740  21.4218470  46.3251320
   6.4715130  20.6026280  46.1358400   4.0450460  24.7487480  36.6967810
   3.2712720  24.2085100  36.5366530   4.7745090  24.2294090  36.3585570
  14.8038440  23.7452840  42.4894200  15.5237560  24.2408130  42.0990310
  14.6020260  23.0670730  41.8448070  10.2648380  15.1390800  36.6323590
   9.4512990  14.6403970  36.5568900  10.0710330  15.9789050  36.2159940
  10.1857240  23.8161900  48.3763200  10.1194550  22.8957570  48.1220790
   9.5562380  23.9137340  49.0907840  12.9796770  19.5110450  34.9285750
  13.8676390  19.8227680  34.7537090  12.9501860  18.6382700  34.5366330
   4.0887860  24.4167860  40.3346620   4.6066530  23.6136120  40.2803510
   3.6371880  24.3547000  41.1763450   8.9757360  25.6834140  35.6073920
   9.3173060  26.4276370  35.1117240   8.1470070  25.9965260  35.9698750
   4.7745520  21.8413470  50.1311870   4.4745660  21.9870650  49.2339690
   5.5456760  21.2818760  50.0385260  10.1173970  26.6382470  48.1267000
  10.1318510  25.7063430  47.9085910   9.4099070  26.7242230  48.7656770
  15.2511040  20.8222290  34.3965610  15.1674760  21.2536510  33.5462050
  15.9705230  21.2820640  34.8292430  16.3285180  23.2789810  47.4735580
  15.6033370  23.8718590  47.2764970  16.8560640  23.2713350  46.6748950
  16.2798290  27.6764550  37.1247740  15.6374450  27.0220170  37.3991460
  15.8928950  28.0819640  36.3488410  11.8584770  25.0049980  40.9719430
  12.2108590  24.4078110  40.3120800  10.9747100  24.6794210  41.1427680
   7.9448050  25.7647670  38.3789840   8.6319180  26.3116880  38.7597430
   7.1580470  26.3088400  38.4139450   7.2475260  22.7693700  37.9915200
   7.7038040  23.5798950  38.2175390   6.8963470  22.4516840  38.8233690
   9.5507870  28.2800040  45.2207500  10.1950090  28.4859420  45.8980920
   9.9137310  27.5188440  44.7678350   3.1487040  13.1131350  38.4637720
   3.0201670  13.1049250  39.4122640   2.3249060  13.4514440  38.1128730
  10.8239950  26.2832390  43.9384950  11.4662180  25.5825550  44.0517120
  11.3489300  27.0630830  43.7581840  14.6695670  26.5681010  33.6624090
  14.4433250  25.8511450  34.2548730  14.2791870  26.3193450  32.8245840
  12.5977570  27.0827290  47.1421010  12.9333810  27.6693980  47.8198930
  11.6777910  26.9520000  47.3718800  14.2511920  24.4852950  35.3238250
  13.9633620  24.9465640  36.1116130  15.0464090  24.0250720  35.5922470
   8.4266150  27.1318620  50.3109070   8.1063020  26.4127860  50.8554760
   7.7524510  27.8073690  50.3845130   6.4680320  27.9779070  35.2542220
   6.4590420  28.7108760  34.6386730   5.5478680  27.7310650  35.3469180
  11.6419750  17.3644780  45.6745870  12.0100570  16.5439990  46.0025440
  10.7817950  17.4246670  46.0901520  15.0081780  16.3201720  36.4833430
  14.3794940  16.4247390  35.7691660  14.5133700  16.5398500  37.2727310
   9.4539920  28.0407310  33.9167410   9.5551900  27.8371300  32.9869390
   8.5541660  27.7865590  34.1215190   6.9765810  18.5987670  37.8991310
   6.2681960  19.0674010  38.3404920   7.2610290  17.9409680  38.5336500
   8.6021740  20.0184370  45.8983840   9.1006990  20.4930190  46.5635690
   8.7444690  19.0947890  46.1053870  11.0081240  15.3238330  39.3387100
  10.8849020  15.3424460  38.3896610  11.9565800  15.3717270  39.4585500
   8.0958030  30.5593630  38.6115080   8.3499530  30.5215020  37.6894450
   7.1470510  30.4326960  38.6043330   5.1800830  16.9072750  35.2742020
   6.0291360  17.3442900  35.2082210   4.8132100  17.2193010  36.1014080
  15.8088600  16.2352330  46.7412230  15.3062200  16.9757730  47.0806040
  16.6245260  16.6236330  46.4249020  14.1010610  21.4785510  40.1873590
  13.1600750  21.4935740  40.3621280  14.4154680  20.6921470  40.6333890
   4.0792250  23.1605110  33.7477550   4.8455520  23.0486470  34.3102980
   4.1566940  22.4643080  33.0954320   2.7739010  20.5930180  34.4310440
   2.8542600  19.6457690  34.5427840   3.6658760  20.9237060  34.5371100
  16.1036190  28.6494360  41.8627850  16.2283610  29.4725530  42.3351660
  16.9701750  28.4385090  41.5152000   3.5753720  30.7425570  41.5344980
   4.3116200  30.1941030  41.8053550   3.9594640  31.6081580  41.3950970
   2.5812000  29.9271640  50.7230560   3.3824730  30.2483690  51.1365960
   2.0663820  29.5667220  51.4450470   6.6856030  29.9155880  33.3570550
   7.4784640  30.2044710  32.9052340   6.1660380  29.4848050  32.6783030
  11.4176630  26.0351510  50.6705970  10.8114790  26.0583110  49.9301720
  11.1130740  25.3034550  51.2073220  12.8477000  29.7631800  49.2815380
  13.7998750  29.6789820  49.2315620  12.7005220  30.4273510  49.9549170
  15.7386200  29.1426010  34.7807290  15.4527710  28.7291150  33.9661470
  15.5405750  30.0713720  34.6607810   7.2033430  25.1359290  33.2212900
   7.0984070  24.5211640  33.9474280   7.0357650  24.6125180  32.4375910
   7.3547750  23.8216090  49.2002130   6.5893420  24.3901090  49.1156800
   7.5363710  23.5292300  48.3070360  10.4436160  24.1979320  33.8254890
   9.8946260  24.6448620  34.4697630  11.0655420  23.6928570  34.3492560
  14.4971100  25.5521420  49.7577150  15.2380570  25.8897180  49.2544610
  13.7343780  25.7213480  49.2046920   2.3332890  20.5574690  50.5616680
   2.3738230  20.2588560  51.4701910   3.1878390  20.9582300  50.4024200
   6.1111280  23.1570240  35.7220190   6.5327700  22.9910110  36.5651580
   6.2362120  22.3470470  35.2275330   4.2738700  19.1366790  48.5291170
   3.7435160  18.6457740  47.9014510   4.9426770  19.5650990  47.9949100
   8.6238920  22.1807850  32.9697290   9.1444580  21.4656870  32.6038440
   9.2707320  22.8193720  33.2697800  13.1716760  23.6036250  48.2932360
  13.5857780  23.7581330  49.1422780  12.2367760  23.7291470  48.4558140
  13.6438930  20.9432410  50.2971510  14.2259700  20.1884730  50.2091990
  13.8200700  21.4739850  49.5202990   4.7611000  16.1029160  48.6088460
   4.6667870  15.4849910  47.8839330   4.1808390  16.8295450  48.3818370
   7.5272440  14.6602400  45.6415850   7.0789740  14.6826660  44.7961400
   6.8937640  14.2621420  46.2386150   7.9331990  23.5556730  46.2628290
   8.3520100  24.3989460  46.0904530   7.0140620  23.6928770  46.0335070
  10.2695890  21.2872910  47.6466130  10.3892100  20.6914050  48.3860970
  11.1289890  21.3242600  47.2267430  12.6083790  21.8410100  46.2228640
  12.0819010  22.3652720  45.6193780  12.9515130  22.4737490  46.8538370
   5.0070180  19.2303470  32.6678350   4.8059240  18.3670830  33.0291690
   4.8362230  19.1436830  31.7299950   5.7839410  29.8609740  47.3786020
   5.2460500  30.5855800  47.0594720   6.0373370  29.3840080  46.5883360
   7.0364660  17.8294260  48.9041950   7.6264350  17.5210110  49.5919770
   6.2184900  17.3574010  49.0601850  11.8558090  17.4460070  49.1374970
  11.1673610  16.7841610  49.0724960  12.5764110  16.9998340  49.5823430
  12.4858490  14.0411700  35.1965230  12.7660780  13.1979600  35.5524650
  11.7124220  14.2734810  35.7103980   3.8052980  16.3304090  32.6556230
   4.1078880  16.3371520  31.7475380   4.5447570  15.9801950  33.1523890
   8.6401620  31.0960950  47.6372670   8.5660320  31.9996090  47.9445040
   7.7380460  30.7772850  47.6094740   7.0237910  15.2738710  33.6412430
   6.6759910  14.5962700  33.0614880   7.2250680  14.8128220  34.4555820
   9.1886950  30.2619460  35.2599030  10.0837740  30.6004430  35.2817790
   9.2204580  29.5398870  34.6323310   2.8283110  25.6346510  33.4886030
   3.2657980  26.1776180  34.1443610   3.3130840  24.8093460  33.4982370
   4.6390830  26.7544550  38.6008260   4.3386370  26.6309520  39.5012170
   4.5328320  25.8953140  38.1923990  16.1681300  28.7923130  47.9665230
  15.5683290  28.8515690  47.2229150  16.2975200  27.8528110  48.0962080
  17.4082750  26.5340950  33.3034940  16.5775710  26.6017600  33.7742170
  17.5854580  27.4245070  33.0001800  16.8639210  23.2788430  35.8069140
  17.6258120  23.8485080  35.9128830  16.8793580  22.7115630  36.5777450
  17.8699180  24.1338530  40.6511070  18.2408010  23.3505850  40.2447040
  18.5101110  24.8227630  40.4728370  14.8532940  25.5175110  46.0641390
  14.0392780  25.9472270  46.3267180  15.2607140  26.1293520  45.4510440
  16.9158380  23.5722800  32.9641660  17.1907220  24.4801680  32.8360880
  16.7269120  23.5085330  33.9003650  13.3133990  16.5967650  34.2595290
  13.7318870  16.4098630  33.4191950  13.0070050  15.7446700  34.5698220
  16.8123720  21.5091790  37.9571090  16.4367320  20.7419720  37.5252380
  16.0826840  21.8914490  38.4446020  16.2023340  20.6563310  47.5910610
  15.9709430  20.4276060  46.6908560  16.4627890  21.5762860  47.5455500
  14.6411410  15.8819740  50.3690310  15.5181590  15.8903140  50.7524310
  14.6532250  15.1450580  49.7582660  16.0874680  19.7349280  41.2578330
  16.6112160  19.2411930  40.6268500  16.6734100  19.8699640  42.0025900
  16.2664400  19.8189150  44.7797880  15.3167110  19.7852690  44.8942870
  16.4477410  20.7289260  44.5447650   1.7683000  14.1230160  32.9299160
   2.4911130  14.6639100  33.2480380   2.0407520  13.8493580  32.0540700
  15.5774650  18.9922630  37.1970740  16.0733770  18.7593500  37.9819620
  15.3790720  18.1534470  36.7808380  17.0061810  17.6283580  39.7308420
  16.8961090  17.4739620  40.6690690  17.7669400  17.1004520  39.4883830
  15.3527530  13.5677710  46.1891420  15.9899750  14.1811850  46.5550610
  15.5002420  13.6038370  45.2440650  17.8952080  15.4591500  32.9714560
  18.8201390  15.3272680  32.7632850  17.8727870  15.5384320  33.9251010
  17.9690570  16.2302160  35.5971270  17.1742070  16.1647280  36.1264180
  18.1733850  17.1652800  35.5856620  14.9108990  30.2693710  39.5909660
  15.5068060  29.9478280  38.9144080  15.1687140  29.7965530  40.3822930
   2.8171560  26.7011620  49.7400290   2.7741190  26.3304530  50.6214750
   2.9482570  27.6389190  49.8802110   6.5177590  28.2571210  45.3410010
   6.2768950  28.5245770  44.4540530   7.4580230  28.4276940  45.3960870
   8.7232010  14.7203900  49.0966520   8.6620900  15.3125730  49.8461930
   9.6632390  14.6129860  48.9516780  11.3606570  14.3773960  48.7358810
  11.9746980  14.6953250  48.0739890  11.9056130  13.8922550  49.3554670
  17.7781750  30.2765590  46.1420650  17.2840030  30.6734460  45.4247780
  17.1695040  29.6514800  46.5357930   1.8827830  13.0568220  48.8497870
   2.4310820  12.8756270  48.0863980   1.9483140  12.2662330  49.3854180
   2.6559590  29.6473870  46.8598070   2.0619910  29.5158570  47.5988110
   2.6483430  28.8112010  46.3940170  12.1014610  12.9406100  45.0628100
  11.2274450  13.2741210  44.8601030  11.9925360  12.4679280  45.8879970
  13.0086590  15.1476970  46.4469820  12.6799950  14.3328730  46.0671550
  13.9568890  15.1046780  46.3235510  15.4621200  30.9189010  43.4207390
  15.0024170  31.6704820  43.0465410  14.8333660  30.1995480  43.3622190
   5.8916920  29.2277250  42.5955520   6.4081940  28.6164610  42.0703780
   6.5414300  29.7306030  43.0866530   8.6312420  30.1185740  43.4224500
   8.9190230  29.8640040  42.5457510   9.1435640  29.5663100  44.0130070
   9.8489430  13.8575940  44.0021010   9.0661220  14.3321440  44.2817770
   9.5552360  12.9530770  43.8934190  14.4010500  14.5599040  42.0470100
  14.8418590  14.5044140  41.1991700  14.1318090  15.4757050  42.1180280
  16.2649070  14.1914280  40.0578920  16.2037470  13.2475500  39.9109940
  17.0441100  14.2994370  40.6032380   7.7343650  16.2762690  39.5137040
   6.9218160  15.9019580  39.1732920   8.2385290  15.5207770  39.8158230
  12.2368630  12.9405140  40.7520110  12.8398000  13.5125350  41.2268630
  11.4961620  13.5044580  40.5294010  15.3803230  13.3426700  36.0260390
  15.5753860  14.2410150  36.2927820  14.5933100  13.1113780  36.5193340
   3.5654990  14.6887470  35.0636700   4.0947750  13.9017270  34.9344650
   4.1983310  15.3678660  35.2972230   5.7592830  14.4262610  38.1182090
   5.1295570  13.7249920  38.2852220   5.2197970  15.1866740  37.9015250
   8.6984780  31.0401840  50.7892700   9.6252090  30.8046110  50.8328660
   8.6835210  31.8673840  50.3078730  16.9329840  30.5827410  37.7866950
  17.1082030  29.8965150  37.1427870  16.2351410  31.1074460  37.3943620
   5.8848390  13.7046590  50.5534580   5.6032660  14.2080190  49.7895400
   6.2668090  12.9068340  50.1876710   4.7757490  30.9722250  35.3402260
   5.5076310  30.6881530  34.7926150   5.0351160  30.7335530  36.2301640
   3.9372280  27.0886980  35.3448590   3.3081160  27.5572080  35.8934420
   4.0520110  26.2436200  35.7794780  12.4863850  13.1200170  51.1315050
  12.3729300  13.4394780  52.0266570  13.3033590  13.5212680  50.8352330
  15.2662340  30.2671700  50.6133740  16.0587660  29.7720930  50.4059700
  15.5595490  30.9461840  51.2209350  11.3922000  21.1392640  21.4949790
  11.3116050  20.2247250  21.2241500  10.9786420  21.6359710  20.7889500
   9.5240040  22.9171660  23.3759060   8.7482140  22.4372100  23.6657630
  10.1752970  22.2377310  23.2015220   3.5405870  23.2291470  24.2534820
   2.7090750  22.9740180  24.6531330   4.1486850  23.3002240  24.9892740
  13.5447470  27.3231850  22.1558190  13.0829000  26.5519090  22.4845360
  14.3573020  27.3497920  22.6610640   3.5207130  27.2631560  24.4492840
   3.8235170  26.3729300  24.2703060   4.2650720  27.8201780  24.2215090
   9.7710780  29.6089860  21.7762180   9.1522220  30.0647360  21.2056620
  10.6262560  29.7641320  21.3751880   8.9649030  25.5928850  23.3829220
   8.8957310  24.6518790  23.2218350   9.7268890  25.6830260  23.9551790
   9.9954200  18.3999230  23.6098150  10.3719020  17.5271110  23.4971820
   9.8973710  18.7357930  22.7188590   4.1259210  16.7724860  19.0715590
   4.2325960  17.6728590  19.3784350   3.2151570  16.7242830  18.7810240
  13.7778320  15.8949670  20.5426490  14.5987940  15.4046240  20.5851970
  13.8112400  16.4847330  21.2958330   5.9666940  19.7411230  23.4040770
   6.4745160  20.2392200  24.0445790   6.4980180  18.9646430  23.2280130
  18.0677870  17.9116420  27.1070120  17.3630040  18.2998130  26.5885230
  18.3335790  18.6066710  27.7091050   4.2503040  14.3809790  27.6704190
   4.2521480  14.8982180  26.8650090   3.4207350  13.9039970  27.6474120
  10.6374130  24.4929100  19.1694090  10.0191400  24.9578550  18.6056810
  11.1497380  25.1856580  19.5863600   5.5005890  24.0204970  25.8477690
   5.1675270  24.6473890  26.4898760   5.6772570  24.5466850  25.0679360
  14.0139800  17.8350050  23.3154030  13.3095370  18.1234940  23.8957140
  14.3751960  18.6450160  22.9553590   3.9318370  16.0919750  25.6774640
   4.2735180  16.9361800  25.3828510   2.9934180  16.2403490  25.7939980
   4.7124990  25.9885770  27.6626870   5.3298990  26.6636850  27.3811320
   3.8518110  26.3973750  27.5714370  15.6302580  27.4525180  25.5781510
  14.9466100  28.1224290  25.5698180  16.1696870  27.6505830  24.8126370
  17.0826720  17.2804840  23.7063240  16.1351630  17.3143820  23.8378670
  17.4076710  18.0943790  24.0912600   7.6146260  13.5802020  22.0019230
   7.9221240  13.0248910  21.2854730   6.6846960  13.7146480  21.8192220
  13.1661320  29.2969310  24.2926690  13.1788480  28.8931600  23.4248950
  12.6136540  30.0716600  24.1888120  14.4606740  26.0185530  19.3816860
  14.3503070  25.0759860  19.5066280  14.4574990  26.3801170  20.2679620
  12.5646760  24.1999150  25.6209300  12.9815550  23.9859260  24.7862760
  13.2886580  24.4571940  26.1917920  10.0027020  21.6450850  18.7379350
   9.0756300  21.5788230  18.9667820  10.1551840  22.5830980  18.6234590
   9.9896100  17.9167850  15.7346510   9.0499770  18.0781810  15.8198970
  10.3079360  18.6353530  15.1882500  16.5108860  22.5986370  25.7125540
  15.6827490  22.6679460  25.2375670  17.1059340  23.1840680  25.2441370
  14.0324310  23.2071150  19.2414600  13.4136730  22.8690700  18.5940900
  14.0148760  22.5630910  19.9493790  13.4750870  19.3855690  26.6580410
  13.0622050  20.2109400  26.9120400  12.7426820  18.8000730  26.4656770
   5.6083660  22.1715590  21.5199080   5.2040660  21.4592840  21.0244980
   5.6946780  21.8268830  22.4087120   6.0765360  25.8583150  23.6838290
   5.7793650  25.2528620  23.0046070   7.0265180  25.8960460  23.5727650
   4.3212280  18.9458800  25.2998120   4.8726870  19.0554140  24.5251370
   4.8355790  19.3196400  26.0153350  14.1650970  29.4315020  27.3461390
  13.6881530  30.2387210  27.1534000  13.4812760  28.7793350  27.4987600
   5.1683790  25.5964840  30.3346090   4.2712320  25.8204810  30.5819490
   5.1936660  25.7199780  29.3857490  12.2089010  22.4457960  16.2487350
  12.6482290  21.6080390  16.1025170  12.9217430  23.0787360  16.3351490
   3.9955010  22.4678160  28.9103460   3.8562780  23.3400960  29.2790860
   3.1136370  22.1250970  28.7651400  10.3184390  27.3854030  20.2168590
  10.7580300  28.1278360  19.8023980  10.2571280  27.6280600  21.1407550
   5.7935360  28.4099860  31.1188610   5.7650790  28.8142810  30.2517040
   5.6300330  27.4810220  30.9560210  15.7906150  13.7000770  14.5628390
  15.4778810  13.7927600  15.4627460  16.5518620  14.2781800  14.5125820
   2.3088290  21.0660570  19.0205730   2.1885890  21.7922660  18.4087000
   1.9989180  20.2963480  18.5433640  17.7450180  29.1926960  32.4152780
  18.2209900  29.6709850  33.0941860  18.3657340  29.1244450  31.6898280
  17.1483430  26.3839810  29.5752790  17.2746490  26.1451690  28.6569970
  17.1904810  25.5524350  30.0474870  11.0100170  30.0867810  28.1447600
  11.5244840  29.9975820  28.9470030  10.1669250  30.4327510  28.4375510
  12.9854570  30.3723150  17.5731600  12.8255710  30.0826090  18.4713430
  12.8201280  29.5963280  17.0376830   5.4642950  30.1521680  19.3503220
   5.2885430  29.2357220  19.1371020   4.6098690  30.5108970  19.5901020
  12.6880700  27.8810710  16.1329600  11.9945860  27.8788000  15.4731880
  13.4303560  27.4570030  15.7023770  12.2530630  29.5073420  20.2078090
  12.7087580  28.7262800  20.5216710  12.5923150  30.2180240  20.7519270
  17.0007440  18.4372270  30.5402530  16.3851710  18.9451940  30.0117990
  16.6803860  17.5370600  30.4828470   4.7751950  14.4095640  22.4029400
   4.3320100  15.1905180  22.0713920   5.3336940  14.7325530  23.1100340
   9.0621760  17.2764160  28.0064720   8.6001130  17.4847180  28.8184660
   8.6599870  16.4623510  27.7035390  14.0626270  18.4973110  29.1361380
  13.2119860  18.1978860  29.4570450  13.9028060  18.7415120  28.2245200
  11.1575980  19.9974860  31.2360170  11.4829390  19.1638610  30.8962400
  11.9456310  20.5203380  31.3838500   7.8910770  14.0306340  17.2835230
   7.2664950  14.0266210  18.0088540   7.8040890  13.1637300  16.8871200
   6.8127850  14.9542970  24.2619000   7.1100180  15.8605800  24.1811020
   7.3613410  14.4661750  23.6478570   4.5666170  19.5329210  20.1310650
   4.3407090  19.3166380  21.0357270   3.7858700  19.9657670  19.7856620
  11.7963930  19.5392580  18.7301300  11.1972820  20.2628380  18.5464920
  12.3443540  19.4769360  17.9477750   7.0065380  20.4314790  30.7970920
   6.9108980  19.4909520  30.6471320   7.8497360  20.6529860  30.4018990
  10.4028800  18.1756120  20.7604580  10.7958370  18.4928320  19.9473270
  10.7645650  17.2968000  20.8749100   8.7120970  16.9263430  32.0201440
   8.0219290  16.7335630  32.6547530   9.4553270  17.2098070  32.5525740
  10.9883940  20.7661870  24.8555360  10.2565060  21.2748680  25.2045460
  10.5908280  19.9491850  24.5544140   7.4261330  17.4416070  23.2607850
   7.4297390  17.0006020  22.4112390   8.3212450  17.7633400  23.3679670
   3.2763710  17.3242560  22.2202060   2.9363760  17.8017790  22.9769110
   2.5141030  16.8707680  21.8603160   7.4881480  18.4428150  16.2514610
   7.6094300  18.4014630  17.2000430   7.1029990  19.3052300  16.0961340
  11.4509850  16.2195550  24.2678300  11.4682590  16.6704200  25.1120150
  11.2025430  15.3201190  24.4811740   6.5002980  20.7529290  15.6497910
   5.9319880  20.3047540  15.0233820   7.2091980  21.1122070  15.1163060
  14.8780600  13.6327730  30.1064680  15.2026370  12.9017390  30.6322660
  14.9137110  13.3141370  29.2045670   7.7269300  21.5017850  25.0073260
   8.0939430  21.0276420  25.7534600   7.5374360  22.3759420  25.3481600
   5.5168670  20.5426490  27.3257470   5.2125740  21.4218470  27.5507830
   6.4715130  20.6026280  27.3614910   4.0450460  24.7487480  17.9224320
   3.2712720  24.2085100  17.7623040   4.7745090  24.2294090  17.5842080
  14.8038440  23.7452840  23.7150710  15.5237560  24.2408130  23.3246820
  14.6020260  23.0670730  23.0704580  10.2648380  15.1390800  17.8580100
   9.4512990  14.6403970  17.7825410  10.0710330  15.9789050  17.4416450
  10.1857240  23.8161900  29.6019710  10.1194550  22.8957570  29.3477300
   9.5562380  23.9137340  30.3164350  12.9796770  19.5110450  16.1542260
  13.8676390  19.8227680  15.9793600  12.9501860  18.6382700  15.7622840
   4.0887860  24.4167860  21.5603130   4.6066530  23.6136120  21.5060020
   3.6371880  24.3547000  22.4019960   8.9757360  25.6834140  16.8330430
   9.3173060  26.4276370  16.3373750   8.1470070  25.9965260  17.1955260
   4.7745520  21.8413470  31.3568380   4.4745660  21.9870650  30.4596200
   5.5456760  21.2818760  31.2641770  10.1173970  26.6382470  29.3523510
  10.1318510  25.7063430  29.1342420   9.4099070  26.7242230  29.9913280
  15.2511040  20.8222290  15.6222120  15.1674760  21.2536510  14.7718560
  15.9705230  21.2820640  16.0548940  16.3285180  23.2789810  28.6992090
  15.6033370  23.8718590  28.5021480  16.8560640  23.2713350  27.9005460
  16.2798290  27.6764550  18.3504250  15.6374450  27.0220170  18.6247970
  15.8928950  28.0819640  17.5744920  11.8584770  25.0049980  22.1975940
  12.2108590  24.4078110  21.5377310  10.9747100  24.6794210  22.3684190
   7.9448050  25.7647670  19.6046350   8.6319180  26.3116880  19.9853940
   7.1580470  26.3088400  19.6395960   7.2475260  22.7693700  19.2171710
   7.7038040  23.5798950  19.4431900   6.8963470  22.4516840  20.0490200
   9.5507870  28.2800040  26.4464010  10.1950090  28.4859420  27.1237430
   9.9137310  27.5188440  25.9934860   3.1487040  13.1131350  19.6894230
   3.0201670  13.1049250  20.6379150   2.3249060  13.4514440  19.3385240
  10.8239950  26.2832390  25.1641460  11.4662180  25.5825550  25.2773630
  11.3489300  27.0630830  24.9838350  14.6695670  26.5681010  14.8880600
  14.4433250  25.8511450  15.4805240  14.2791870  26.3193450  14.0502350
  12.5977570  27.0827290  28.3677520  12.9333810  27.6693980  29.0455440
  11.6777910  26.9520000  28.5975310  14.2511920  24.4852950  16.5494760
  13.9633620  24.9465640  17.3372640  15.0464090  24.0250720  16.8178980
   8.4266150  27.1318620  31.5365580   8.1063020  26.4127860  32.0811270
   7.7524510  27.8073690  31.6101640   6.4680320  27.9779070  16.4798730
   6.4590420  28.7108760  15.8643240   5.5478680  27.7310650  16.5725690
  11.6419750  17.3644780  26.9002380  12.0100570  16.5439990  27.2281950
  10.7817950  17.4246670  27.3158030  15.0081780  16.3201720  17.7089940
  14.3794940  16.4247390  16.9948170  14.5133700  16.5398500  18.4983820
   9.4539920  28.0407310  15.1423920   9.5551900  27.8371300  14.2125900
   8.5541660  27.7865590  15.3471700   6.9765810  18.5987670  19.1247820
   6.2681960  19.0674010  19.5661430   7.2610290  17.9409680  19.7593010
   8.6021740  20.0184370  27.1240350   9.1006990  20.4930190  27.7892200
   8.7444690  19.0947890  27.3310380  11.0081240  15.3238330  20.5643610
  10.8849020  15.3424460  19.6153120  11.9565800  15.3717270  20.6842010
   8.0958030  30.5593630  19.8371590   8.3499530  30.5215020  18.9150960
   7.1470510  30.4326960  19.8299840   5.1800830  16.9072750  16.4998530
   6.0291360  17.3442900  16.4338720   4.8132100  17.2193010  17.3270590
  15.8088600  16.2352330  27.9668740  15.3062200  16.9757730  28.3062550
  16.6245260  16.6236330  27.6505530  14.1010610  21.4785510  21.4130100
  13.1600750  21.4935740  21.5877790  14.4154680  20.6921470  21.8590400
   4.0792250  23.1605110  14.9734060   4.8455520  23.0486470  15.5359490
   4.1566940  22.4643080  14.3210830   2.7739010  20.5930180  15.6566950
   2.8542600  19.6457690  15.7684350   3.6658760  20.9237060  15.7627610
  16.1036190  28.6494360  23.0884360  16.2283610  29.4725530  23.5608170
  16.9701750  28.4385090  22.7408510   3.5753720  30.7425570  22.7601490
   4.3116200  30.1941030  23.0310060   3.9594640  31.6081580  22.6207480
   2.5812000  29.9271640  31.9487070   3.3824730  30.2483690  32.3622470
   2.0663820  29.5667220  32.6706980   6.6856030  29.9155880  14.5827060
   7.4784640  30.2044710  14.1308850   6.1660380  29.4848050  13.9039540
  11.4176630  26.0351510  31.8962480  10.8114790  26.0583110  31.1558230
  11.1130740  25.3034550  32.4329730  12.8477000  29.7631800  30.5071890
  13.7998750  29.6789820  30.4572130  12.7005220  30.4273510  31.1805680
  15.7386200  29.1426010  16.0063800  15.4527710  28.7291150  15.1917980
  15.5405750  30.0713720  15.8864320   7.2033430  25.1359290  14.4469410
   7.0984070  24.5211640  15.1730790   7.0357650  24.6125180  13.6632420
   7.3547750  23.8216090  30.4258640   6.5893420  24.3901090  30.3413310
   7.5363710  23.5292300  29.5326870  10.4436160  24.1979320  15.0511400
   9.8946260  24.6448620  15.6954140  11.0655420  23.6928570  15.5749070
  14.4971100  25.5521420  30.9833660  15.2380570  25.8897180  30.4801120
  13.7343780  25.7213480  30.4303430   2.3332890  20.5574690  31.7873190
   2.3738230  20.2588560  32.6958420   3.1878390  20.9582300  31.6280710
   6.1111280  23.1570240  16.9476700   6.5327700  22.9910110  17.7908090
   6.2362120  22.3470470  16.4531840   4.2738700  19.1366790  29.7547680
   3.7435160  18.6457740  29.1271020   4.9426770  19.5650990  29.2205610
   8.6238920  22.1807850  14.1953800   9.1444580  21.4656870  13.8294950
   9.2707320  22.8193720  14.4954310  13.1716760  23.6036250  29.5188870
  13.5857780  23.7581330  30.3679290  12.2367760  23.7291470  29.6814650
  13.6438930  20.9432410  31.5228020  14.2259700  20.1884730  31.4348500
  13.8200700  21.4739850  30.7459500   4.7611000  16.1029160  29.8344970
   4.6667870  15.4849910  29.1095840   4.1808390  16.8295450  29.6074880
   7.5272440  14.6602400  26.8672360   7.0789740  14.6826660  26.0217910
   6.8937640  14.2621420  27.4642660   7.9331990  23.5556730  27.4884800
   8.3520100  24.3989460  27.3161040   7.0140620  23.6928770  27.2591580
  10.2695890  21.2872910  28.8722640  10.3892100  20.6914050  29.6117480
  11.1289890  21.3242600  28.4523940  12.6083790  21.8410100  27.4485150
  12.0819010  22.3652720  26.8450290  12.9515130  22.4737490  28.0794880
   5.0070180  19.2303470  13.8934860   4.8059240  18.3670830  14.2548200
   4.8362230  19.1436830  12.9556460   5.7839410  29.8609740  28.6042530
   5.2460500  30.5855800  28.2851230   6.0373370  29.3840080  27.8139870
   7.0364660  17.8294260  30.1298460   7.6264350  17.5210110  30.8176280
   6.2184900  17.3574010  30.2858360  11.8558090  17.4460070  30.3631480
  11.1673610  16.7841610  30.2981470  12.5764110  16.9998340  30.8079940
  12.4858490  14.0411700  16.4221740  12.7660780  13.1979600  16.7781160
  11.7124220  14.2734810  16.9360490   3.8052980  16.3304090  13.8812740
   4.1078880  16.3371520  12.9731890   4.5447570  15.9801950  14.3780400
   8.6401620  31.0960950  28.8629180   8.5660320  31.9996090  29.1701550
   7.7380460  30.7772850  28.8351250   7.0237910  15.2738710  14.8668940
   6.6759910  14.5962700  14.2871390   7.2250680  14.8128220  15.6812330
   9.1886950  30.2619460  16.4855540  10.0837740  30.6004430  16.5074300
   9.2204580  29.5398870  15.8579820   2.8283110  25.6346510  14.7142540
   3.2657980  26.1776180  15.3700120   3.3130840  24.8093460  14.7238880
   4.6390830  26.7544550  19.8264770   4.3386370  26.6309520  20.7268680
   4.5328320  25.8953140  19.4180500  16.1681300  28.7923130  29.1921740
  15.5683290  28.8515690  28.4485660  16.2975200  27.8528110  29.3218590
  17.4082750  26.5340950  14.5291450  16.5775710  26.6017600  14.9998680
  17.5854580  27.4245070  14.2258310  16.8639210  23.2788430  17.0325650
  17.6258120  23.8485080  17.1385340  16.8793580  22.7115630  17.8033960
  17.8699180  24.1338530  21.8767580  18.2408010  23.3505850  21.4703550
  18.5101110  24.8227630  21.6984880  14.8532940  25.5175110  27.2897900
  14.0392780  25.9472270  27.5523690  15.2607140  26.1293520  26.6766950
  16.9158380  23.5722800  14.1898170  17.1907220  24.4801680  14.0617390
  16.7269120  23.5085330  15.1260160  13.3133990  16.5967650  15.4851800
  13.7318870  16.4098630  14.6448460  13.0070050  15.7446700  15.7954730
  16.8123720  21.5091790  19.1827600  16.4367320  20.7419720  18.7508890
  16.0826840  21.8914490  19.6702530  16.2023340  20.6563310  28.8167120
  15.9709430  20.4276060  27.9165070  16.4627890  21.5762860  28.7712010
  14.6411410  15.8819740  31.5946820  15.5181590  15.8903140  31.9780820
  14.6532250  15.1450580  30.9839170  16.0874680  19.7349280  22.4834840
  16.6112160  19.2411930  21.8525010  16.6734100  19.8699640  23.2282410
  16.2664400  19.8189150  26.0054390  15.3167110  19.7852690  26.1199380
  16.4477410  20.7289260  25.7704160   1.7683000  14.1230160  14.1555670
   2.4911130  14.6639100  14.4736890   2.0407520  13.8493580  13.2797210
  15.5774650  18.9922630  18.4227250  16.0733770  18.7593500  19.2076130
  15.3790720  18.1534470  18.0064890  17.0061810  17.6283580  20.9564930
  16.8961090  17.4739620  21.8947200  17.7669400  17.1004520  20.7140340
  15.3527530  13.5677710  27.4147930  15.9899750  14.1811850  27.7807120
  15.5002420  13.6038370  26.4697160  17.8952080  15.4591500  14.1971070
  18.8201390  15.3272680  13.9889360  17.8727870  15.5384320  15.1507520
  17.9690570  16.2302160  16.8227780  17.1742070  16.1647280  17.3520690
  18.1733850  17.1652800  16.8113130  14.9108990  30.2693710  20.8166170
  15.5068060  29.9478280  20.1400590  15.1687140  29.7965530  21.6079440
   2.8171560  26.7011620  30.9656800   2.7741190  26.3304530  31.8471260
   2.9482570  27.6389190  31.1058620   6.5177590  28.2571210  26.5666520
   6.2768950  28.5245770  25.6797040   7.4580230  28.4276940  26.6217380
   8.7232010  14.7203900  30.3223030   8.6620900  15.3125730  31.0718440
   9.6632390  14.6129860  30.1773290  11.3606570  14.3773960  29.9615320
  11.9746980  14.6953250  29.2996400  11.9056130  13.8922550  30.5811180
  17.7781750  30.2765590  27.3677160  17.2840030  30.6734460  26.6504290
  17.1695040  29.6514800  27.7614440   1.8827830  13.0568220  30.0754380
   2.4310820  12.8756270  29.3120490   1.9483140  12.2662330  30.6110690
   2.6559590  29.6473870  28.0854580   2.0619910  29.5158570  28.8244620
   2.6483430  28.8112010  27.6196680  12.1014610  12.9406100  26.2884610
  11.2274450  13.2741210  26.0857540  11.9925360  12.4679280  27.1136480
  13.0086590  15.1476970  27.6726330  12.6799950  14.3328730  27.2928060
  13.9568890  15.1046780  27.5492020  15.4621200  30.9189010  24.6463900
  15.0024170  31.6704820  24.2721920  14.8333660  30.1995480  24.5878700
   5.8916920  29.2277250  23.8212030   6.4081940  28.6164610  23.2960290
   6.5414300  29.7306030  24.3123040   8.6312420  30.1185740  24.6481010
   8.9190230  29.8640040  23.7714020   9.1435640  29.5663100  25.2386580
   9.8489430  13.8575940  25.2277520   9.0661220  14.3321440  25.5074280
   9.5552360  12.9530770  25.1190700  14.4010500  14.5599040  23.2726610
  14.8418590  14.5044140  22.4248210  14.1318090  15.4757050  23.3436790
  16.2649070  14.1914280  21.2835430  16.2037470  13.2475500  21.1366450
  17.0441100  14.2994370  21.8288890   7.7343650  16.2762690  20.7393550
   6.9218160  15.9019580  20.3989430   8.2385290  15.5207770  21.0414740
  12.2368630  12.9405140  21.9776620  12.8398000  13.5125350  22.4525140
  11.4961620  13.5044580  21.7550520  15.3803230  13.3426700  17.2516900
  15.5753860  14.2410150  17.5184330  14.5933100  13.1113780  17.7449850
   3.5654990  14.6887470  16.2893210   4.0947750  13.9017270  16.1601160
   4.1983310  15.3678660  16.5228740   5.7592830  14.4262610  19.3438600
   5.1295570  13.7249920  19.5108730   5.2197970  15.1866740  19.1271760
   8.6984780  31.0401840  32.0149210   9.6252090  30.8046110  32.0585170
   8.6835210  31.8673840  31.5335240  16.9329840  30.5827410  19.0123460
  17.1082030  29.8965150  18.3684380  16.2351410  31.1074460  18.6200130
   5.8848390  13.7046590  31.7791090   5.6032660  14.2080190  31.0151910
   6.2668090  12.9068340  31.4133220   4.7757490  30.9722250  16.5658770
   5.5076310  30.6881530  16.0182660   5.0351160  30.7335530  17.4558150
   3.9372280  27.0886980  16.5705100   3.3081160  27.5572080  17.1190930
   4.0520110  26.2436200  17.0051290  12.4863850  13.1200170  32.3571560
  12.3729300  13.4394780  33.2523080  13.3033590  13.5212680  32.0608840
  15.2662340  30.2671700  31.8390250  16.0587660  29.7720930  31.6316210
  15.5595490  30.9461840  32.4465860  11.3922000  21.1392640   2.7206300
  11.3116050  20.2247250   2.4498010  10.9786420  21.6359710   2.0146010
   9.5240040  22.9171660   4.6015570   8.7482140  22.4372100   4.8914140
  10.1752970  22.2377310   4.4271730   3.5405870  23.2291470   5.4791330
   2.7090750  22.9740180   5.8787840   4.1486850  23.3002240   6.2149250
  13.5447470  27.3231850   3.3814700  13.0829000  26.5519090   3.7101870
  14.3573020  27.3497920   3.8867150   3.5207130  27.2631560   5.6749350
   3.8235170  26.3729300   5.4959570   4.2650720  27.8201780   5.4471600
   9.7710780  29.6089860   3.0018690   9.1522220  30.0647360   2.4313130
  10.6262560  29.7641320   2.6008390   8.9649030  25.5928850   4.6085730
   8.8957310  24.6518790   4.4474860   9.7268890  25.6830260   5.1808300
   9.9954200  18.3999230   4.8354660  10.3719020  17.5271110   4.7228330
   9.8973710  18.7357930   3.9445100  13.7778320  15.8949670   1.7683000
  14.5987940  15.4046240   1.8108480  13.8112400  16.4847330   2.5214840
   5.9666940  19.7411230   4.6297280   6.4745160  20.2392200   5.2702300
   6.4980180  18.9646430   4.4536640  18.0677870  17.9116420   8.3326630
  17.3630040  18.2998130   7.8141740  18.3335790  18.6066710   8.9347560
   4.2503040  14.3809790   8.8960700   4.2521480  14.8982180   8.0906600
   3.4207350  13.9039970   8.8730630   5.5005890  24.0204970   7.0734200
   5.1675270  24.6473890   7.7155270   5.6772570  24.5466850   6.2935870
  14.0139800  17.8350050   4.5410540  13.3095370  18.1234940   5.1213650
  14.3751960  18.6450160   4.1810100   3.9318370  16.0919750   6.9031150
   4.2735180  16.9361800   6.6085020   2.9934180  16.2403490   7.0196490
   4.7124990  25.9885770   8.8883380   5.3298990  26.6636850   8.6067830
   3.8518110  26.3973750   8.7970880  15.6302580  27.4525180   6.8038020
  14.9466100  28.1224290   6.7954690  16.1696870  27.6505830   6.0382880
  17.0826720  17.2804840   4.9319750  16.1351630  17.3143820   5.0635180
  17.4076710  18.0943790   5.3169110   7.6146260  13.5802020   3.2275740
   7.9221240  13.0248910   2.5111240   6.6846960  13.7146480   3.0448730
  13.1661320  29.2969310   5.5183200  13.1788480  28.8931600   4.6505460
  12.6136540  30.0716600   5.4144630  12.5646760  24.1999150   6.8465810
  12.9815550  23.9859260   6.0119270  13.2886580  24.4571940   7.4174430
  16.5108860  22.5986370   6.9382050  15.6827490  22.6679460   6.4632180
  17.1059340  23.1840680   6.4697880  13.4750870  19.3855690   7.8836920
  13.0622050  20.2109400   8.1376910  12.7426820  18.8000730   7.6913280
   5.6083660  22.1715590   2.7455590   5.2040660  21.4592840   2.2501490
   5.6946780  21.8268830   3.6343630   6.0765360  25.8583150   4.9094800
   5.7793650  25.2528620   4.2302580   7.0265180  25.8960460   4.7984160
   4.3212280  18.9458800   6.5254630   4.8726870  19.0554140   5.7507880
   4.8355790  19.3196400   7.2409860  14.1650970  29.4315020   8.5717900
  13.6881530  30.2387210   8.3790510  13.4812760  28.7793350   8.7244110
   5.1683790  25.5964840  11.5602600   4.2712320  25.8204810  11.8076000
   5.1936660  25.7199780  10.6114000   3.9955010  22.4678160  10.1359970
   3.8562780  23.3400960  10.5047370   3.1136370  22.1250970   9.9907910
   5.7935360  28.4099860  12.3445120   5.7650790  28.8142810  11.4773550
   5.6300330  27.4810220  12.1816720  17.7450180  29.1926960  13.6409290
  18.2209900  29.6709850  14.3198370  18.3657340  29.1244450  12.9154790
  17.1483430  26.3839810  10.8009300  17.2746490  26.1451690   9.8826480
  17.1904810  25.5524350  11.2731380  11.0100170  30.0867810   9.3704110
  11.5244840  29.9975820  10.1726540  10.1669250  30.4327510   9.6632020
  17.0007440  18.4372270  11.7659040  16.3851710  18.9451940  11.2374500
  16.6803860  17.5370600  11.7084980   4.7751950  14.4095640   3.6285910
   4.3320100  15.1905180   3.2970430   5.3336940  14.7325530   4.3356850
   9.0621760  17.2764160   9.2321230   8.6001130  17.4847180  10.0441170
   8.6599870  16.4623510   8.9291900  14.0626270  18.4973110  10.3617890
  13.2119860  18.1978860  10.6826960  13.9028060  18.7415120   9.4501710
  11.1575980  19.9974860  12.4616680  11.4829390  19.1638610  12.1218910
  11.9456310  20.5203380  12.6095010   6.8127850  14.9542970   5.4875510
   7.1100180  15.8605800   5.4067530   7.3613410  14.4661750   4.8735080
   7.0065380  20.4314790  12.0227430   6.9108980  19.4909520  11.8727830
   7.8497360  20.6529860  11.6275500   8.7120970  16.9263430  13.2457950
   8.0219290  16.7335630  13.8804040   9.4553270  17.2098070  13.7782250
  10.9883940  20.7661870   6.0811870  10.2565060  21.2748680   6.4301970
  10.5908280  19.9491850   5.7800650   7.4261330  17.4416070   4.4864360
   7.4297390  17.0006020   3.6368900   8.3212450  17.7633400   4.5936180
   3.2763710  17.3242560   3.4458570   2.9363760  17.8017790   4.2025620
   2.5141030  16.8707680   3.0859670  11.4509850  16.2195550   5.4934810
  11.4682590  16.6704200   6.3376660  11.2025430  15.3201190   5.7068250
  14.8780600  13.6327730  11.3321190  15.2026370  12.9017390  11.8579170
  14.9137110  13.3141370  10.4302180   7.7269300  21.5017850   6.2329770
   8.0939430  21.0276420   6.9791110   7.5374360  22.3759420   6.5738110
   5.5168670  20.5426490   8.5513980   5.2125740  21.4218470   8.7764340
   6.4715130  20.6026280   8.5871420  14.8038440  23.7452840   4.9407220
  15.5237560  24.2408130   4.5503330  14.6020260  23.0670730   4.2961090
  10.1857240  23.8161900  10.8276220  10.1194550  22.8957570  10.5733810
   9.5562380  23.9137340  11.5420860   4.0887860  24.4167860   2.7859640
   4.6066530  23.6136120   2.7316530   3.6371880  24.3547000   3.6276470
   4.7745520  21.8413470  12.5824890   4.4745660  21.9870650  11.6852710
   5.5456760  21.2818760  12.4898280  10.1173970  26.6382470  10.5780020
  10.1318510  25.7063430  10.3598930   9.4099070  26.7242230  11.2169790
  16.3285180  23.2789810   9.9248600  15.6033370  23.8718590   9.7277990
  16.8560640  23.2713350   9.1261970  11.8584770  25.0049980   3.4232450
  12.2108590  24.4078110   2.7633820  10.9747100  24.6794210   3.5940700
   9.5507870  28.2800040   7.6720520  10.1950090  28.4859420   8.3493940
   9.9137310  27.5188440   7.2191370  10.8239950  26.2832390   6.3897970
  11.4662180  25.5825550   6.5030140  11.3489300  27.0630830   6.2094860
  12.5977570  27.0827290   9.5934030  12.9333810  27.6693980  10.2711950
  11.6777910  26.9520000   9.8231820   8.4266150  27.1318620  12.7622090
   8.1063020  26.4127860  13.3067780   7.7524510  27.8073690  12.8358150
  11.6419750  17.3644780   8.1258890  12.0100570  16.5439990   8.4538460
  10.7817950  17.4246670   8.5414540   8.6021740  20.0184370   8.3496860
   9.1006990  20.4930190   9.0148710   8.7444690  19.0947890   8.5566890
  15.8088600  16.2352330   9.1925250  15.3062200  16.9757730   9.5319060
  16.6245260  16.6236330   8.8762040  14.1010610  21.4785510   2.6386610
  13.1600750  21.4935740   2.8134300  14.4154680  20.6921470   3.0846910
  16.1036190  28.6494360   4.3140870  16.2283610  29.4725530   4.7864680
  16.9701750  28.4385090   3.9665020   3.5753720  30.7425570   3.9858000
   4.3116200  30.1941030   4.2566570   3.9594640  31.6081580   3.8463990
   2.5812000  29.9271640  13.1743580   3.3824730  30.2483690  13.5878980
   2.0663820  29.5667220  13.8963490  11.4176630  26.0351510  13.1218990
  10.8114790  26.0583110  12.3814740  11.1130740  25.3034550  13.6586240
  12.8477000  29.7631800  11.7328400  13.7998750  29.6789820  11.6828640
  12.7005220  30.4273510  12.4062190   7.3547750  23.8216090  11.6515150
   6.5893420  24.3901090  11.5669820   7.5363710  23.5292300  10.7583380
  14.4971100  25.5521420  12.2090170  15.2380570  25.8897180  11.7057630
  13.7343780  25.7213480  11.6559940   2.3332890  20.5574690  13.0129700
   2.3738230  20.2588560  13.9214930   3.1878390  20.9582300  12.8537220
   4.2738700  19.1366790  10.9804190   3.7435160  18.6457740  10.3527530
   4.9426770  19.5650990  10.4462120  13.1716760  23.6036250  10.7445380
  13.5857780  23.7581330  11.5935800  12.2367760  23.7291470  10.9071160
  13.6438930  20.9432410  12.7484530  14.2259700  20.1884730  12.6605010
  13.8200700  21.4739850  11.9716010   4.7611000  16.1029160  11.0601480
   4.6667870  15.4849910  10.3352350   4.1808390  16.8295450  10.8331390
   7.5272440  14.6602400   8.0928870   7.0789740  14.6826660   7.2474420
   6.8937640  14.2621420   8.6899170   7.9331990  23.5556730   8.7141310
   8.3520100  24.3989460   8.5417550   7.0140620  23.6928770   8.4848090
  10.2695890  21.2872910  10.0979150  10.3892100  20.6914050  10.8373990
  11.1289890  21.3242600   9.6780450  12.6083790  21.8410100   8.6741660
  12.0819010  22.3652720   8.0706800  12.9515130  22.4737490   9.3051390
   5.7839410  29.8609740   9.8299040   5.2460500  30.5855800   9.5107740
   6.0373370  29.3840080   9.0396380   7.0364660  17.8294260  11.3554970
   7.6264350  17.5210110  12.0432790   6.2184900  17.3574010  11.5114870
  11.8558090  17.4460070  11.5887990  11.1673610  16.7841610  11.5237980
  12.5764110  16.9998340  12.0336450   8.6401620  31.0960950  10.0885690
   8.5660320  31.9996090  10.3958060   7.7380460  30.7772850  10.0607760
  16.1681300  28.7923130  10.4178250  15.5683290  28.8515690   9.6742170
  16.2975200  27.8528110  10.5475100  17.8699180  24.1338530   3.1024090
  18.2408010  23.3505850   2.6960060  18.5101110  24.8227630   2.9241390
  14.8532940  25.5175110   8.5154410  14.0392780  25.9472270   8.7780200
  15.2607140  26.1293520   7.9023460  16.2023340  20.6563310  10.0423630
  15.9709430  20.4276060   9.1421580  16.4627890  21.5762860   9.9968520
  14.6411410  15.8819740  12.8203330  15.5181590  15.8903140  13.2037330
  14.6532250  15.1450580  12.2095680  16.0874680  19.7349280   3.7091350
  16.6112160  19.2411930   3.0781520  16.6734100  19.8699640   4.4538920
  16.2664400  19.8189150   7.2310900  15.3167110  19.7852690   7.3455890
  16.4477410  20.7289260   6.9960670  17.0061810  17.6283580   2.1821440
  16.8961090  17.4739620   3.1203710  17.7669400  17.1004520   1.9396850
  15.3527530  13.5677710   8.6404440  15.9899750  14.1811850   9.0063630
  15.5002420  13.6038370   7.6953670   2.8171560  26.7011620  12.1913310
   2.7741190  26.3304530  13.0727770   2.9482570  27.6389190  12.3315130
   6.5177590  28.2571210   7.7923030   6.2768950  28.5245770   6.9053550
   7.4580230  28.4276940   7.8473890   8.7232010  14.7203900  11.5479540
   8.6620900  15.3125730  12.2974950   9.6632390  14.6129860  11.4029800
  11.3606570  14.3773960  11.1871830  11.9746980  14.6953250  10.5252910
  11.9056130  13.8922550  11.8067690  17.7781750  30.2765590   8.5933670
  17.2840030  30.6734460   7.8760800  17.1695040  29.6514800   8.9870950
   1.8827830  13.0568220  11.3010890   2.4310820  12.8756270  10.5377000
   1.9483140  12.2662330  11.8367200   2.6559590  29.6473870   9.3111090
   2.0619910  29.5158570  10.0501130   2.6483430  28.8112010   8.8453190
  12.1014610  12.9406100   7.5141120  11.2274450  13.2741210   7.3114050
  11.9925360  12.4679280   8.3392990  13.0086590  15.1476970   8.8982840
  12.6799950  14.3328730   8.5184570  13.9568890  15.1046780   8.7748530
  15.4621200  30.9189010   5.8720410  15.0024170  31.6704820   5.4978430
  14.8333660  30.1995480   5.8135210   5.8916920  29.2277250   5.0468540
   6.4081940  28.6164610   4.5216800   6.5414300  29.7306030   5.5379550
   8.6312420  30.1185740   5.8737520   8.9190230  29.8640040   4.9970530
   9.1435640  29.5663100   6.4643090   9.8489430  13.8575940   6.4534030
   9.0661220  14.3321440   6.7330790   9.5552360  12.9530770   6.3447210
  14.4010500  14.5599040   4.4983120  14.8418590  14.5044140   3.6504720
  14.1318090  15.4757050   4.5693300  16.2649070  14.1914280   2.5091940
  16.2037470  13.2475500   2.3622960  17.0441100  14.2994370   3.0545400
   7.7343650  16.2762690   1.9650060   6.9218160  15.9019580   1.6245940
   8.2385290  15.5207770   2.2671250  12.2368630  12.9405140   3.2033130
  12.8398000  13.5125350   3.6781650  11.4961620  13.5044580   2.9807030
   8.6984780  31.0401840  13.2405720   9.6252090  30.8046110  13.2841680
   8.6835210  31.8673840  12.7591750   5.8848390  13.7046590  13.0047600
   5.6032660  14.2080190  12.2408420   6.2668090  12.9068340  12.6389730
  12.4863850  13.1200170  13.5828070  12.3729300  13.4394780  14.4779590
  13.3033590  13.5212680  13.2865350  15.2662340  30.2671700  13.0646760
  16.0587660  29.7720930  12.8572720  15.5595490  30.9461840  13.6722370
   9.5240040   4.1428170  60.9246040   8.7482140   3.6628610  61.2144610
  10.1752970   3.4633820  60.7502200   3.5405870   4.4547980  61.8021800
   2.7090750   4.1996690  62.2018310   4.1486850   4.5258750  62.5379720
  13.5447470   8.5488360  59.7045170  13.0829000   7.7775600  60.0332340
  14.3573020   8.5754430  60.2097620   3.5207130   8.4888070  61.9979820
   3.8235170   7.5985810  61.8190040   4.2650720   9.0458290  61.7702070
   9.7710780  10.8346370  59.3249160   9.1522220  11.2903870  58.7543600
  10.6262560  10.9897830  58.9238860   8.9649030   6.8185360  60.9316200
   8.8957310   5.8775300  60.7705330   9.7268890   6.9086770  61.5038770
  10.6374130   5.7185610  56.7181070  10.0191400   6.1835060  56.1543790
  11.1497380   6.4113090  57.1350580  15.6302580   8.6781690  63.1268490
  14.9466100   9.3480800  63.1185160  16.1696870   8.8762340  62.3613350
  13.1661320  10.5225820  61.8413670  13.1788480  10.1188110  60.9735930
  12.6136540  11.2973110  61.7375100  14.4606740   7.2442040  56.9303840
  14.3503070   6.3016370  57.0553260  14.4574990   7.6057680  57.8166600
  10.0027020   2.8707360  56.2866330   9.0756300   2.8044740  56.5154800
  10.1551840   3.8087490  56.1721570  16.5108860   3.8242880  63.2612520
  15.6827490   3.8935970  62.7862650  17.1059340   4.4097190  62.7928350
  14.0324310   4.4327660  56.7901580  13.4136730   4.0947210  56.1427880
  14.0148760   3.7887420  57.4980770   5.6083660   3.3972100  59.0686060
   5.2040660   2.6849350  58.5731960   5.6946780   3.0525340  59.9574100
   6.0765360   7.0839660  61.2325270   5.7793650   6.4785130  60.5533050
   7.0265180   7.1216970  61.1214630  12.2089010   3.6714470  53.7974330
  12.6482290   2.8336900  53.6512150  12.9217430   4.3043870  53.8838470
  10.3184390   8.6110540  57.7655570  10.7580300   9.3534870  57.3510960
  10.2571280   8.8537110  58.6894530   2.3088290   2.2917080  56.5692710
   2.1885890   3.0179170  55.9573980   1.9989180   1.5219990  56.0920620
  12.9854570  11.5979660  55.1218580  12.8255710  11.3082600  56.0200410
  12.8201280  10.8219790  54.5863810   5.4642950  11.3778190  56.8990200
   5.2885430  10.4613730  56.6858000   4.6098690  11.7365480  57.1388000
  12.6880700   9.1067220  53.6816580  11.9945860   9.1044510  53.0218860
  13.4303560   8.6826540  53.2510750  12.2530630  10.7329930  57.7565070
  12.7087580   9.9519310  58.0703690  12.5923150  11.4436750  58.3006250
   6.5002980   1.9785800  53.1984890   5.9319880   1.5304050  52.5720800
   7.2091980   2.3378580  52.6650040   7.7269300   2.7274360  62.5560240
   8.0939430   2.2532930  63.3021580   7.5374360   3.6015930  62.8968580
   4.0450460   5.9743990  55.4711300   3.2712720   5.4341610  55.3110020
   4.7745090   5.4550600  55.1329060  14.8038440   4.9709350  61.2637690
  15.5237560   5.4664640  60.8733800  14.6020260   4.2927240  60.6191560
   4.0887860   5.6424370  59.1090110   4.6066530   4.8392630  59.0547000
   3.6371880   5.5803510  59.9506940   8.9757360   6.9090650  54.3817410
   9.3173060   7.6532880  53.8860730   8.1470070   7.2221770  54.7442240
  15.2511040   2.0478800  53.1709100  15.1674760   2.4793020  52.3205540
  15.9705230   2.5077150  53.6035920  16.2798290   8.9021060  55.8991230
  15.6374450   8.2476680  56.1734950  15.8928950   9.3076150  55.1231900
  11.8584770   6.2306490  59.7462920  12.2108590   5.6334620  59.0864290
  10.9747100   5.9050720  59.9171170   7.9448050   6.9904180  57.1533330
   8.6319180   7.5373390  57.5340920   7.1580470   7.5344910  57.1882940
   7.2475260   3.9950210  56.7658690   7.7038040   4.8055460  56.9918880
   6.8963470   3.6773350  57.5977180  10.8239950   7.5088900  62.7128440
  11.4662180   6.8082060  62.8260610  11.3489300   8.2887340  62.5325330
  14.6695670   7.7937520  52.4367580  14.4433250   7.0767960  53.0292220
  14.2791870   7.5449960  51.5989330  14.2511920   5.7109460  54.0981740
  13.9633620   6.1722150  54.8859620  15.0464090   5.2507230  54.3665960
   6.4680320   9.2035580  54.0285710   6.4590420   9.9365270  53.4130220
   5.5478680   8.9567160  54.1212670   9.4539920   9.2663820  52.6910900
   9.5551900   9.0627810  51.7612880   8.5541660   9.0122100  52.8958680
   8.0958030  11.7850140  57.3858570   8.3499530  11.7471530  56.4637940
   7.1470510  11.6583470  57.3786820  14.1010610   2.7042020  58.9617080
  13.1600750   2.7192250  59.1364770  14.4154680   1.9177980  59.4077380
   4.0792250   4.3861620  52.5221040   4.8455520   4.2742980  53.0846470
   4.1566940   3.6899590  51.8697810  16.1036190   9.8750870  60.6371340
  16.2283610  10.6982040  61.1095150  16.9701750   9.6641600  60.2895490
   3.5753720  11.9682080  60.3088470   4.3116200  11.4197540  60.5797040
   3.9594640  12.8338090  60.1694460   6.6856030  11.1412390  52.1314040
   7.4784640  11.4301220  51.6795830   6.1660380  10.7104560  51.4526520
  15.7386200  10.3682520  53.5550780  15.4527710   9.9547660  52.7404960
  15.5405750  11.2970230  53.4351300   7.2033430   6.3615800  51.9956390
   7.0984070   5.7468150  52.7217770   7.0357650   5.8381690  51.2119400
  10.4436160   5.4235830  52.5998380   9.8946260   5.8705130  53.2441120
  11.0655420   4.9185080  53.1236050   6.1111280   4.3826750  54.4963680
   6.5327700   4.2166620  55.3395070   6.2362120   3.5726980  54.0018820
   8.6238920   3.4064360  51.7440780   9.1444580   2.6913380  51.3781930
   9.2707320   4.0450230  52.0441290   9.1886950  11.4875970  54.0342520
  10.0837740  11.8260940  54.0561280   9.2204580  10.7655380  53.4066800
   2.8283110   6.8603020  52.2629520   3.2657980   7.4032690  52.9187100
   3.3130840   6.0349970  52.2725860   4.6390830   7.9801060  57.3751750
   4.3386370   7.8566030  58.2755660   4.5328320   7.1209650  56.9667480
  17.4082750   7.7597460  52.0778430  16.5775710   7.8274110  52.5485660
  17.5854580   8.6501580  51.7745290  16.8639210   4.5044940  54.5812630
  17.6258120   5.0741590  54.6872320  16.8793580   3.9372140  55.3520940
  17.8699180   5.3595040  59.4254560  18.2408010   4.5762360  59.0190530
  18.5101110   6.0484140  59.2471860  16.9158380   4.7979310  51.7385150
  17.1907220   5.7058190  51.6104370  16.7269120   4.7341840  52.6747140
  16.8123720   2.7348300  56.7314580  16.4367320   1.9676230  56.2995870
  16.0826840   3.1171000  57.2189510  14.9108990  11.4950220  58.3653150
  15.5068060  11.1734790  57.6887570  15.1687140  11.0222040  59.1566420
  15.4621200  12.1445520  62.1950880  15.0024170  12.8961330  61.8208900
  14.8333660  11.4251990  62.1365680   5.8916920  10.4533760  61.3699010
   6.4081940   9.8421120  60.8447270   6.5414300  10.9562540  61.8610020
   8.6312420  11.3442250  62.1967990   8.9190230  11.0896550  61.3201000
   9.1435640  10.7919610  62.7873560  16.9329840  11.8083920  56.5610440
  17.1082030  11.1221660  55.9171360  16.2351410  12.3330970  56.1687110
   4.7757490  12.1978760  54.1145750   5.5076310  11.9138040  53.5669640
   5.0351160  11.9592040  55.0045130   3.9372280   8.3143490  54.1192080
   3.3081160   8.7828590  54.6677910   4.0520110   7.4692710  54.5538270
   9.5240040   4.1428170  42.1502550   8.7482140   3.6628610  42.4401120
  10.1752970   3.4633820  41.9758710   3.5405870   4.4547980  43.0278310
   2.7090750   4.1996690  43.4274820   4.1486850   4.5258750  43.7636230
  13.5447470   8.5488360  40.9301680  13.0829000   7.7775600  41.2588850
  14.3573020   8.5754430  41.4354130   3.5207130   8.4888070  43.2236330
   3.8235170   7.5985810  43.0446550   4.2650720   9.0458290  42.9958580
   9.7710780  10.8346370  40.5505670   9.1522220  11.2903870  39.9800110
  10.6262560  10.9897830  40.1495370   8.9649030   6.8185360  42.1572710
   8.8957310   5.8775300  41.9961840   9.7268890   6.9086770  42.7295280
  10.6374130   5.7185610  37.9437580  10.0191400   6.1835060  37.3800300
  11.1497380   6.4113090  38.3607090   5.5005890   5.2461480  44.6221180
   5.1675270   5.8730400  45.2642250   5.6772570   5.7723360  43.8422850
   4.7124990   7.2142280  46.4370360   5.3298990   7.8893360  46.1554810
   3.8518110   7.6230260  46.3457860  15.6302580   8.6781690  44.3525000
  14.9466100   9.3480800  44.3441670  16.1696870   8.8762340  43.5869860
  13.1661320  10.5225820  43.0670180  13.1788480  10.1188110  42.1992440
  12.6136540  11.2973110  42.9631610  14.4606740   7.2442040  38.1560350
  14.3503070   6.3016370  38.2809770  14.4574990   7.6057680  39.0423110
  12.5646760   5.4255660  44.3952790  12.9815550   5.2115770  43.5606250
  13.2886580   5.6828450  44.9661410  10.0027020   2.8707360  37.5122840
   9.0756300   2.8044740  37.7411310  10.1551840   3.8087490  37.3978080
  16.5108860   3.8242880  44.4869030  15.6827490   3.8935970  44.0119160
  17.1059340   4.4097190  44.0184860  14.0324310   4.4327660  38.0158090
  13.4136730   4.0947210  37.3684390  14.0148760   3.7887420  38.7237280
   5.6083660   3.3972100  40.2942570   5.2040660   2.6849350  39.7988470
   5.6946780   3.0525340  41.1830610   6.0765360   7.0839660  42.4581780
   5.7793650   6.4785130  41.7789560   7.0265180   7.1216970  42.3471140
  14.1650970  10.6571530  46.1204880  13.6881530  11.4643720  45.9277490
  13.4812760  10.0049860  46.2731090   5.1683790   6.8221350  49.1089580
   4.2712320   7.0461320  49.3562980   5.1936660   6.9456290  48.1600980
  12.2089010   3.6714470  35.0230840  12.6482290   2.8336900  34.8768660
  12.9217430   4.3043870  35.1094980   3.9955010   3.6934670  47.6846950
   3.8562780   4.5657470  48.0534350   3.1136370   3.3507480  47.5394890
  10.3184390   8.6110540  38.9912080  10.7580300   9.3534870  38.5767470
  10.2571280   8.8537110  39.9151040   5.7935360   9.6356370  49.8932100
   5.7650790  10.0399320  49.0260530   5.6300330   8.7066730  49.7303700
   2.3088290   2.2917080  37.7949220   2.1885890   3.0179170  37.1830490
   1.9989180   1.5219990  37.3177130  17.7450180  10.4183470  51.1896270
  18.2209900  10.8966360  51.8685350  18.3657340  10.3500960  50.4641770
  17.1483430   7.6096320  48.3496280  17.2746490   7.3708200  47.4313460
  17.1904810   6.7780860  48.8218360  11.0100170  11.3124320  46.9191090
  11.5244840  11.2232330  47.7213520  10.1669250  11.6584020  47.2119000
  12.9854570  11.5979660  36.3475090  12.8255710  11.3082600  37.2456920
  12.8201280  10.8219790  35.8120320   5.4642950  11.3778190  38.1246710
   5.2885430  10.4613730  37.9114510   4.6098690  11.7365480  38.3644510
  12.6880700   9.1067220  34.9073090  11.9945860   9.1044510  34.2475370
  13.4303560   8.6826540  34.4767260  12.2530630  10.7329930  38.9821580
  12.7087580   9.9519310  39.2960200  12.5923150  11.4436750  39.5262760
   6.5002980   1.9785800  34.4241400   5.9319880   1.5304050  33.7977310
   7.2091980   2.3378580  33.8906550   7.7269300   2.7274360  43.7816750
   8.0939430   2.2532930  44.5278090   7.5374360   3.6015930  44.1225090
   5.5168670   1.7683000  46.1000960   5.2125740   2.6474980  46.3251320
   6.4715130   1.8282790  46.1358400   4.0450460   5.9743990  36.6967810
   3.2712720   5.4341610  36.5366530   4.7745090   5.4550600  36.3585570
  14.8038440   4.9709350  42.4894200  15.5237560   5.4664640  42.0990310
  14.6020260   4.2927240  41.8448070  10.1857240   5.0418410  48.3763200
  10.1194550   4.1214080  48.1220790   9.5562380   5.1393850  49.0907840
   4.0887860   5.6424370  40.3346620   4.6066530   4.8392630  40.2803510
   3.6371880   5.5803510  41.1763450   8.9757360   6.9090650  35.6073920
   9.3173060   7.6532880  35.1117240   8.1470070   7.2221770  35.9698750
   4.7745520   3.0669980  50.1311870   4.4745660   3.2127160  49.2339690
   5.5456760   2.5075270  50.0385260  10.1173970   7.8638980  48.1267000
  10.1318510   6.9319940  47.9085910   9.4099070   7.9498740  48.7656770
  15.2511040   2.0478800  34.3965610  15.1674760   2.4793020  33.5462050
  15.9705230   2.5077150  34.8292430  16.3285180   4.5046320  47.4735580
  15.6033370   5.0975100  47.2764970  16.8560640   4.4969860  46.6748950
  16.2798290   8.9021060  37.1247740  15.6374450   8.2476680  37.3991460
  15.8928950   9.3076150  36.3488410  11.8584770   6.2306490  40.9719430
  12.2108590   5.6334620  40.3120800  10.9747100   5.9050720  41.1427680
   7.9448050   6.9904180  38.3789840   8.6319180   7.5373390  38.7597430
   7.1580470   7.5344910  38.4139450   7.2475260   3.9950210  37.9915200
   7.7038040   4.8055460  38.2175390   6.8963470   3.6773350  38.8233690
   9.5507870   9.5056550  45.2207500  10.1950090   9.7115930  45.8980920
   9.9137310   8.7444950  44.7678350  10.8239950   7.5088900  43.9384950
  11.4662180   6.8082060  44.0517120  11.3489300   8.2887340  43.7581840
  14.6695670   7.7937520  33.6624090  14.4433250   7.0767960  34.2548730
  14.2791870   7.5449960  32.8245840  12.5977570   8.3083800  47.1421010
  12.9333810   8.8950490  47.8198930  11.6777910   8.1776510  47.3718800
  14.2511920   5.7109460  35.3238250  13.9633620   6.1722150  36.1116130
  15.0464090   5.2507230  35.5922470   8.4266150   8.3575130  50.3109070
   8.1063020   7.6384370  50.8554760   7.7524510   9.0330200  50.3845130
   6.4680320   9.2035580  35.2542220   6.4590420   9.9365270  34.6386730
   5.5478680   8.9567160  35.3469180   9.4539920   9.2663820  33.9167410
   9.5551900   9.0627810  32.9869390   8.5541660   9.0122100  34.1215190
   8.0958030  11.7850140  38.6115080   8.3499530  11.7471530  37.6894450
   7.1470510  11.6583470  38.6043330  14.1010610   2.7042020  40.1873590
  13.1600750   2.7192250  40.3621280  14.4154680   1.9177980  40.6333890
   4.0792250   4.3861620  33.7477550   4.8455520   4.2742980  34.3102980
   4.1566940   3.6899590  33.0954320  16.1036190   9.8750870  41.8627850
  16.2283610  10.6982040  42.3351660  16.9701750   9.6641600  41.5152000
   3.5753720  11.9682080  41.5344980   4.3116200  11.4197540  41.8053550
   3.9594640  12.8338090  41.3950970   2.5812000  11.1528150  50.7230560
   3.3824730  11.4740200  51.1365960   2.0663820  10.7923730  51.4450470
   6.6856030  11.1412390  33.3570550   7.4784640  11.4301220  32.9052340
   6.1660380  10.7104560  32.6783030  11.4176630   7.2608020  50.6705970
  10.8114790   7.2839620  49.9301720  11.1130740   6.5291060  51.2073220
  12.8477000  10.9888310  49.2815380  13.7998750  10.9046330  49.2315620
  12.7005220  11.6530020  49.9549170  15.7386200  10.3682520  34.7807290
  15.4527710   9.9547660  33.9661470  15.5405750  11.2970230  34.6607810
   7.2033430   6.3615800  33.2212900   7.0984070   5.7468150  33.9474280
   7.0357650   5.8381690  32.4375910   7.3547750   5.0472600  49.2002130
   6.5893420   5.6157600  49.1156800   7.5363710   4.7548810  48.3070360
  10.4436160   5.4235830  33.8254890   9.8946260   5.8705130  34.4697630
  11.0655420   4.9185080  34.3492560  14.4971100   6.7777930  49.7577150
  15.2380570   7.1153690  49.2544610  13.7343780   6.9469990  49.2046920
   2.3332890   1.7831200  50.5616680   2.3738230   1.4845070  51.4701910
   3.1878390   2.1838810  50.4024200   6.1111280   4.3826750  35.7220190
   6.5327700   4.2166620  36.5651580   6.2362120   3.5726980  35.2275330
   8.6238920   3.4064360  32.9697290   9.1444580   2.6913380  32.6038440
   9.2707320   4.0450230  33.2697800  13.1716760   4.8292760  48.2932360
  13.5857780   4.9837840  49.1422780  12.2367760   4.9547980  48.4558140
   7.9331990   4.7813240  46.2628290   8.3520100   5.6245970  46.0904530
   7.0140620   4.9185280  46.0335070  10.2695890   2.5129420  47.6466130
  10.3892100   1.9170560  48.3860970  11.1289890   2.5499110  47.2267430
  12.6083790   3.0666610  46.2228640  12.0819010   3.5909230  45.6193780
  12.9515130   3.6994000  46.8538370   5.7839410  11.0866250  47.3786020
   5.2460500  11.8112310  47.0594720   6.0373370  10.6096590  46.5883360
   8.6401620  12.3217460  47.6372670   8.5660320  13.2252600  47.9445040
   7.7380460  12.0029360  47.6094740   9.1886950  11.4875970  35.2599030
  10.0837740  11.8260940  35.2817790   9.2204580  10.7655380  34.6323310
   2.8283110   6.8603020  33.4886030   3.2657980   7.4032690  34.1443610
   3.3130840   6.0349970  33.4982370   4.6390830   7.9801060  38.6008260
   4.3386370   7.8566030  39.5012170   4.5328320   7.1209650  38.1923990
  16.1681300  10.0179640  47.9665230  15.5683290  10.0772200  47.2229150
  16.2975200   9.0784620  48.0962080  17.4082750   7.7597460  33.3034940
  16.5775710   7.8274110  33.7742170  17.5854580   8.6501580  33.0001800
  16.8639210   4.5044940  35.8069140  17.6258120   5.0741590  35.9128830
  16.8793580   3.9372140  36.5777450  17.8699180   5.3595040  40.6511070
  18.2408010   4.5762360  40.2447040  18.5101110   6.0484140  40.4728370
  14.8532940   6.7431620  46.0641390  14.0392780   7.1728780  46.3267180
  15.2607140   7.3550030  45.4510440  16.9158380   4.7979310  32.9641660
  17.1907220   5.7058190  32.8360880  16.7269120   4.7341840  33.9003650
  16.8123720   2.7348300  37.9571090  16.4367320   1.9676230  37.5252380
  16.0826840   3.1171000  38.4446020  16.2023340   1.8819820  47.5910610
  15.9709430   1.6532570  46.6908560  16.4627890   2.8019370  47.5455500
  14.9108990  11.4950220  39.5909660  15.5068060  11.1734790  38.9144080
  15.1687140  11.0222040  40.3822930   2.8171560   7.9268130  49.7400290
   2.7741190   7.5561040  50.6214750   2.9482570   8.8645700  49.8802110
   6.5177590   9.4827720  45.3410010   6.2768950   9.7502280  44.4540530
   7.4580230   9.6533450  45.3960870  17.7781750  11.5022100  46.1420650
  17.2840030  11.8990970  45.4247780  17.1695040  10.8771310  46.5357930
   2.6559590  10.8730380  46.8598070   2.0619910  10.7415080  47.5988110
   2.6483430  10.0368520  46.3940170  15.4621200  12.1445520  43.4207390
  15.0024170  12.8961330  43.0465410  14.8333660  11.4251990  43.3622190
   5.8916920  10.4533760  42.5955520   6.4081940   9.8421120  42.0703780
   6.5414300  10.9562540  43.0866530   8.6312420  11.3442250  43.4224500
   8.9190230  11.0896550  42.5457510   9.1435640  10.7919610  44.0130070
   8.6984780  12.2658350  50.7892700   9.6252090  12.0302620  50.8328660
   8.6835210  13.0930350  50.3078730  16.9329840  11.8083920  37.7866950
  17.1082030  11.1221660  37.1427870  16.2351410  12.3330970  37.3943620
   4.7757490  12.1978760  35.3402260   5.5076310  11.9138040  34.7926150
   5.0351160  11.9592040  36.2301640   3.9372280   8.3143490  35.3448590
   3.3081160   8.7828590  35.8934420   4.0520110   7.4692710  35.7794780
  15.2662340  11.4928210  50.6133740  16.0587660  10.9977440  50.4059700
  15.5595490  12.1718350  51.2209350   9.5240040   4.1428170  23.3759060
   8.7482140   3.6628610  23.6657630  10.1752970   3.4633820  23.2015220
   3.5405870   4.4547980  24.2534820   2.7090750   4.1996690  24.6531330
   4.1486850   4.5258750  24.9892740  13.5447470   8.5488360  22.1558190
  13.0829000   7.7775600  22.4845360  14.3573020   8.5754430  22.6610640
   3.5207130   8.4888070  24.4492840   3.8235170   7.5985810  24.2703060
   4.2650720   9.0458290  24.2215090   9.7710780  10.8346370  21.7762180
   9.1522220  11.2903870  21.2056620  10.6262560  10.9897830  21.3751880
   8.9649030   6.8185360  23.3829220   8.8957310   5.8775300  23.2218350
   9.7268890   6.9086770  23.9551790  10.6374130   5.7185610  19.1694090
  10.0191400   6.1835060  18.6056810  11.1497380   6.4113090  19.5863600
   5.5005890   5.2461480  25.8477690   5.1675270   5.8730400  26.4898760
   5.6772570   5.7723360  25.0679360   4.7124990   7.2142280  27.6626870
   5.3298990   7.8893360  27.3811320   3.8518110   7.6230260  27.5714370
  15.6302580   8.6781690  25.5781510  14.9466100   9.3480800  25.5698180
  16.1696870   8.8762340  24.8126370  13.1661320  10.5225820  24.2926690
  13.1788480  10.1188110  23.4248950  12.6136540  11.2973110  24.1888120
  14.4606740   7.2442040  19.3816860  14.3503070   6.3016370  19.5066280
  14.4574990   7.6057680  20.2679620  12.5646760   5.4255660  25.6209300
  12.9815550   5.2115770  24.7862760  13.2886580   5.6828450  26.1917920
  10.0027020   2.8707360  18.7379350   9.0756300   2.8044740  18.9667820
  10.1551840   3.8087490  18.6234590  16.5108860   3.8242880  25.7125540
  15.6827490   3.8935970  25.2375670  17.1059340   4.4097190  25.2441370
  14.0324310   4.4327660  19.2414600  13.4136730   4.0947210  18.5940900
  14.0148760   3.7887420  19.9493790   5.6083660   3.3972100  21.5199080
   5.2040660   2.6849350  21.0244980   5.6946780   3.0525340  22.4087120
   6.0765360   7.0839660  23.6838290   5.7793650   6.4785130  23.0046070
   7.0265180   7.1216970  23.5727650  14.1650970  10.6571530  27.3461390
  13.6881530  11.4643720  27.1534000  13.4812760  10.0049860  27.4987600
   5.1683790   6.8221350  30.3346090   4.2712320   7.0461320  30.5819490
   5.1936660   6.9456290  29.3857490  12.2089010   3.6714470  16.2487350
  12.6482290   2.8336900  16.1025170  12.9217430   4.3043870  16.3351490
   3.9955010   3.6934670  28.9103460   3.8562780   4.5657470  29.2790860
   3.1136370   3.3507480  28.7651400  10.3184390   8.6110540  20.2168590
  10.7580300   9.3534870  19.8023980  10.2571280   8.8537110  21.1407550
   5.7935360   9.6356370  31.1188610   5.7650790  10.0399320  30.2517040
   5.6300330   8.7066730  30.9560210   2.3088290   2.2917080  19.0205730
   2.1885890   3.0179170  18.4087000   1.9989180   1.5219990  18.5433640
  17.7450180  10.4183470  32.4152780  18.2209900  10.8966360  33.0941860
  18.3657340  10.3500960  31.6898280  17.1483430   7.6096320  29.5752790
  17.2746490   7.3708200  28.6569970  17.1904810   6.7780860  30.0474870
  11.0100170  11.3124320  28.1447600  11.5244840  11.2232330  28.9470030
  10.1669250  11.6584020  28.4375510  12.9854570  11.5979660  17.5731600
  12.8255710  11.3082600  18.4713430  12.8201280  10.8219790  17.0376830
   5.4642950  11.3778190  19.3503220   5.2885430  10.4613730  19.1371020
   4.6098690  11.7365480  19.5901020  12.6880700   9.1067220  16.1329600
  11.9945860   9.1044510  15.4731880  13.4303560   8.6826540  15.7023770
  12.2530630  10.7329930  20.2078090  12.7087580   9.9519310  20.5216710
  12.5923150  11.4436750  20.7519270   6.5002980   1.9785800  15.6497910
   5.9319880   1.5304050  15.0233820   7.2091980   2.3378580  15.1163060
   7.7269300   2.7274360  25.0073260   8.0939430   2.2532930  25.7534600
   7.5374360   3.6015930  25.3481600   5.5168670   1.7683000  27.3257470
   5.2125740   2.6474980  27.5507830   6.4715130   1.8282790  27.3614910
   4.0450460   5.9743990  17.9224320   3.2712720   5.4341610  17.7623040
   4.7745090   5.4550600  17.5842080  14.8038440   4.9709350  23.7150710
  15.5237560   5.4664640  23.3246820  14.6020260   4.2927240  23.0704580
  10.1857240   5.0418410  29.6019710  10.1194550   4.1214080  29.3477300
   9.5562380   5.1393850  30.3164350   4.0887860   5.6424370  21.5603130
   4.6066530   4.8392630  21.5060020   3.6371880   5.5803510  22.4019960
   8.9757360   6.9090650  16.8330430   9.3173060   7.6532880  16.3373750
   8.1470070   7.2221770  17.1955260   4.7745520   3.0669980  31.3568380
   4.4745660   3.2127160  30.4596200   5.5456760   2.5075270  31.2641770
  10.1173970   7.8638980  29.3523510  10.1318510   6.9319940  29.1342420
   9.4099070   7.9498740  29.9913280  15.2511040   2.0478800  15.6222120
  15.1674760   2.4793020  14.7718560  15.9705230   2.5077150  16.0548940
  16.3285180   4.5046320  28.6992090  15.6033370   5.0975100  28.5021480
  16.8560640   4.4969860  27.9005460  16.2798290   8.9021060  18.3504250
  15.6374450   8.2476680  18.6247970  15.8928950   9.3076150  17.5744920
  11.8584770   6.2306490  22.1975940  12.2108590   5.6334620  21.5377310
  10.9747100   5.9050720  22.3684190   7.9448050   6.9904180  19.6046350
   8.6319180   7.5373390  19.9853940   7.1580470   7.5344910  19.6395960
   7.2475260   3.9950210  19.2171710   7.7038040   4.8055460  19.4431900
   6.8963470   3.6773350  20.0490200   9.5507870   9.5056550  26.4464010
  10.1950090   9.7115930  27.1237430   9.9137310   8.7444950  25.9934860
  10.8239950   7.5088900  25.1641460  11.4662180   6.8082060  25.2773630
  11.3489300   8.2887340  24.9838350  14.6695670   7.7937520  14.8880600
  14.4433250   7.0767960  15.4805240  14.2791870   7.5449960  14.0502350
  12.5977570   8.3083800  28.3677520  12.9333810   8.8950490  29.0455440
  11.6777910   8.1776510  28.5975310  14.2511920   5.7109460  16.5494760
  13.9633620   6.1722150  17.3372640  15.0464090   5.2507230  16.8178980
   8.4266150   8.3575130  31.5365580   8.1063020   7.6384370  32.0811270
   7.7524510   9.0330200  31.6101640   6.4680320   9.2035580  16.4798730
   6.4590420   9.9365270  15.8643240   5.5478680   8.9567160  16.5725690
   9.4539920   9.2663820  15.1423920   9.5551900   9.0627810  14.2125900
   8.5541660   9.0122100  15.3471700   8.0958030  11.7850140  19.8371590
   8.3499530  11.7471530  18.9150960   7.1470510  11.6583470  19.8299840
  14.1010610   2.7042020  21.4130100  13.1600750   2.7192250  21.5877790
  14.4154680   1.9177980  21.8590400   4.0792250   4.3861620  14.9734060
   4.8455520   4.2742980  15.5359490   4.1566940   3.6899590  14.3210830
  16.1036190   9.8750870  23.0884360  16.2283610  10.6982040  23.5608170
  16.9701750   9.6641600  22.7408510   3.5753720  11.9682080  22.7601490
   4.3116200  11.4197540  23.0310060   3.9594640  12.8338090  22.6207480
   2.5812000  11.1528150  31.9487070   3.3824730  11.4740200  32.3622470
   2.0663820  10.7923730  32.6706980   6.6856030  11.1412390  14.5827060
   7.4784640  11.4301220  14.1308850   6.1660380  10.7104560  13.9039540
  11.4176630   7.2608020  31.8962480  10.8114790   7.2839620  31.1558230
  11.1130740   6.5291060  32.4329730  12.8477000  10.9888310  30.5071890
  13.7998750  10.9046330  30.4572130  12.7005220  11.6530020  31.1805680
  15.7386200  10.3682520  16.0063800  15.4527710   9.9547660  15.1917980
  15.5405750  11.2970230  15.8864320   7.2033430   6.3615800  14.4469410
   7.0984070   5.7468150  15.1730790   7.0357650   5.8381690  13.6632420
   7.3547750   5.0472600  30.4258640   6.5893420   5.6157600  30.3413310
   7.5363710   4.7548810  29.5326870  10.4436160   5.4235830  15.0511400
   9.8946260   5.8705130  15.6954140  11.0655420   4.9185080  15.5749070
  14.4971100   6.7777930  30.9833660  15.2380570   7.1153690  30.4801120
  13.7343780   6.9469990  30.4303430   2.3332890   1.7831200  31.7873190
   2.3738230   1.4845070  32.6958420   3.1878390   2.1838810  31.6280710
   6.1111280   4.3826750  16.9476700   6.5327700   4.2166620  17.7908090
   6.2362120   3.5726980  16.4531840   8.6238920   3.4064360  14.1953800
   9.1444580   2.6913380  13.8294950   9.2707320   4.0450230  14.4954310
  13.1716760   4.8292760  29.5188870  13.5857780   4.9837840  30.3679290
  12.2367760   4.9547980  29.6814650   7.9331990   4.7813240  27.4884800
   8.3520100   5.6245970  27.3161040   7.0140620   4.9185280  27.2591580
  10.2695890   2.5129420  28.8722640  10.3892100   1.9170560  29.6117480
  11.1289890   2.5499110  28.4523940  12.6083790   3.0666610  27.4485150
  12.0819010   3.5909230  26.8450290  12.9515130   3.6994000  28.0794880
   5.7839410  11.0866250  28.6042530   5.2460500  11.8112310  28.2851230
   6.0373370  10.6096590  27.8139870   8.6401620  12.3217460  28.8629180
   8.5660320  13.2252600  29.1701550   7.7380460  12.0029360  28.8351250
   9.1886950  11.4875970  16.4855540  10.0837740  11.8260940  16.5074300
   9.2204580  10.7655380  15.8579820   2.8283110   6.8603020  14.7142540
   3.2657980   7.4032690  15.3700120   3.3130840   6.0349970  14.7238880
   4.6390830   7.9801060  19.8264770   4.3386370   7.8566030  20.7268680
   4.5328320   7.1209650  19.4180500  16.1681300  10.0179640  29.1921740
  15.5683290  10.0772200  28.4485660  16.2975200   9.0784620  29.3218590
  17.4082750   7.7597460  14.5291450  16.5775710   7.8274110  14.9998680
  17.5854580   8.6501580  14.2258310  16.8639210   4.5044940  17.0325650
  17.6258120   5.0741590  17.1385340  16.8793580   3.9372140  17.8033960
  17.8699180   5.3595040  21.8767580  18.2408010   4.5762360  21.4703550
  18.5101110   6.0484140  21.6984880  14.8532940   6.7431620  27.2897900
  14.0392780   7.1728780  27.5523690  15.2607140   7.3550030  26.6766950
  16.9158380   4.7979310  14.1898170  17.1907220   5.7058190  14.0617390
  16.7269120   4.7341840  15.1260160  16.8123720   2.7348300  19.1827600
  16.4367320   1.9676230  18.7508890  16.0826840   3.1171000  19.6702530
  16.2023340   1.8819820  28.8167120  15.9709430   1.6532570  27.9165070
  16.4627890   2.8019370  28.7712010  14.9108990  11.4950220  20.8166170
  15.5068060  11.1734790  20.1400590  15.1687140  11.0222040  21.6079440
   2.8171560   7.9268130  30.9656800   2.7741190   7.5561040  31.8471260
   2.9482570   8.8645700  31.1058620   6.5177590   9.4827720  26.5666520
   6.2768950   9.7502280  25.6797040   7.4580230   9.6533450  26.6217380
  17.7781750  11.5022100  27.3677160  17.2840030  11.8990970  26.6504290
  17.1695040  10.8771310  27.7614440   2.6559590  10.8730380  28.0854580
   2.0619910  10.7415080  28.8244620   2.6483430  10.0368520  27.6196680
  15.4621200  12.1445520  24.6463900  15.0024170  12.8961330  24.2721920
  14.8333660  11.4251990  24.5878700   5.8916920  10.4533760  23.8212030
   6.4081940   9.8421120  23.2960290   6.5414300  10.9562540  24.3123040
   8.6312420  11.3442250  24.6481010   8.9190230  11.0896550  23.7714020
   9.1435640  10.7919610  25.2386580   8.6984780  12.2658350  32.0149210
   9.6252090  12.0302620  32.0585170   8.6835210  13.0930350  31.5335240
  16.9329840  11.8083920  19.0123460  17.1082030  11.1221660  18.3684380
  16.2351410  12.3330970  18.6200130   4.7757490  12.1978760  16.5658770
   5.5076310  11.9138040  16.0182660   5.0351160  11.9592040  17.4558150
   3.9372280   8.3143490  16.5705100   3.3081160   8.7828590  17.1190930
   4.0520110   7.4692710  17.0051290  15.2662340  11.4928210  31.8390250
  16.0587660  10.9977440  31.6316210  15.5595490  12.1718350  32.4465860
   9.5240040   4.1428170   4.6015570   8.7482140   3.6628610   4.8914140
  10.1752970   3.4633820   4.4271730   3.5405870   4.4547980   5.4791330
   2.7090750   4.1996690   5.8787840   4.1486850   4.5258750   6.2149250
  13.5447470   8.5488360   3.3814700  13.0829000   7.7775600   3.7101870
  14.3573020   8.5754430   3.8867150   3.5207130   8.4888070   5.6749350
   3.8235170   7.5985810   5.4959570   4.2650720   9.0458290   5.4471600
   9.7710780  10.8346370   3.0018690   9.1522220  11.2903870   2.4313130
  10.6262560  10.9897830   2.6008390   8.9649030   6.8185360   4.6085730
   8.8957310   5.8775300   4.4474860   9.7268890   6.9086770   5.1808300
   5.5005890   5.2461480   7.0734200   5.1675270   5.8730400   7.7155270
   5.6772570   5.7723360   6.2935870   4.7124990   7.2142280   8.8883380
   5.3298990   7.8893360   8.6067830   3.8518110   7.6230260   8.7970880
  15.6302580   8.6781690   6.8038020  14.9466100   9.3480800   6.7954690
  16.1696870   8.8762340   6.0382880  13.1661320  10.5225820   5.5183200
  13.1788480  10.1188110   4.6505460  12.6136540  11.2973110   5.4144630
  12.5646760   5.4255660   6.8465810  12.9815550   5.2115770   6.0119270
  13.2886580   5.6828450   7.4174430  16.5108860   3.8242880   6.9382050
  15.6827490   3.8935970   6.4632180  17.1059340   4.4097190   6.4697880
   5.6083660   3.3972100   2.7455590   5.2040660   2.6849350   2.2501490
   5.6946780   3.0525340   3.6343630   6.0765360   7.0839660   4.9094800
   5.7793650   6.4785130   4.2302580   7.0265180   7.1216970   4.7984160
  14.1650970  10.6571530   8.5717900  13.6881530  11.4643720   8.3790510
  13.4812760  10.0049860   8.7244110   5.1683790   6.8221350  11.5602600
   4.2712320   7.0461320  11.8076000   5.1936660   6.9456290  10.6114000
   3.9955010   3.6934670  10.1359970   3.8562780   4.5657470  10.5047370
   3.1136370   3.3507480   9.9907910   5.7935360   9.6356370  12.3445120
   5.7650790  10.0399320  11.4773550   5.6300330   8.7066730  12.1816720
  17.7450180  10.4183470  13.6409290  18.2209900  10.8966360  14.3198370
  18.3657340  10.3500960  12.9154790  17.1483430   7.6096320  10.8009300
  17.2746490   7.3708200   9.8826480  17.1904810   6.7780860  11.2731380
  11.0100170  11.3124320   9.3704110  11.5244840  11.2232330  10.1726540
  10.1669250  11.6584020   9.6632020   7.7269300   2.7274360   6.2329770
   8.0939430   2.2532930   6.9791110   7.5374360   3.6015930   6.5738110
   5.5168670   1.7683000   8.5513980   5.2125740   2.6474980   8.7764340
   6.4715130   1.8282790   8.5871420  14.8038440   4.9709350   4.9407220
  15.5237560   5.4664640   4.5503330  14.6020260   4.2927240   4.2961090
  10.1857240   5.0418410  10.8276220  10.1194550   4.1214080  10.5733810
   9.5562380   5.1393850  11.5420860   4.0887860   5.6424370   2.7859640
   4.6066530   4.8392630   2.7316530   3.6371880   5.5803510   3.6276470
   4.7745520   3.0669980  12.5824890   4.4745660   3.2127160  11.6852710
   5.5456760   2.5075270  12.4898280  10.1173970   7.8638980  10.5780020
  10.1318510   6.9319940  10.3598930   9.4099070   7.9498740  11.2169790
  16.3285180   4.5046320   9.9248600  15.6033370   5.0975100   9.7277990
  16.8560640   4.4969860   9.1261970  11.8584770   6.2306490   3.4232450
  12.2108590   5.6334620   2.7633820  10.9747100   5.9050720   3.5940700
   9.5507870   9.5056550   7.6720520  10.1950090   9.7115930   8.3493940
   9.9137310   8.7444950   7.2191370  10.8239950   7.5088900   6.3897970
  11.4662180   6.8082060   6.5030140  11.3489300   8.2887340   6.2094860
  12.5977570   8.3083800   9.5934030  12.9333810   8.8950490  10.2711950
  11.6777910   8.1776510   9.8231820   8.4266150   8.3575130  12.7622090
   8.1063020   7.6384370  13.3067780   7.7524510   9.0330200  12.8358150
  14.1010610   2.7042020   2.6386610  13.1600750   2.7192250   2.8134300
  14.4154680   1.9177980   3.0846910  16.1036190   9.8750870   4.3140870
  16.2283610  10.6982040   4.7864680  16.9701750   9.6641600   3.9665020
   3.5753720  11.9682080   3.9858000   4.3116200  11.4197540   4.2566570
   3.9594640  12.8338090   3.8463990   2.5812000  11.1528150  13.1743580
   3.3824730  11.4740200  13.5878980   2.0663820  10.7923730  13.8963490
  11.4176630   7.2608020  13.1218990  10.8114790   7.2839620  12.3814740
  11.1130740   6.5291060  13.6586240  12.8477000  10.9888310  11.7328400
  13.7998750  10.9046330  11.6828640  12.7005220  11.6530020  12.4062190
   7.3547750   5.0472600  11.6515150   6.5893420   5.6157600  11.5669820
   7.5363710   4.7548810  10.7583380  14.4971100   6.7777930  12.2090170
  15.2380570   7.1153690  11.7057630  13.7343780   6.9469990  11.6559940
   2.3332890   1.7831200  13.0129700   2.3738230   1.4845070  13.9214930
   3.1878390   2.1838810  12.8537220  13.1716760   4.8292760  10.7445380
  13.5857780   4.9837840  11.5935800  12.2367760   4.9547980  10.9071160
   7.9331990   4.7813240   8.7141310   8.3520100   5.6245970   8.5417550
   7.0140620   4.9185280   8.4848090  10.2695890   2.5129420  10.0979150
  10.3892100   1.9170560  10.8373990  11.1289890   2.5499110   9.6780450
  12.6083790   3.0666610   8.6741660  12.0819010   3.5909230   8.0706800
  12.9515130   3.6994000   9.3051390   5.7839410  11.0866250   9.8299040
   5.2460500  11.8112310   9.5107740   6.0373370  10.6096590   9.0396380
   8.6401620  12.3217460  10.0885690   8.5660320  13.2252600  10.3958060
   7.7380460  12.0029360  10.0607760  16.1681300  10.0179640  10.4178250
  15.5683290  10.0772200   9.6742170  16.2975200   9.0784620  10.5475100
  17.8699180   5.3595040   3.1024090  18.2408010   4.5762360   2.6960060
  18.5101110   6.0484140   2.9241390  14.8532940   6.7431620   8.5154410
  14.0392780   7.1728780   8.7780200  15.2607140   7.3550030   7.9023460
  16.2023340   1.8819820  10.0423630  15.9709430   1.6532570   9.1421580
  16.4627890   2.8019370   9.9968520   2.8171560   7.9268130  12.1913310
   2.7741190   7.5561040  13.0727770   2.9482570   8.8645700  12.3315130
   6.5177590   9.4827720   7.7923030   6.2768950   9.7502280   6.9053550
   7.4580230   9.6533450   7.8473890  17.7781750  11.5022100   8.5933670
  17.2840030  11.8990970   7.8760800  17.1695040  10.8771310   8.9870950
   2.6559590  10.8730380   9.3111090   2.0619910  10.7415080  10.0501130
   2.6483430  10.0368520   8.8453190  15.4621200  12.1445520   5.8720410
  15.0024170  12.8961330   5.4978430  14.8333660  11.4251990   5.8135210
   5.8916920  10.4533760   5.0468540   6.4081940   9.8421120   4.5216800
   6.5414300  10.9562540   5.5379550   8.6312420  11.3442250   5.8737520
   8.9190230  11.0896550   4.9970530   9.1435640  10.7919610   6.4643090
   8.6984780  12.2658350  13.2405720   9.6252090  12.0302620  13.2841680
   8.6835210  13.0930350  12.7591750  15.2662340  11.4928210  13.0646760
  16.0587660  10.9977440  12.8572720  15.5595490  12.1718350  13.6722370
  92.3278160 100.0948430  65.0295520  90.0000000  90.0000000  90.0000000
